(SLURM) JOB ID:         150

                                 *****************
                                 * O   R   C   A *
                                 *****************

           --- An Ab Initio, DFT and Semiempirical electronic structure package ---

                  #######################################################
                  #                        -***-                        #
                  #          Department of theory and spectroscopy      #
                  #               Directorship: Frank Neese             #
                  #        Max Planck Institute fuer Kohlenforschung    #
                  #                Kaiser Wilhelm Platz 1               #
                  #                 D-45470 Muelheim/Ruhr               #
                  #                      Germany                        #
                  #                                                     #
                  #                  All rights reserved                #
                  #                        -***-                        #
                  #######################################################


                         Program Version 4.2.1 -  RELEASE  -


 With contributions from (in alphabetic order):
   Daniel Aravena         : Magnetic Suceptibility
   Michael Atanasov       : Ab Initio Ligand Field Theory (pilot matlab implementation)
   Alexander A. Auer      : GIAO ZORA, VPT2
   Ute Becker             : Parallelization
   Giovanni Bistoni       : ED, misc. LED, open-shell LED, HFLD
   Martin Brehm           : Molecular dynamics
   Dmytro Bykov           : SCF Hessian
   Vijay G. Chilkuri      : MRCI spin determinant printing, contributions to CSF-ICE
   Dipayan Datta          : RHF DLPNO-CCSD density
   Achintya Kumar Dutta   : EOM-CC, STEOM-CC
   Dmitry Ganyushin       : Spin-Orbit,Spin-Spin,Magnetic field MRCI
   Miquel Garcia          : C-PCM Hessian, Gaussian charge scheme
   Yang Guo               : DLPNO-NEVPT2, CIM, IAO-localization
   Andreas Hansen         : Spin unrestricted coupled pair/coupled cluster methods
   Benjamin Helmich-Paris : CASSCF linear response (MC-RPA)
   Lee Huntington         : MR-EOM, pCC
   Robert Izsak           : Overlap fitted RIJCOSX, COSX-SCS-MP3, EOM
   Christian Kollmar      : KDIIS, OOCD, Brueckner-CCSD(T), CCSD density
   Simone Kossmann        : Meta GGA functionals, TD-DFT gradient, OOMP2, MP2 Hessian
   Martin Krupicka        : AUTO-CI
   Lucas Lang             : DCDCAS
   Dagmar Lenk            : GEPOL surface, SMD
   Dimitrios Liakos       : Extrapolation schemes; Compound Job, initial MDCI parallelization
   Dimitrios Manganas     : Further ROCIS development; embedding schemes
   Dimitrios Pantazis     : SARC Basis sets
   Taras Petrenko         : DFT Hessian,TD-DFT gradient, ASA, ECA, R-Raman, ABS, FL, XAS/XES, NRVS
   Peter Pinski           : DLPNO-MP2, DLPNO-MP2 Gradient
   Christoph Reimann      : Effective Core Potentials
   Marius Retegan         : Local ZFS, SOC
   Christoph Riplinger    : Optimizer, TS searches, QM/MM, DLPNO-CCSD(T), (RO)-DLPNO pert. Triples
   Tobias Risthaus        : Range-separated hybrids, TD-DFT gradient, RPA, STAB
   Michael Roemelt        : Original ROCIS implementation
   Masaaki Saitow         : Open-shell DLPNO-CCSD energy and density
   Barbara Sandhoefer     : DKH picture change effects
   Avijit Sen             : IP-ROCIS
   Kantharuban Sivalingam : CASSCF convergence, NEVPT2, FIC-MRCI
   Bernardo de Souza      : ESD, SOC TD-DFT
   Georgi Stoychev        : AutoAux, RI-MP2 NMR
   Willem Van den Heuvel  : Paramagnetic NMR
   Boris Wezisla          : Elementary symmetry handling
   Frank Wennmohs         : Technical directorship


 We gratefully acknowledge several colleagues who have allowed us to
 interface, adapt or use parts of their codes:
   Stefan Grimme, W. Hujo, H. Kruse,             : VdW corrections, initial TS optimization,
                  C. Bannwarth                     DFT functionals, gCP, sTDA/sTD-DF
   Ed Valeev, F. Pavosevic, A. Kumar             : LibInt (2-el integral package), F12 methods
   Garnet Chan, S. Sharma, J. Yang, R. Olivares  : DMRG
   Ulf Ekstrom                                   : XCFun DFT Library
   Mihaly Kallay                                 : mrcc  (arbitrary order and MRCC methods)
   Andreas Klamt, Michael Diedenhofen            : otool_cosmo (COSMO solvation model)
   Jiri Pittner, Ondrej Demel                    : Mk-CCSD
   Frank Weinhold                                : gennbo (NPA and NBO analysis)
   Christopher J. Cramer and Donald G. Truhlar   : smd solvation model
   Lars Goerigk                                  : TD-DFT with DH, B97 family of functionals
   V. Asgeirsson, H. Jonsson                     : NEB implementation
   FAccTs GmbH                                   : IRC, NEB, NEB-TS, Multilevel, MM, QM/MM, CI optimization
   S Lehtola, MJT Oliveira, MAL Marques          : LibXC Library


 Your calculation uses the libint2 library for the computation of 2-el integrals
 For citations please refer to: http://libint.valeyev.net

 Your ORCA version has been built with support for libXC version: 4.2.3
 For citations please refer to: https://tddft.org/programs/libxc/

 This ORCA versions uses:
   CBLAS   interface :  Fast vector & matrix operations
   LAPACKE interface :  Fast linear algebra routines
   SCALAPACK package :  Parallel linear algebra routines




***************************************
The coordinates will be read from file: init.xyz
***************************************


Your calculation utilizes the SMD solvation module
Please cite in your paper:
A.V. Marenich, C.J. Cramer, D.G. Truhlar J. Phys. Chem. B, 113, (2009), 6378 

Your calculation utilizes the semiempirical GFN2-xTB method
Please cite in your paper:
C. Bannwarth, Ehlert S., S. Grimme,  J. Chem. Theory Comput., 15, (2019), 1652.
   

----- Orbital basis set information -----
Your calculation utilizes the basis: def2-SVP
   F. Weigend and R. Ahlrichs, Phys. Chem. Chem. Phys. 7, 3297 (2005).

================================================================================
                                        WARNINGS
                       Please study these warnings very carefully!
================================================================================

WARNING: Gradients needed for Numerical Frequencies
  ===> : Setting RunTyp to EnGrad

WARNING: The environment variable RSH_COMMAND is not set!
  ===> : All Displacements for the Numerical Hessian calculation
         will be started on localhost

WARNING: Found dipole moment calculation with XTB calculation
  ===> : Switching off dipole moment calculation


INFO   : the flag for use of LIBINT has been found!

================================================================================
                                       INPUT FILE
================================================================================
NAME = /tmp/slurm-scratch/freq.150/freq.inp
|  1> ! XTB2 NumFreq
|  2> %maxcore 1450
|  3> 
|  4> * xyzfile 0 1 init.xyz
|  5> 
|  6> %cpcm
|  7>  smd true
|  8>  smdsolvent "ch2cl2"
|  9> end
| 10> %pal nprocs 8 end
| 11> 
| 12>                          ****END OF INPUT****
================================================================================

                     *******************************
                     * Energy+Gradient Calculation *
                     *******************************

      -----------------------------------------------------------      
     |                   =====================                   |     
     |                           x T B                           |     
     |                   =====================                   |     
     |                         S. Grimme                         |     
     |          Mulliken Center for Theoretical Chemistry        |     
     |                    University of Bonn                     |     
      -----------------------------------------------------------      

   * xtb version 6.3.0 (preview) compiled by 'ehlert@majestix' on 2020-01-15

   This program is distributed in the hope that it will be useful,
   but WITHOUT ANY WARRANTY; without even the implied warranty of
   MERCHANTABILITY or FITNESS FOR A PARTICULAR PURPOSE.
   
   FOR NON-COMMERCIAL, ACADEMIA USE ONLY.
   
   Cite this work as:
   * S. Grimme, C. Bannwarth, P. Shushkov, J. Chem. Theory Comput., 2017,
     13, 1989-2009. DOI: 10.1021/acs.jctc.7b00118
   * C. Bannwarth, S. Ehlert and S. Grimme., J. Chem. Theory Comput., 2019,
     15, 1652-1671. DOI: 10.1021/acs.jctc.8b01176
   * P. Pracht, E. Caldeweyher, S. Ehlert, S. Grimme, ChemRxiv, 2019, preprint.
     DOI: 10.26434/chemrxiv.8326202.v1
   * S. Grimme, S. Spicher unpublished
   
   for DFT-D4:
   * E. Caldeweyher, C. Bannwarth and S. Grimme, J. Chem. Phys., 2017,
     147, 034112. DOI: 10.1063/1.4993215
   * E. Caldeweyher, S. Ehlert, A. Hansen, H. Neugebauer, S. Spicher,
     C. Bannwarth and S. Grimme, J. Chem. Phys., 2019, 150, 154122.
     DOI: 10.1063/1.5090222
   
   for sTDA-xTB:
   * S. Grimme and C. Bannwarth, J. Chem. Phys., 2016, 145, 054103.
     DOI: 10.1063/1.4959605
   
   in the mass-spec context:
   * V. Asgeirsson, C. Bauer and S. Grimme, Chem. Sci., 2017, 8, 4879.
     DOI: 10.1039/c7sc00601b
   
   for metadynamics refer to:
   * S. Grimme, J. Chem. Theory Comput., 2019, 155, 2847-2862
     DOI: 10.1021/acs.jctc.9b00143
   
   with help from (in alphabetical order)
   C. Bannwarth, F. Bohle, G. Brandenburg, E. Caldeweyher, M. Checinski,
   S. Dohm, S. Ehlert, S. Ehrlich, F. März, H. Neugebauer, J. Pisarek,
   P. Pracht, P. Shushkov, and S. Spicher.
   
 * started run on 2020/08/26 at 06:34:14.369     

           -------------------------------------------------
          |                Calculation Setup                |
           -------------------------------------------------

          program call               : /opt/orca/otool_xtb /tmp/slurm-scratch/freq.150/freq_XTB.xyz --grad -c 0 -u 0 -P 8 --namespace /tmp/slurm-scratch/freq.150/freq --gbsa CH2Cl2
          hostname                   : headnode-pbs
          calculation namespace      : /tmp/slurm-scratch/freq.150/freq
          coordinate file            : /tmp/slurm-scratch/freq.150/freq_XTB.xyz
          omp threads                :                     8
          number of atoms            :                    49
          number of electrons        :                   112
          charge                     :                     0
          spin                       :                   0.0
          first test random number   :      0.70069468932182


molecular fragmentation (1/2 indicates fragments):
1111111111222222221222222121122222222222222222222
# atoms in fragment 1/2:    14    35
 fragment masses (1/2) :      106.12      164.29
CMA distance (Bohr)    :   6.993
constraining FC (au)   :  0.0500

########################################################################
# WARNING! Please study the warnings concerning your input carefully
#  - Process number higher than OMP_NUM_THREADS, I hope you know what you are doing.
########################################################################

           ------------------------------------------------- 
          |                 G F N 2 - x T B                 |
          | Geometry, Frequencies, Noncovalent interactions |
          |            JCTC 2019 parametrisation            |
           ------------------------------------------------- 
             k(s)              :                1.8500
             k(p)              :                2.2300
             k(d)              :                2.2300
             k(f)              :                2.0000
             kEN (H0ij)        :               -2.0000
             D4 a1             :                0.5200
             D4 a2             :                5.0000
             D4 s6             :                1.0000
             D4 s8             :                2.7000
             D4 s9             :                5.0000
             alphaj            :                2.0000

  Z AO/shell   Hii/eV     exponent
  1     Wed Apr 25 08:07:45 CEST 2018   EN: 2.200 GM2: 0.406  GM3: 0.0800  RAES: 1.40
     1s    -10.707211    1.230000
  6     Wed Apr 25 08:07:45 CEST 2018   EN: 2.550 GM2: 0.538  GM3: 0.1500  RAES: 3.00
     2s    -13.970922    2.096432
     2p    -10.063292    1.800000
  7     Wed Apr 25 08:07:45 CEST 2018   EN: 3.040 GM2: 0.461  GM3:-0.0640  RAES: 1.90
     2s    -16.686243    2.339881
     2p    -12.523956    2.014332
  8     Wed Apr 25 08:07:45 CEST 2018   EN: 3.440 GM2: 0.452  GM3:-0.0517  RAES: 1.80
     2s    -20.229985    2.439742
     2p    -15.503117    2.137023

 Solvent             : CH2Cl2
 Using internal parameter file: .param_gbsa2_CH2Cl2
 Gsolv ref. state (COSMO-RS): gsolv [1 M gas/solution]
 temperature (mdtemp)       :    298.150000000000     
 dielectric constant        :    8.93000000000000     
 rho                        :    1.33000000000000     
 mass                       :    84.9300000000000     
 surface tension            :    15.5689454083859     
 probe radius               :   0.719875900000000     
 Gshift (Eh)                :   4.440829173451759E-003
 c1                         :    1.49173776000000     
 soset                      :   0.000000000000000E+000
 HB correction              :  F
           ------------------------------------------------- 
          |        Self-Consistent Charge Iterations        |
           ------------------------------------------------- 

          ...................................................
          :                      SETUP                      :
          :.................................................:
          :  # basis functions                 106          :
          :  # atomic orbitals                 106          :
          :  # shells                           68          :
          :  # electrons                       112          :
          :  max. iterations                   250          :
          :  Hamiltonian                  GFN2-xTB          :
          :  GBSA solvation                   true          :
          :  PC potential                    false          :
          :  electronic temp.          300.0000000     K    :
          :  accuracy                    1.0000000          :
          :  -> integral cutoff          0.2500000E+02      :
          :  -> integral neglect         0.1000000E-07      :
          :  -> SCF convergence          0.1000000E-05 Eh   :
          :  -> wf. convergence          0.1000000E-03 e    :
          :  Broyden damping             0.4000000          :
          ...................................................
  Checking positiv definite overlap ...  done.
 

 iter      E             dE          RMSdq      gap      omega  full diag
   1    -62.1012956 -0.621013E+02  0.368E+00    2.42       0.0  T
   2    -62.1926907 -0.913951E-01  0.197E+00    2.14       1.0  T
   3    -62.1939035 -0.121276E-02  0.919E-01    2.22       1.0  T
   4    -62.1987600 -0.485656E-02  0.210E-01    2.00       1.0  T
   5    -62.1998004 -0.104038E-02  0.709E-02    2.03       1.0  T
   6    -62.1998503 -0.499376E-04  0.349E-02    2.04       1.0  T
   7    -62.1998680 -0.177137E-04  0.122E-02    2.04       1.2  T
   8    -62.1998693 -0.125673E-05  0.378E-03    2.04       3.8  T
   9    -62.1998695 -0.145261E-06  0.159E-03    2.04       9.0  T
  10    -62.1998695 -0.242336E-07  0.821E-04    2.04      17.4  T
  11    -62.1998695 -0.644273E-08  0.352E-04    2.04      40.6  T

   *** convergence criteria satisfied after 11 iterations ***

         #    Occupation            Energy/Eh            Energy/eV
      -------------------------------------------------------------
         1        2.0000           -0.7140781             -19.4311
       ...           ...                  ...                  ...
        50        2.0000           -0.4261738             -11.5968
        51        2.0000           -0.4199397             -11.4271
        52        2.0000           -0.4195910             -11.4177
        53        2.0000           -0.4187526             -11.3948
        54        2.0000           -0.4025683             -10.9544
        55        2.0000           -0.3861609             -10.5080
        56        2.0000           -0.3679983             -10.0137 (HOMO)
        57                         -0.2930177              -7.9734 (LUMO)
        58                         -0.2384192              -6.4877
        59                         -0.2048371              -5.5739
        60                         -0.0989630              -2.6929
        61                          0.0065660               0.1787
       ...                                ...                  ...
       106                          0.6464861              17.5918
      -------------------------------------------------------------
                  HL-Gap            0.0749806 Eh            2.0403 eV
             Fermi-level           -0.3305080 Eh           -8.9936 eV

 SCC (total)                   0 d,  0 h,  0 min,  0.254 sec
 SCC setup                      ...        0 min,  0.008 sec (  3.313%)
 Dispersion                     ...        0 min,  0.003 sec (  1.233%)
 integral evaluation            ...        0 min,  0.034 sec ( 13.541%)
 zeroth order Hamiltonian       ...        0 min,  0.000 sec (  0.024%)
 iterations                     ...        0 min,  0.182 sec ( 71.739%)
 molecular gradient             ...        0 min,  0.024 sec (  9.488%)
 printout                       ...        0 min,  0.002 sec (  0.624%)

         :::::::::::::::::::::::::::::::::::::::::::::::::::::
         ::                     SUMMARY                     ::
         :::::::::::::::::::::::::::::::::::::::::::::::::::::
         :: total energy             -61.364576249127 Eh    ::
         :: total w/o Gsasa/hb       -61.341871637622 Eh    ::
         :: gradient norm              0.027920674837 Eh/a0 ::
         :: HOMO-LUMO gap              2.040325387891 eV    ::
         ::.................................................::
         :: SCC energy               -62.222574092349 Eh    ::
         :: -> isotropic ES            0.095678773723 Eh    ::
         :: -> anisotropic ES          0.004086024725 Eh    ::
         :: -> anisotropic XC          0.037666450397 Eh    ::
         :: -> dispersion             -0.042300994926 Eh    ::
         :: -> Gsolv                  -0.033468377757 Eh    ::
         ::    -> Gborn               -0.010763766253 Eh    ::
         ::    -> Gsasa               -0.027145440678 Eh    ::
         ::    -> Ghb                  0.000000000000 Eh    ::
         ::    -> Gshift               0.004440829173 Eh    ::
         :: repulsion energy           0.856612759161 Eh    ::
         :: add. restraining           0.000000000000 Eh    ::
         :::::::::::::::::::::::::::::::::::::::::::::::::::::

           -------------------------------------------------
          |                Property Printout                |
           -------------------------------------------------

    * Orbital Energies and Occupations

         #    Occupation            Energy/Eh            Energy/eV
      -------------------------------------------------------------
         1        2.0000           -0.7140781             -19.4311
       ...           ...                  ...                  ...
        44        2.0000           -0.4405410             -11.9877
        45        2.0000           -0.4387377             -11.9387
        46        2.0000           -0.4380757             -11.9206
        47        2.0000           -0.4346866             -11.8284
        48        2.0000           -0.4323201             -11.7640
        49        2.0000           -0.4289884             -11.6734
        50        2.0000           -0.4261738             -11.5968
        51        2.0000           -0.4199397             -11.4271
        52        2.0000           -0.4195910             -11.4177
        53        2.0000           -0.4187526             -11.3948
        54        2.0000           -0.4025683             -10.9544
        55        2.0000           -0.3861609             -10.5080
        56        2.0000           -0.3679983             -10.0137 (HOMO)
        57                         -0.2930177              -7.9734 (LUMO)
        58                         -0.2384192              -6.4877
        59                         -0.2048371              -5.5739
        60                         -0.0989630              -2.6929
        61                          0.0065660               0.1787
        62                          0.0277157               0.7542
        63                          0.0686054               1.8668
        64                          0.0834425               2.2706
        65                          0.0911794               2.4811
        66                          0.0977701               2.6605
        67                          0.1089534               2.9648
       ...                                ...                  ...
       106                          0.6464861              17.5918
      -------------------------------------------------------------
                  HL-Gap            0.0749806 Eh            2.0403 eV
             Fermi-level           -0.3305080 Eh           -8.9936 eV

     #   Z        covCN         q      C6AA      α(0)
     1   6 C      2.968    -0.009    28.250     8.718
     2   6 C      2.921    -0.023    28.576     8.766
     3   6 C      2.914    -0.025    28.629     8.774
     4   6 C      2.917    -0.017    28.433     8.744
     5   6 C      2.914    -0.023    28.591     8.768
     6   6 C      2.919    -0.013    28.329     8.728
     7   6 C      2.767     0.211    23.529     7.944
     8   1 H      0.925     0.050     2.325     2.385
     9   1 H      0.926     0.050     2.323     2.383
    10   1 H      0.925     0.054     2.269     2.355
    11   7 N      2.629    -0.380    29.834     8.112
    12   6 C      3.731     0.026    20.223     6.419
    13   1 H      0.860     0.171     1.267     1.763
    14   6 C      3.802    -0.066    21.767     6.642
    15   1 H      0.923     0.006     2.963     2.692
    16   1 H      0.924     0.026     2.648     2.545
    17   1 H      0.924     0.039     2.458     2.452
    18   1 H      0.924     0.037     2.484     2.465
    19   8 O      0.856    -0.402    21.725     6.249
    20   7 N      2.628    -0.371    29.570     8.076
    21   1 H      0.860     0.168     1.284     1.775
    22   1 H      0.860     0.149     1.408     1.859
    23   8 O      1.605    -0.629    25.886     6.867
    24   1 H      0.801     0.308     0.699     1.314
    25   1 H      0.805     0.281     0.782     1.389
    26   1 H      0.923     0.033     2.551     2.498
    27   1 H      0.860     0.140     1.471     1.900
    28   1 H      0.925     0.051     2.304     2.374
    29   1 H      0.925     0.050     2.323     2.383
    30   6 C      3.800    -0.053    21.524     6.606
    31   1 H      0.924     0.030     2.579     2.512
    32   1 H      0.924     0.030     2.586     2.515
    33   6 C      3.731     0.018    20.362     6.441
    34   1 H      0.924     0.016     2.797     2.616
    35   1 H      0.924     0.037     2.489     2.467
    36   6 C      3.803    -0.070    21.832     6.652
    37   1 H      0.924     0.040     2.454     2.450
    38   1 H      0.924     0.038     2.481     2.463
    39   6 C      3.800    -0.055    21.565     6.612
    40   1 H      0.924     0.034     2.530     2.487
    41   1 H      0.924     0.035     2.517     2.481
    42   6 C      3.749    -0.102    22.510     6.767
    43   1 H      0.924     0.037     2.494     2.470
    44   1 H      0.924     0.035     2.523     2.484
    45   1 H      0.924     0.035     2.521     2.483
    46   6 C      3.750    -0.103    22.540     6.771
    47   1 H      0.924     0.040     2.454     2.450
    48   1 H      0.924     0.035     2.515     2.480
    49   1 H      0.924     0.034     2.533     2.489

 Mol. C6AA /au·bohr⁶  :      19235.972765
 Mol. C8AA /au·bohr⁸  :     417018.358853
 Mol. α(0) /au        :        212.031185


Wiberg/Mayer (AO) data.
largest (>0.10) Wiberg bond orders for each atom
          total WBO             WBO to atom ...
     1  C   3.989        C    2 1.370    C    6 1.367    C    7 1.065
     2  C   3.989        C    3 1.458    C    1 1.370    H    8 0.966    C    5 0.105
     3  C   3.991        C    2 1.458    C    4 1.430    H   28 0.969    C    6 0.105
     4  C   3.989        C    3 1.430    C    5 1.426    H   10 0.970
     5  C   3.991        C    6 1.460    C    4 1.426    H   29 0.969    C    2 0.105
     6  C   3.989        C    5 1.460    C    1 1.367    H    9 0.966    C    3 0.105
     7  C   3.909        O   19 1.808    C    1 1.065    H   26 0.934
     8  H   0.998        C    2 0.966
     9  H   0.998        C    6 0.966
    10  H   0.997        C    4 0.970
    11  N   3.021        C   12 1.019    H   27 0.966    H   13 0.940
    12  C   3.986        N   11 1.019    C   14 1.006    H   16 0.974    H   15 0.970
    13  H   0.971        N   11 0.940
    14  C   3.995        C   30 1.007    C   12 1.006    H   18 0.976    H   17 0.975
    15  H   1.000        C   12 0.970
    16  H   0.999        C   12 0.974
    17  H   0.998        C   14 0.975
    18  H   0.999        C   14 0.976
    19  O   2.034        C    7 1.808
    20  N   3.068        C   33 1.010    H   22 0.964    H   21 0.948
    21  H   0.972        N   20 0.948
    22  H   0.977        N   20 0.964
    23  O   1.818        H   25 0.919    H   24 0.833
    24  H   0.905        O   23 0.833
    25  H   0.921        O   23 0.919
    26  H   0.998        C    7 0.934
    27  H   0.980        N   11 0.966
    28  H   0.997        C    3 0.969
    29  H   0.997        C    5 0.969
    30  C   3.998        C   42 1.020    C   14 1.007    H   31 0.978    H   32 0.978
    31  H   0.999        C   30 0.978
    32  H   0.999        C   30 0.978
    33  C   3.981        N   20 1.010    C   36 1.006    H   35 0.977    H   34 0.971
    34  H   1.000        C   33 0.971
    35  H   0.998        C   33 0.977
    36  C   3.995        C   39 1.007    C   33 1.006    H   37 0.974    H   38 0.971
    37  H   0.998        C   36 0.974
    38  H   0.999        C   36 0.971
    39  C   3.997        C   46 1.020    C   36 1.007    H   41 0.978    H   40 0.976
    40  H   0.999        C   39 0.976
    41  H   0.999        C   39 0.978
    42  C   3.996        C   30 1.020    H   44 0.988    H   45 0.988    H   43 0.987
    43  H   0.998        C   42 0.987
    44  H   0.999        C   42 0.988
    45  H   0.999        C   42 0.988
    46  C   3.996        C   39 1.020    H   48 0.988    H   49 0.987    H   47 0.987
    47  H   0.998        C   46 0.987
    48  H   0.999        C   46 0.988
    49  H   0.999        C   46 0.987

molecular dipole:
                 x           y           z       tot (Debye)
 q only:       -2.106       0.217       0.507
   full:       -2.322       0.144       0.605       6.110
molecular quadrupole (traceless):
                xx          xy          yy          xz          yz          zz
 q only:       -5.814      10.278       9.445       3.156      -3.365      -3.631
  q+dip:      -11.517      11.800      13.961       4.870      -0.702      -2.445
   full:      -12.273      11.666      13.048       4.588      -2.452      -0.775

           -------------------------------------------------
          |                Property Printout                |
           -------------------------------------------------

    * Orbital Energies and Occupations

         #    Occupation            Energy/Eh            Energy/eV
      -------------------------------------------------------------
         1        2.0000           -0.7140781             -19.4311
       ...           ...                  ...                  ...
        44        2.0000           -0.4405410             -11.9877
        45        2.0000           -0.4387377             -11.9387
        46        2.0000           -0.4380757             -11.9206
        47        2.0000           -0.4346866             -11.8284
        48        2.0000           -0.4323201             -11.7640
        49        2.0000           -0.4289884             -11.6734
        50        2.0000           -0.4261738             -11.5968
        51        2.0000           -0.4199397             -11.4271
        52        2.0000           -0.4195910             -11.4177
        53        2.0000           -0.4187526             -11.3948
        54        2.0000           -0.4025683             -10.9544
        55        2.0000           -0.3861609             -10.5080
        56        2.0000           -0.3679983             -10.0137 (HOMO)
        57                         -0.2930177              -7.9734 (LUMO)
        58                         -0.2384192              -6.4877
        59                         -0.2048371              -5.5739
        60                         -0.0989630              -2.6929
        61                          0.0065660               0.1787
        62                          0.0277157               0.7542
        63                          0.0686054               1.8668
        64                          0.0834425               2.2706
        65                          0.0911794               2.4811
        66                          0.0977701               2.6605
        67                          0.1089534               2.9648
       ...                                ...                  ...
       106                          0.6464861              17.5918
      -------------------------------------------------------------
                  HL-Gap            0.0749806 Eh            2.0403 eV
             Fermi-level           -0.3305080 Eh           -8.9936 eV

     #   Z        covCN         q      C6AA      α(0)
     1   6 C      2.968    -0.009    28.250     8.718
     2   6 C      2.921    -0.023    28.576     8.766
     3   6 C      2.914    -0.025    28.629     8.774
     4   6 C      2.917    -0.017    28.433     8.744
     5   6 C      2.914    -0.023    28.591     8.768
     6   6 C      2.919    -0.013    28.329     8.728
     7   6 C      2.767     0.211    23.529     7.944
     8   1 H      0.925     0.050     2.325     2.385
     9   1 H      0.926     0.050     2.323     2.383
    10   1 H      0.925     0.054     2.269     2.355
    11   7 N      2.629    -0.380    29.834     8.112
    12   6 C      3.731     0.026    20.223     6.419
    13   1 H      0.860     0.171     1.267     1.763
    14   6 C      3.802    -0.066    21.767     6.642
    15   1 H      0.923     0.006     2.963     2.692
    16   1 H      0.924     0.026     2.648     2.545
    17   1 H      0.924     0.039     2.458     2.452
    18   1 H      0.924     0.037     2.484     2.465
    19   8 O      0.856    -0.402    21.725     6.249
    20   7 N      2.628    -0.371    29.570     8.076
    21   1 H      0.860     0.168     1.284     1.775
    22   1 H      0.860     0.149     1.408     1.859
    23   8 O      1.605    -0.629    25.886     6.867
    24   1 H      0.801     0.308     0.699     1.314
    25   1 H      0.805     0.281     0.782     1.389
    26   1 H      0.923     0.033     2.551     2.498
    27   1 H      0.860     0.140     1.471     1.900
    28   1 H      0.925     0.051     2.304     2.374
    29   1 H      0.925     0.050     2.323     2.383
    30   6 C      3.800    -0.053    21.524     6.606
    31   1 H      0.924     0.030     2.579     2.512
    32   1 H      0.924     0.030     2.586     2.515
    33   6 C      3.731     0.018    20.362     6.441
    34   1 H      0.924     0.016     2.797     2.616
    35   1 H      0.924     0.037     2.489     2.467
    36   6 C      3.803    -0.070    21.832     6.652
    37   1 H      0.924     0.040     2.454     2.450
    38   1 H      0.924     0.038     2.481     2.463
    39   6 C      3.800    -0.055    21.565     6.612
    40   1 H      0.924     0.034     2.530     2.487
    41   1 H      0.924     0.035     2.517     2.481
    42   6 C      3.749    -0.102    22.510     6.767
    43   1 H      0.924     0.037     2.494     2.470
    44   1 H      0.924     0.035     2.523     2.484
    45   1 H      0.924     0.035     2.521     2.483
    46   6 C      3.750    -0.103    22.540     6.771
    47   1 H      0.924     0.040     2.454     2.450
    48   1 H      0.924     0.035     2.515     2.480
    49   1 H      0.924     0.034     2.533     2.489

 Mol. C6AA /au·bohr⁶  :      19235.972765
 Mol. C8AA /au·bohr⁸  :     417018.358853
 Mol. α(0) /au        :        212.031185


Wiberg/Mayer (AO) data.
largest (>0.10) Wiberg bond orders for each atom
          total WBO             WBO to atom ...
     1  C   3.989        C    2 1.370    C    6 1.367    C    7 1.065
     2  C   3.989        C    3 1.458    C    1 1.370    H    8 0.966    C    5 0.105
     3  C   3.991        C    2 1.458    C    4 1.430    H   28 0.969    C    6 0.105
     4  C   3.989        C    3 1.430    C    5 1.426    H   10 0.970
     5  C   3.991        C    6 1.460    C    4 1.426    H   29 0.969    C    2 0.105
     6  C   3.989        C    5 1.460    C    1 1.367    H    9 0.966    C    3 0.105
     7  C   3.909        O   19 1.808    C    1 1.065    H   26 0.934
     8  H   0.998        C    2 0.966
     9  H   0.998        C    6 0.966
    10  H   0.997        C    4 0.970
    11  N   3.021        C   12 1.019    H   27 0.966    H   13 0.940
    12  C   3.986        N   11 1.019    C   14 1.006    H   16 0.974    H   15 0.970
    13  H   0.971        N   11 0.940
    14  C   3.995        C   30 1.007    C   12 1.006    H   18 0.976    H   17 0.975
    15  H   1.000        C   12 0.970
    16  H   0.999        C   12 0.974
    17  H   0.998        C   14 0.975
    18  H   0.999        C   14 0.976
    19  O   2.034        C    7 1.808
    20  N   3.068        C   33 1.010    H   22 0.964    H   21 0.948
    21  H   0.972        N   20 0.948
    22  H   0.977        N   20 0.964
    23  O   1.818        H   25 0.919    H   24 0.833
    24  H   0.905        O   23 0.833
    25  H   0.921        O   23 0.919
    26  H   0.998        C    7 0.934
    27  H   0.980        N   11 0.966
    28  H   0.997        C    3 0.969
    29  H   0.997        C    5 0.969
    30  C   3.998        C   42 1.020    C   14 1.007    H   31 0.978    H   32 0.978
    31  H   0.999        C   30 0.978
    32  H   0.999        C   30 0.978
    33  C   3.981        N   20 1.010    C   36 1.006    H   35 0.977    H   34 0.971
    34  H   1.000        C   33 0.971
    35  H   0.998        C   33 0.977
    36  C   3.995        C   39 1.007    C   33 1.006    H   37 0.974    H   38 0.971
    37  H   0.998        C   36 0.974
    38  H   0.999        C   36 0.971
    39  C   3.997        C   46 1.020    C   36 1.007    H   41 0.978    H   40 0.976
    40  H   0.999        C   39 0.976
    41  H   0.999        C   39 0.978
    42  C   3.996        C   30 1.020    H   44 0.988    H   45 0.988    H   43 0.987
    43  H   0.998        C   42 0.987
    44  H   0.999        C   42 0.988
    45  H   0.999        C   42 0.988
    46  C   3.996        C   39 1.020    H   48 0.988    H   49 0.987    H   47 0.987
    47  H   0.998        C   46 0.987
    48  H   0.999        C   46 0.988
    49  H   0.999        C   46 0.987

molecular dipole:
                 x           y           z       tot (Debye)
 q only:       -2.106       0.217       0.507
   full:       -2.322       0.144       0.605       6.110
molecular quadrupole (traceless):
                xx          xy          yy          xz          yz          zz
 q only:       -5.814      10.278       9.445       3.156      -3.365      -3.631
  q+dip:      -11.517      11.800      13.961       4.870      -0.702      -2.445
   full:      -12.273      11.666      13.048       4.588      -2.452      -0.775


           -------------------------------------------------
          | TOTAL ENERGY              -61.364576249127 Eh   |
          | GRADIENT NORM               0.027920674837 Eh/α |
          | HOMO-LUMO GAP               2.040325387891 eV   |
           -------------------------------------------------

------------------------------------------------------------------------
 * finished run on 2020/08/26 at 06:34:14.837     
------------------------------------------------------------------------
 total:
 * wall-time:     0 d,  0 h,  0 min,  0.468 sec
 *  cpu-time:     0 d,  0 h,  0 min,  2.472 sec
 * ratio c/w:     5.283 speedup
 SCF:
 * wall-time:     0 d,  0 h,  0 min,  0.270 sec
 *  cpu-time:     0 d,  0 h,  0 min,  1.378 sec
 * ratio c/w:     5.105 speedup


-------------------------   --------------------
FINAL SINGLE POINT ENERGY       -61.364576249130
-------------------------   --------------------


----------------------------------------------------------------------------
                           ORCA NUMERICAL FREQUENCIES
                              (8-process run)
----------------------------------------------------------------------------

Number of atoms                ... 49
Central differences            ... used
Number of displacements        ... 294
Numerical increment            ... 5.000e-03 bohr
IR-spectrum generation         ... on
Raman-spectrum generation      ... off
Surface Crossing Hessian       ... off
List of participating nodes    ...  /tmp/slurm-scratch/freq.150/freq.hostnames

The output will be reduced. Please look at the following files:
SCF program output             ... >/tmp/slurm-scratch/freq.150/freq.lastscf
Integral program output        ... >/tmp/slurm-scratch/freq.150/freq.lastint
Gradient program output        ... >/tmp/slurm-scratch/freq.150/freq.lastgrad
Dipole moment program output   ... >/tmp/slurm-scratch/freq.150/freq.lastmom
AutoCI program output          ... >/tmp/slurm-scratch/freq.150/freq.lastautoci


         <<< Energy and Gradient at the input geometry >>>

        <<< Energy and Gradient at displaced geometries >>>
             <<<Displacing   2/coordinate 1 (+)>>>
             <<<Displacing   1/coordinate 3 (+)>>>
             <<<Displacing   3/coordinate 1 (+)>>>
             <<<Displacing   2/coordinate 3 (+)>>>
             <<<Displacing   2/coordinate 2 (+)>>>
             <<<Displacing   1/coordinate 1 (+)>>>
             <<<Displacing   3/coordinate 2 (+)>>>
             <<<Displacing   1/coordinate 2 (+)>>>
             <<<Displacing   1/coordinate 3 (-)>>>
             <<<Displacing   1/coordinate 2 (-)>>>
             <<<Displacing   1/coordinate 1 (-)>>>
             <<<Displacing   3/coordinate 2 (-)>>>
             <<<Displacing   2/coordinate 2 (-)>>>
             <<<Displacing   2/coordinate 3 (-)>>>
             <<<Displacing   3/coordinate 1 (-)>>>
             <<<Displacing   2/coordinate 1 (-)>>>
             <<<Displacing   4/coordinate 2 (+)>>>
             <<<Displacing   4/coordinate 1 (+)>>>
             <<<Displacing   6/coordinate 1 (+)>>>
             <<<Displacing   5/coordinate 1 (+)>>>
             <<<Displacing   4/coordinate 3 (+)>>>
             <<<Displacing   3/coordinate 3 (+)>>>
             <<<Displacing   4/coordinate 2 (-)>>>
             <<<Displacing   4/coordinate 1 (-)>>>
             <<<Displacing   6/coordinate 1 (-)>>>
             <<<Displacing   5/coordinate 1 (-)>>>
             <<<Displacing   5/coordinate 3 (+)>>>
             <<<Displacing   3/coordinate 3 (-)>>>
             <<<Displacing   4/coordinate 3 (-)>>>
             <<<Displacing   5/coordinate 3 (-)>>>
             <<<Displacing   5/coordinate 2 (+)>>>
             <<<Displacing   5/coordinate 2 (-)>>>
             <<<Displacing   6/coordinate 2 (+)>>>
             <<<Displacing   6/coordinate 3 (+)>>>
             <<<Displacing   7/coordinate 2 (+)>>>
             <<<Displacing   8/coordinate 2 (+)>>>
             <<<Displacing   8/coordinate 1 (+)>>>
             <<<Displacing   6/coordinate 2 (-)>>>
             <<<Displacing   6/coordinate 3 (-)>>>
             <<<Displacing   7/coordinate 2 (-)>>>
             <<<Displacing   8/coordinate 2 (-)>>>
             <<<Displacing   7/coordinate 1 (+)>>>
             <<<Displacing   8/coordinate 1 (-)>>>
             <<<Displacing   8/coordinate 3 (+)>>>
             <<<Displacing   7/coordinate 1 (-)>>>
             <<<Displacing   8/coordinate 3 (-)>>>
             <<<Displacing   7/coordinate 3 (+)>>>
             <<<Displacing   7/coordinate 3 (-)>>>
             <<<Displacing   9/coordinate 3 (+)>>>
             <<<Displacing   9/coordinate 3 (-)>>>
             <<<Displacing   9/coordinate 2 (+)>>>
             <<<Displacing  10/coordinate 3 (+)>>>
             <<<Displacing   9/coordinate 2 (-)>>>
             <<<Displacing  10/coordinate 1 (+)>>>
             <<<Displacing  10/coordinate 3 (-)>>>
             <<<Displacing   9/coordinate 1 (+)>>>
             <<<Displacing  10/coordinate 1 (-)>>>
             <<<Displacing  10/coordinate 2 (+)>>>
             <<<Displacing   9/coordinate 1 (-)>>>
             <<<Displacing  10/coordinate 2 (-)>>>
             <<<Displacing  11/coordinate 1 (+)>>>
             <<<Displacing  11/coordinate 1 (-)>>>
             <<<Displacing  11/coordinate 2 (+)>>>
             <<<Displacing  11/coordinate 2 (-)>>>
             <<<Displacing  12/coordinate 1 (+)>>>
             <<<Displacing  12/coordinate 1 (-)>>>
             <<<Displacing  12/coordinate 3 (+)>>>
             <<<Displacing  12/coordinate 3 (-)>>>
             <<<Displacing  13/coordinate 1 (+)>>>
             <<<Displacing  11/coordinate 3 (+)>>>
             <<<Displacing  13/coordinate 1 (-)>>>
             <<<Displacing  13/coordinate 2 (+)>>>
             <<<Displacing  11/coordinate 3 (-)>>>
             <<<Displacing  13/coordinate 2 (-)>>>
             <<<Displacing  12/coordinate 2 (+)>>>
             <<<Displacing  12/coordinate 2 (-)>>>
             <<<Displacing  13/coordinate 3 (+)>>>
             <<<Displacing  14/coordinate 1 (+)>>>
             <<<Displacing  13/coordinate 3 (-)>>>
             <<<Displacing  14/coordinate 1 (-)>>>
             <<<Displacing  14/coordinate 2 (+)>>>
             <<<Displacing  14/coordinate 2 (-)>>>
             <<<Displacing  14/coordinate 3 (+)>>>
             <<<Displacing  14/coordinate 3 (-)>>>
             <<<Displacing  15/coordinate 1 (+)>>>
             <<<Displacing  15/coordinate 1 (-)>>>
             <<<Displacing  15/coordinate 2 (+)>>>
             <<<Displacing  16/coordinate 1 (+)>>>
             <<<Displacing  15/coordinate 2 (-)>>>
             <<<Displacing  15/coordinate 3 (+)>>>
             <<<Displacing  16/coordinate 1 (-)>>>
             <<<Displacing  15/coordinate 3 (-)>>>
             <<<Displacing  16/coordinate 2 (+)>>>
             <<<Displacing  16/coordinate 3 (+)>>>
             <<<Displacing  16/coordinate 2 (-)>>>
             <<<Displacing  16/coordinate 3 (-)>>>
             <<<Displacing  17/coordinate 1 (+)>>>
             <<<Displacing  17/coordinate 2 (+)>>>
             <<<Displacing  17/coordinate 1 (-)>>>
             <<<Displacing  17/coordinate 2 (-)>>>
             <<<Displacing  17/coordinate 3 (+)>>>
             <<<Displacing  17/coordinate 3 (-)>>>
             <<<Displacing  18/coordinate 1 (+)>>>
             <<<Displacing  18/coordinate 2 (+)>>>
             <<<Displacing  18/coordinate 1 (-)>>>
             <<<Displacing  18/coordinate 3 (+)>>>
             <<<Displacing  18/coordinate 2 (-)>>>
             <<<Displacing  18/coordinate 3 (-)>>>
             <<<Displacing  19/coordinate 1 (+)>>>
             <<<Displacing  19/coordinate 1 (-)>>>
             <<<Displacing  19/coordinate 2 (+)>>>
             <<<Displacing  19/coordinate 2 (-)>>>
             <<<Displacing  19/coordinate 3 (+)>>>
             <<<Displacing  19/coordinate 3 (-)>>>
             <<<Displacing  20/coordinate 1 (+)>>>
             <<<Displacing  20/coordinate 1 (-)>>>
             <<<Displacing  20/coordinate 3 (+)>>>
             <<<Displacing  21/coordinate 1 (+)>>>
             <<<Displacing  20/coordinate 3 (-)>>>
             <<<Displacing  21/coordinate 1 (-)>>>
             <<<Displacing  20/coordinate 2 (+)>>>
             <<<Displacing  21/coordinate 2 (+)>>>
             <<<Displacing  20/coordinate 2 (-)>>>
             <<<Displacing  21/coordinate 2 (-)>>>
             <<<Displacing  21/coordinate 3 (+)>>>
             <<<Displacing  21/coordinate 3 (-)>>>
             <<<Displacing  22/coordinate 1 (+)>>>
             <<<Displacing  22/coordinate 1 (-)>>>
             <<<Displacing  22/coordinate 2 (+)>>>
             <<<Displacing  22/coordinate 2 (-)>>>
             <<<Displacing  22/coordinate 3 (+)>>>
             <<<Displacing  22/coordinate 3 (-)>>>
             <<<Displacing  23/coordinate 1 (+)>>>
             <<<Displacing  23/coordinate 1 (-)>>>
             <<<Displacing  23/coordinate 2 (+)>>>
             <<<Displacing  23/coordinate 2 (-)>>>
             <<<Displacing  23/coordinate 3 (+)>>>
             <<<Displacing  23/coordinate 3 (-)>>>
             <<<Displacing  24/coordinate 1 (+)>>>
             <<<Displacing  24/coordinate 1 (-)>>>
             <<<Displacing  24/coordinate 2 (+)>>>
             <<<Displacing  24/coordinate 2 (-)>>>
             <<<Displacing  24/coordinate 3 (+)>>>
             <<<Displacing  24/coordinate 3 (-)>>>
             <<<Displacing  25/coordinate 1 (+)>>>
             <<<Displacing  25/coordinate 1 (-)>>>
             <<<Displacing  25/coordinate 2 (+)>>>
             <<<Displacing  25/coordinate 2 (-)>>>
             <<<Displacing  26/coordinate 1 (+)>>>
             <<<Displacing  25/coordinate 3 (+)>>>
             <<<Displacing  26/coordinate 1 (-)>>>
             <<<Displacing  25/coordinate 3 (-)>>>
             <<<Displacing  26/coordinate 3 (+)>>>
             <<<Displacing  26/coordinate 2 (+)>>>
             <<<Displacing  26/coordinate 3 (-)>>>
             <<<Displacing  26/coordinate 2 (-)>>>
             <<<Displacing  27/coordinate 1 (+)>>>
             <<<Displacing  27/coordinate 1 (-)>>>
             <<<Displacing  27/coordinate 2 (+)>>>
             <<<Displacing  27/coordinate 2 (-)>>>
             <<<Displacing  27/coordinate 3 (+)>>>
             <<<Displacing  27/coordinate 3 (-)>>>
             <<<Displacing  28/coordinate 1 (+)>>>
             <<<Displacing  28/coordinate 1 (-)>>>
             <<<Displacing  28/coordinate 2 (+)>>>
             <<<Displacing  28/coordinate 2 (-)>>>
             <<<Displacing  29/coordinate 1 (+)>>>
             <<<Displacing  29/coordinate 2 (+)>>>
             <<<Displacing  29/coordinate 2 (-)>>>
             <<<Displacing  29/coordinate 1 (-)>>>
             <<<Displacing  28/coordinate 3 (+)>>>
             <<<Displacing  28/coordinate 3 (-)>>>
             <<<Displacing  29/coordinate 3 (+)>>>
             <<<Displacing  29/coordinate 3 (-)>>>
             <<<Displacing  30/coordinate 1 (+)>>>
             <<<Displacing  30/coordinate 1 (-)>>>
             <<<Displacing  30/coordinate 2 (+)>>>
             <<<Displacing  30/coordinate 2 (-)>>>
             <<<Displacing  30/coordinate 3 (+)>>>
             <<<Displacing  30/coordinate 3 (-)>>>
             <<<Displacing  31/coordinate 1 (+)>>>
             <<<Displacing  31/coordinate 1 (-)>>>
             <<<Displacing  31/coordinate 3 (+)>>>
             <<<Displacing  31/coordinate 2 (+)>>>
             <<<Displacing  31/coordinate 3 (-)>>>
             <<<Displacing  31/coordinate 2 (-)>>>
             <<<Displacing  32/coordinate 1 (+)>>>
             <<<Displacing  32/coordinate 1 (-)>>>
             <<<Displacing  32/coordinate 2 (+)>>>
             <<<Displacing  32/coordinate 2 (-)>>>
             <<<Displacing  32/coordinate 3 (+)>>>
             <<<Displacing  32/coordinate 3 (-)>>>
             <<<Displacing  33/coordinate 1 (+)>>>
             <<<Displacing  33/coordinate 1 (-)>>>
             <<<Displacing  33/coordinate 2 (+)>>>
             <<<Displacing  33/coordinate 2 (-)>>>
             <<<Displacing  33/coordinate 3 (+)>>>
             <<<Displacing  33/coordinate 3 (-)>>>
             <<<Displacing  34/coordinate 1 (+)>>>
             <<<Displacing  34/coordinate 1 (-)>>>
             <<<Displacing  34/coordinate 2 (+)>>>
             <<<Displacing  34/coordinate 2 (-)>>>
             <<<Displacing  34/coordinate 3 (+)>>>
             <<<Displacing  34/coordinate 3 (-)>>>
             <<<Displacing  35/coordinate 1 (+)>>>
             <<<Displacing  35/coordinate 1 (-)>>>
             <<<Displacing  35/coordinate 2 (+)>>>
             <<<Displacing  35/coordinate 2 (-)>>>
             <<<Displacing  35/coordinate 3 (+)>>>
             <<<Displacing  35/coordinate 3 (-)>>>
             <<<Displacing  36/coordinate 1 (+)>>>
             <<<Displacing  36/coordinate 1 (-)>>>
             <<<Displacing  36/coordinate 2 (+)>>>
             <<<Displacing  36/coordinate 2 (-)>>>
             <<<Displacing  36/coordinate 3 (+)>>>
             <<<Displacing  36/coordinate 3 (-)>>>
             <<<Displacing  37/coordinate 1 (+)>>>
             <<<Displacing  37/coordinate 1 (-)>>>
             <<<Displacing  37/coordinate 2 (+)>>>
             <<<Displacing  37/coordinate 2 (-)>>>
             <<<Displacing  38/coordinate 1 (+)>>>
             <<<Displacing  37/coordinate 3 (+)>>>
             <<<Displacing  37/coordinate 3 (-)>>>
             <<<Displacing  38/coordinate 1 (-)>>>
             <<<Displacing  38/coordinate 2 (+)>>>
             <<<Displacing  38/coordinate 2 (-)>>>
             <<<Displacing  38/coordinate 3 (+)>>>
             <<<Displacing  38/coordinate 3 (-)>>>
             <<<Displacing  39/coordinate 1 (+)>>>
             <<<Displacing  39/coordinate 1 (-)>>>
             <<<Displacing  39/coordinate 2 (+)>>>
             <<<Displacing  39/coordinate 2 (-)>>>
             <<<Displacing  39/coordinate 3 (+)>>>
             <<<Displacing  39/coordinate 3 (-)>>>
             <<<Displacing  40/coordinate 1 (+)>>>
             <<<Displacing  40/coordinate 2 (+)>>>
             <<<Displacing  40/coordinate 1 (-)>>>
             <<<Displacing  40/coordinate 2 (-)>>>
             <<<Displacing  40/coordinate 3 (+)>>>
             <<<Displacing  40/coordinate 3 (-)>>>
             <<<Displacing  41/coordinate 1 (+)>>>
             <<<Displacing  41/coordinate 1 (-)>>>
             <<<Displacing  41/coordinate 2 (+)>>>
             <<<Displacing  41/coordinate 3 (+)>>>
             <<<Displacing  42/coordinate 1 (+)>>>
             <<<Displacing  41/coordinate 2 (-)>>>
             <<<Displacing  41/coordinate 3 (-)>>>
             <<<Displacing  42/coordinate 1 (-)>>>
             <<<Displacing  42/coordinate 2 (+)>>>
             <<<Displacing  42/coordinate 3 (+)>>>
             <<<Displacing  42/coordinate 2 (-)>>>
             <<<Displacing  42/coordinate 3 (-)>>>
             <<<Displacing  43/coordinate 1 (+)>>>
             <<<Displacing  43/coordinate 2 (+)>>>
             <<<Displacing  43/coordinate 1 (-)>>>
             <<<Displacing  43/coordinate 2 (-)>>>
             <<<Displacing  43/coordinate 3 (+)>>>
             <<<Displacing  43/coordinate 3 (-)>>>
             <<<Displacing  44/coordinate 1 (+)>>>
             <<<Displacing  44/coordinate 1 (-)>>>
             <<<Displacing  44/coordinate 2 (+)>>>
             <<<Displacing  44/coordinate 2 (-)>>>
             <<<Displacing  44/coordinate 3 (+)>>>
             <<<Displacing  44/coordinate 3 (-)>>>
             <<<Displacing  45/coordinate 2 (+)>>>
             <<<Displacing  45/coordinate 2 (-)>>>
             <<<Displacing  46/coordinate 1 (+)>>>
             <<<Displacing  45/coordinate 3 (+)>>>
             <<<Displacing  45/coordinate 1 (+)>>>
             <<<Displacing  46/coordinate 1 (-)>>>
             <<<Displacing  45/coordinate 3 (-)>>>
             <<<Displacing  45/coordinate 1 (-)>>>
             <<<Displacing  46/coordinate 2 (+)>>>
             <<<Displacing  46/coordinate 2 (-)>>>
             <<<Displacing  46/coordinate 3 (+)>>>
             <<<Displacing  46/coordinate 3 (-)>>>
             <<<Displacing  47/coordinate 2 (+)>>>
             <<<Displacing  47/coordinate 2 (-)>>>
             <<<Displacing  47/coordinate 1 (+)>>>
             <<<Displacing  47/coordinate 1 (-)>>>
             <<<Displacing  47/coordinate 3 (+)>>>
             <<<Displacing  47/coordinate 3 (-)>>>
             <<<Displacing  48/coordinate 1 (+)>>>
             <<<Displacing  48/coordinate 2 (+)>>>
             <<<Displacing  48/coordinate 1 (-)>>>
             <<<Displacing  48/coordinate 2 (-)>>>
             <<<Displacing  48/coordinate 3 (+)>>>
             <<<Displacing  48/coordinate 3 (-)>>>
             <<<Displacing  49/coordinate 2 (+)>>>
             <<<Displacing  49/coordinate 2 (-)>>>
             <<<Displacing  49/coordinate 1 (+)>>>
             <<<Displacing  49/coordinate 1 (-)>>>
             <<<Displacing  49/coordinate 3 (+)>>>
             <<<Displacing  49/coordinate 3 (-)>>>

-----------------------
VIBRATIONAL FREQUENCIES
-----------------------

Scaling factor for frequencies =  1.000000000 (already applied!)

   0:         0.00 cm**-1
   1:         0.00 cm**-1
   2:         0.00 cm**-1
   3:         0.00 cm**-1
   4:         0.00 cm**-1
   5:         0.00 cm**-1
   6:       -48.81 cm**-1 ***imaginary mode***
   7:        26.00 cm**-1
   8:        34.19 cm**-1
   9:        37.69 cm**-1
  10:        38.59 cm**-1
  11:        43.10 cm**-1
  12:        49.52 cm**-1
  13:        55.47 cm**-1
  14:        62.31 cm**-1
  15:        71.46 cm**-1
  16:        77.27 cm**-1
  17:        83.04 cm**-1
  18:        95.46 cm**-1
  19:       106.21 cm**-1
  20:       120.81 cm**-1
  21:       124.19 cm**-1
  22:       138.08 cm**-1
  23:       152.89 cm**-1
  24:       160.49 cm**-1
  25:       192.90 cm**-1
  26:       201.85 cm**-1
  27:       215.40 cm**-1
  28:       232.22 cm**-1
  29:       237.61 cm**-1
  30:       262.22 cm**-1
  31:       274.20 cm**-1
  32:       278.34 cm**-1
  33:       340.81 cm**-1
  34:       357.97 cm**-1
  35:       382.02 cm**-1
  36:       394.99 cm**-1
  37:       396.52 cm**-1
  38:       416.84 cm**-1
  39:       418.80 cm**-1
  40:       430.01 cm**-1
  41:       447.66 cm**-1
  42:       478.02 cm**-1
  43:       586.85 cm**-1
  44:       626.00 cm**-1
  45:       661.16 cm**-1
  46:       734.67 cm**-1
  47:       749.60 cm**-1
  48:       766.31 cm**-1
  49:       772.31 cm**-1
  50:       821.38 cm**-1
  51:       824.64 cm**-1
  52:       831.62 cm**-1
  53:       883.89 cm**-1
  54:       898.22 cm**-1
  55:       923.44 cm**-1
  56:       923.86 cm**-1
  57:       929.23 cm**-1
  58:       935.10 cm**-1
  59:       938.10 cm**-1
  60:       939.05 cm**-1
  61:       944.56 cm**-1
  62:       974.35 cm**-1
  63:       984.53 cm**-1
  64:      1000.72 cm**-1
  65:      1003.32 cm**-1
  66:      1006.13 cm**-1
  67:      1059.19 cm**-1
  68:      1065.77 cm**-1
  69:      1070.42 cm**-1
  70:      1096.02 cm**-1
  71:      1101.17 cm**-1
  72:      1111.53 cm**-1
  73:      1122.11 cm**-1
  74:      1123.87 cm**-1
  75:      1145.04 cm**-1
  76:      1151.56 cm**-1
  77:      1174.31 cm**-1
  78:      1179.04 cm**-1
  79:      1197.74 cm**-1
  80:      1201.61 cm**-1
  81:      1207.97 cm**-1
  82:      1229.33 cm**-1
  83:      1239.73 cm**-1
  84:      1269.58 cm**-1
  85:      1276.03 cm**-1
  86:      1277.12 cm**-1
  87:      1277.76 cm**-1
  88:      1278.73 cm**-1
  89:      1290.10 cm**-1
  90:      1292.55 cm**-1
  91:      1302.40 cm**-1
  92:      1349.68 cm**-1
  93:      1352.37 cm**-1
  94:      1356.13 cm**-1
  95:      1377.54 cm**-1
  96:      1380.92 cm**-1
  97:      1426.70 cm**-1
  98:      1427.33 cm**-1
  99:      1428.49 cm**-1
 100:      1449.46 cm**-1
 101:      1490.82 cm**-1
 102:      1501.59 cm**-1
 103:      1502.32 cm**-1
 104:      1505.42 cm**-1
 105:      1506.54 cm**-1
 106:      1507.11 cm**-1
 107:      1507.92 cm**-1
 108:      1508.72 cm**-1
 109:      1512.59 cm**-1
 110:      1512.77 cm**-1
 111:      1546.28 cm**-1
 112:      1550.91 cm**-1
 113:      1559.34 cm**-1
 114:      1563.22 cm**-1
 115:      1570.09 cm**-1
 116:      1662.75 cm**-1
 117:      2844.34 cm**-1
 118:      2846.80 cm**-1
 119:      2891.98 cm**-1
 120:      2935.56 cm**-1
 121:      2936.47 cm**-1
 122:      2938.40 cm**-1
 123:      2940.91 cm**-1
 124:      2953.41 cm**-1
 125:      2962.03 cm**-1
 126:      2962.99 cm**-1
 127:      2969.11 cm**-1
 128:      2973.90 cm**-1
 129:      2975.07 cm**-1
 130:      2979.55 cm**-1
 131:      2980.58 cm**-1
 132:      2984.19 cm**-1
 133:      2985.94 cm**-1
 134:      2996.18 cm**-1
 135:      2998.66 cm**-1
 136:      2999.51 cm**-1
 137:      3054.64 cm**-1
 138:      3059.97 cm**-1
 139:      3065.60 cm**-1
 140:      3072.47 cm**-1
 141:      3078.20 cm**-1
 142:      3349.18 cm**-1
 143:      3374.31 cm**-1
 144:      3413.17 cm**-1
 145:      3422.67 cm**-1
 146:      3591.06 cm**-1


------------
NORMAL MODES
------------

These modes are the cartesian displacements weighted by the diagonal matrix
M(i,i)=1/sqrt(m[i]) where m[i] is the mass of the displaced atom
Thus, these vectors are normalized but *not* orthogonal

                  0          1          2          3          4          5    
      0       0.000000   0.000000   0.000000   0.000000   0.000000   0.000000
      1       0.000000   0.000000   0.000000   0.000000   0.000000   0.000000
      2       0.000000   0.000000   0.000000   0.000000   0.000000   0.000000
      3       0.000000   0.000000   0.000000   0.000000   0.000000   0.000000
      4       0.000000   0.000000   0.000000   0.000000   0.000000   0.000000
      5       0.000000   0.000000   0.000000   0.000000   0.000000   0.000000
      6       0.000000   0.000000   0.000000   0.000000   0.000000   0.000000
      7       0.000000   0.000000   0.000000   0.000000   0.000000   0.000000
      8       0.000000   0.000000   0.000000   0.000000   0.000000   0.000000
      9       0.000000   0.000000   0.000000   0.000000   0.000000   0.000000
     10       0.000000   0.000000   0.000000   0.000000   0.000000   0.000000
     11       0.000000   0.000000   0.000000   0.000000   0.000000   0.000000
     12       0.000000   0.000000   0.000000   0.000000   0.000000   0.000000
     13       0.000000   0.000000   0.000000   0.000000   0.000000   0.000000
     14       0.000000   0.000000   0.000000   0.000000   0.000000   0.000000
     15       0.000000   0.000000   0.000000   0.000000   0.000000   0.000000
     16       0.000000   0.000000   0.000000   0.000000   0.000000   0.000000
     17       0.000000   0.000000   0.000000   0.000000   0.000000   0.000000
     18       0.000000   0.000000   0.000000   0.000000   0.000000   0.000000
     19       0.000000   0.000000   0.000000   0.000000   0.000000   0.000000
     20       0.000000   0.000000   0.000000   0.000000   0.000000   0.000000
     21       0.000000   0.000000   0.000000   0.000000   0.000000   0.000000
     22       0.000000   0.000000   0.000000   0.000000   0.000000   0.000000
     23       0.000000   0.000000   0.000000   0.000000   0.000000   0.000000
     24       0.000000   0.000000   0.000000   0.000000   0.000000   0.000000
     25       0.000000   0.000000   0.000000   0.000000   0.000000   0.000000
     26       0.000000   0.000000   0.000000   0.000000   0.000000   0.000000
     27       0.000000   0.000000   0.000000   0.000000   0.000000   0.000000
     28       0.000000   0.000000   0.000000   0.000000   0.000000   0.000000
     29       0.000000   0.000000   0.000000   0.000000   0.000000   0.000000
     30       0.000000   0.000000   0.000000   0.000000   0.000000   0.000000
     31       0.000000   0.000000   0.000000   0.000000   0.000000   0.000000
     32       0.000000   0.000000   0.000000   0.000000   0.000000   0.000000
     33       0.000000   0.000000   0.000000   0.000000   0.000000   0.000000
     34       0.000000   0.000000   0.000000   0.000000   0.000000   0.000000
     35       0.000000   0.000000   0.000000   0.000000   0.000000   0.000000
     36       0.000000   0.000000   0.000000   0.000000   0.000000   0.000000
     37       0.000000   0.000000   0.000000   0.000000   0.000000   0.000000
     38       0.000000   0.000000   0.000000   0.000000   0.000000   0.000000
     39       0.000000   0.000000   0.000000   0.000000   0.000000   0.000000
     40       0.000000   0.000000   0.000000   0.000000   0.000000   0.000000
     41       0.000000   0.000000   0.000000   0.000000   0.000000   0.000000
     42       0.000000   0.000000   0.000000   0.000000   0.000000   0.000000
     43       0.000000   0.000000   0.000000   0.000000   0.000000   0.000000
     44       0.000000   0.000000   0.000000   0.000000   0.000000   0.000000
     45       0.000000   0.000000   0.000000   0.000000   0.000000   0.000000
     46       0.000000   0.000000   0.000000   0.000000   0.000000   0.000000
     47       0.000000   0.000000   0.000000   0.000000   0.000000   0.000000
     48       0.000000   0.000000   0.000000   0.000000   0.000000   0.000000
     49       0.000000   0.000000   0.000000   0.000000   0.000000   0.000000
     50       0.000000   0.000000   0.000000   0.000000   0.000000   0.000000
     51       0.000000   0.000000   0.000000   0.000000   0.000000   0.000000
     52       0.000000   0.000000   0.000000   0.000000   0.000000   0.000000
     53       0.000000   0.000000   0.000000   0.000000   0.000000   0.000000
     54       0.000000   0.000000   0.000000   0.000000   0.000000   0.000000
     55       0.000000   0.000000   0.000000   0.000000   0.000000   0.000000
     56       0.000000   0.000000   0.000000   0.000000   0.000000   0.000000
     57       0.000000   0.000000   0.000000   0.000000   0.000000   0.000000
     58       0.000000   0.000000   0.000000   0.000000   0.000000   0.000000
     59       0.000000   0.000000   0.000000   0.000000   0.000000   0.000000
     60       0.000000   0.000000   0.000000   0.000000   0.000000   0.000000
     61       0.000000   0.000000   0.000000   0.000000   0.000000   0.000000
     62       0.000000   0.000000   0.000000   0.000000   0.000000   0.000000
     63       0.000000   0.000000   0.000000   0.000000   0.000000   0.000000
     64       0.000000   0.000000   0.000000   0.000000   0.000000   0.000000
     65       0.000000   0.000000   0.000000   0.000000   0.000000   0.000000
     66       0.000000   0.000000   0.000000   0.000000   0.000000   0.000000
     67       0.000000   0.000000   0.000000   0.000000   0.000000   0.000000
     68       0.000000   0.000000   0.000000   0.000000   0.000000   0.000000
     69       0.000000   0.000000   0.000000   0.000000   0.000000   0.000000
     70       0.000000   0.000000   0.000000   0.000000   0.000000   0.000000
     71       0.000000   0.000000   0.000000   0.000000   0.000000   0.000000
     72       0.000000   0.000000   0.000000   0.000000   0.000000   0.000000
     73       0.000000   0.000000   0.000000   0.000000   0.000000   0.000000
     74       0.000000   0.000000   0.000000   0.000000   0.000000   0.000000
     75       0.000000   0.000000   0.000000   0.000000   0.000000   0.000000
     76       0.000000   0.000000   0.000000   0.000000   0.000000   0.000000
     77       0.000000   0.000000   0.000000   0.000000   0.000000   0.000000
     78       0.000000   0.000000   0.000000   0.000000   0.000000   0.000000
     79       0.000000   0.000000   0.000000   0.000000   0.000000   0.000000
     80       0.000000   0.000000   0.000000   0.000000   0.000000   0.000000
     81       0.000000   0.000000   0.000000   0.000000   0.000000   0.000000
     82       0.000000   0.000000   0.000000   0.000000   0.000000   0.000000
     83       0.000000   0.000000   0.000000   0.000000   0.000000   0.000000
     84       0.000000   0.000000   0.000000   0.000000   0.000000   0.000000
     85       0.000000   0.000000   0.000000   0.000000   0.000000   0.000000
     86       0.000000   0.000000   0.000000   0.000000   0.000000   0.000000
     87       0.000000   0.000000   0.000000   0.000000   0.000000   0.000000
     88       0.000000   0.000000   0.000000   0.000000   0.000000   0.000000
     89       0.000000   0.000000   0.000000   0.000000   0.000000   0.000000
     90       0.000000   0.000000   0.000000   0.000000   0.000000   0.000000
     91       0.000000   0.000000   0.000000   0.000000   0.000000   0.000000
     92       0.000000   0.000000   0.000000   0.000000   0.000000   0.000000
     93       0.000000   0.000000   0.000000   0.000000   0.000000   0.000000
     94       0.000000   0.000000   0.000000   0.000000   0.000000   0.000000
     95       0.000000   0.000000   0.000000   0.000000   0.000000   0.000000
     96       0.000000   0.000000   0.000000   0.000000   0.000000   0.000000
     97       0.000000   0.000000   0.000000   0.000000   0.000000   0.000000
     98       0.000000   0.000000   0.000000   0.000000   0.000000   0.000000
     99       0.000000   0.000000   0.000000   0.000000   0.000000   0.000000
    100       0.000000   0.000000   0.000000   0.000000   0.000000   0.000000
    101       0.000000   0.000000   0.000000   0.000000   0.000000   0.000000
    102       0.000000   0.000000   0.000000   0.000000   0.000000   0.000000
    103       0.000000   0.000000   0.000000   0.000000   0.000000   0.000000
    104       0.000000   0.000000   0.000000   0.000000   0.000000   0.000000
    105       0.000000   0.000000   0.000000   0.000000   0.000000   0.000000
    106       0.000000   0.000000   0.000000   0.000000   0.000000   0.000000
    107       0.000000   0.000000   0.000000   0.000000   0.000000   0.000000
    108       0.000000   0.000000   0.000000   0.000000   0.000000   0.000000
    109       0.000000   0.000000   0.000000   0.000000   0.000000   0.000000
    110       0.000000   0.000000   0.000000   0.000000   0.000000   0.000000
    111       0.000000   0.000000   0.000000   0.000000   0.000000   0.000000
    112       0.000000   0.000000   0.000000   0.000000   0.000000   0.000000
    113       0.000000   0.000000   0.000000   0.000000   0.000000   0.000000
    114       0.000000   0.000000   0.000000   0.000000   0.000000   0.000000
    115       0.000000   0.000000   0.000000   0.000000   0.000000   0.000000
    116       0.000000   0.000000   0.000000   0.000000   0.000000   0.000000
    117       0.000000   0.000000   0.000000   0.000000   0.000000   0.000000
    118       0.000000   0.000000   0.000000   0.000000   0.000000   0.000000
    119       0.000000   0.000000   0.000000   0.000000   0.000000   0.000000
    120       0.000000   0.000000   0.000000   0.000000   0.000000   0.000000
    121       0.000000   0.000000   0.000000   0.000000   0.000000   0.000000
    122       0.000000   0.000000   0.000000   0.000000   0.000000   0.000000
    123       0.000000   0.000000   0.000000   0.000000   0.000000   0.000000
    124       0.000000   0.000000   0.000000   0.000000   0.000000   0.000000
    125       0.000000   0.000000   0.000000   0.000000   0.000000   0.000000
    126       0.000000   0.000000   0.000000   0.000000   0.000000   0.000000
    127       0.000000   0.000000   0.000000   0.000000   0.000000   0.000000
    128       0.000000   0.000000   0.000000   0.000000   0.000000   0.000000
    129       0.000000   0.000000   0.000000   0.000000   0.000000   0.000000
    130       0.000000   0.000000   0.000000   0.000000   0.000000   0.000000
    131       0.000000   0.000000   0.000000   0.000000   0.000000   0.000000
    132       0.000000   0.000000   0.000000   0.000000   0.000000   0.000000
    133       0.000000   0.000000   0.000000   0.000000   0.000000   0.000000
    134       0.000000   0.000000   0.000000   0.000000   0.000000   0.000000
    135       0.000000   0.000000   0.000000   0.000000   0.000000   0.000000
    136       0.000000   0.000000   0.000000   0.000000   0.000000   0.000000
    137       0.000000   0.000000   0.000000   0.000000   0.000000   0.000000
    138       0.000000   0.000000   0.000000   0.000000   0.000000   0.000000
    139       0.000000   0.000000   0.000000   0.000000   0.000000   0.000000
    140       0.000000   0.000000   0.000000   0.000000   0.000000   0.000000
    141       0.000000   0.000000   0.000000   0.000000   0.000000   0.000000
    142       0.000000   0.000000   0.000000   0.000000   0.000000   0.000000
    143       0.000000   0.000000   0.000000   0.000000   0.000000   0.000000
    144       0.000000   0.000000   0.000000   0.000000   0.000000   0.000000
    145       0.000000   0.000000   0.000000   0.000000   0.000000   0.000000
    146       0.000000   0.000000   0.000000   0.000000   0.000000   0.000000
                  6          7          8          9         10         11    
      0      -0.046914   0.077160  -0.073290   0.017848  -0.051105   0.034410
      1      -0.032427  -0.039746  -0.038040  -0.003064  -0.041165  -0.002107
      2      -0.111247   0.005684   0.009520  -0.084347   0.034600   0.029076
      3      -0.014023   0.064165  -0.121184   0.070684  -0.018177   0.024229
      4      -0.045812  -0.076924  -0.072628   0.031649   0.000938  -0.000960
      5      -0.060177   0.053096   0.023179  -0.094139  -0.003883   0.018251
      6      -0.004612   0.066772  -0.126215   0.081688  -0.024418   0.018932
      7      -0.043429  -0.111985  -0.123022   0.071478   0.068662   0.003109
      8      -0.014143   0.066594  -0.000360  -0.039365  -0.035785  -0.009443
      9      -0.023664   0.082478  -0.084107   0.040031  -0.063823   0.023926
     10      -0.032331  -0.110700  -0.139544   0.076252   0.096326   0.007010
     11      -0.006402   0.033742  -0.037979   0.027436  -0.031224  -0.028770
     12      -0.053681   0.095117  -0.037078  -0.012564  -0.096657   0.033923
     13      -0.025328  -0.072930  -0.104287   0.039936   0.056075   0.008115
     14      -0.042898  -0.013949  -0.054064   0.040770   0.004085  -0.022259
     15      -0.065345   0.092583  -0.032006  -0.023757  -0.090984   0.039375
     16      -0.024687  -0.037107  -0.053251   0.000494  -0.012107   0.003645
     17      -0.098278  -0.029554  -0.031791  -0.014283   0.037441   0.006145
     18      -0.059364   0.075281  -0.067015   0.007519  -0.045437   0.040084
     19      -0.034460  -0.001864   0.016119  -0.049741  -0.114435  -0.007075
     20      -0.148856  -0.008647   0.032291  -0.137137   0.062857   0.063313
     21       0.003530   0.053096  -0.152732   0.101855   0.011461   0.020574
     22      -0.058322  -0.078215  -0.059756   0.027442  -0.020724  -0.004330
     23      -0.063890   0.077604   0.052236  -0.144425  -0.006704   0.033792
     24      -0.087161   0.101035   0.003124  -0.064229  -0.115626   0.047199
     25      -0.017221  -0.004976  -0.024756  -0.028813  -0.045834   0.004289
     26      -0.128605  -0.072373  -0.046101  -0.003618   0.068762   0.011870
     27      -0.016188   0.084479  -0.087642   0.048716  -0.068424   0.019829
     28      -0.031300  -0.138409  -0.179479   0.107628   0.149085   0.009519
     29       0.030579   0.044083  -0.054932   0.069874  -0.054977  -0.049097
     30       0.058457   0.066048   0.010601  -0.055318   0.121584  -0.102851
     31       0.036022  -0.019229   0.034300  -0.004305  -0.032689  -0.099780
     32       0.354391  -0.023212  -0.086126  -0.073122  -0.017682   0.045666
     33       0.081456   0.036445   0.036452  -0.087459   0.085248  -0.118882
     34       0.038162  -0.001343   0.005635   0.014750  -0.011305  -0.087588
     35       0.221755   0.013482  -0.033013  -0.037942   0.033299   0.046366
     36       0.090376   0.084343  -0.005755  -0.056508   0.149233  -0.076399
     37       0.043244  -0.023063   0.013241   0.007562  -0.038783  -0.097706
     38       0.330049  -0.056151  -0.119392  -0.042169  -0.068910   0.015360
     39       0.009336   0.035945   0.044875  -0.038528   0.079560  -0.122748
     40       0.020133   0.073121  -0.008505   0.019031   0.092751  -0.063967
     41       0.089799  -0.015451  -0.010840   0.054836  -0.017122   0.031632
     42       0.201974   0.044047   0.018950  -0.162093   0.104725  -0.112371
     43       0.076757  -0.041720  -0.037889   0.043025  -0.077287  -0.092819
     44       0.193232   0.020639  -0.020833  -0.030190   0.043756   0.046046
     45       0.033249   0.003336   0.070414  -0.073139   0.038881  -0.137463
     46       0.024464   0.002874   0.033432  -0.003103  -0.000538  -0.091756
     47       0.245346   0.058361  -0.012467  -0.090610   0.106679   0.058074
     48      -0.089574   0.029970   0.067071   0.031795   0.067891  -0.132171
     49       0.020679   0.092838   0.091001   0.022277   0.168998  -0.107663
     50       0.107906  -0.019078  -0.039210   0.041060  -0.033563   0.044241
     51       0.042927   0.080850  -0.020190  -0.069435   0.120962  -0.082761
     52       0.016052   0.080872  -0.072715   0.017261   0.074114  -0.032023
     53       0.047607  -0.046763  -0.068002   0.083365  -0.096010   0.052118
     54      -0.073516   0.090860  -0.030229  -0.039692  -0.082442   0.052772
     55      -0.001514   0.020068   0.038705  -0.070518  -0.156143  -0.013741
     56      -0.221014  -0.030432   0.033359  -0.155032   0.094572   0.090455
     57       0.008267  -0.164531  -0.010201  -0.048930   0.003909   0.025536
     58       0.010361  -0.017017   0.047956  -0.033548  -0.142473  -0.046261
     59      -0.011185  -0.044845  -0.046556  -0.043183  -0.000723  -0.041559
     60       0.019783  -0.116980  -0.002733  -0.089614   0.011275   0.056034
     61       0.002805   0.005476   0.049741  -0.053476  -0.168557  -0.040659
     62      -0.020393  -0.011597  -0.044558  -0.071399  -0.041597  -0.034798
     63      -0.003856  -0.213349  -0.042518  -0.068301  -0.008305  -0.027022
     64      -0.002002  -0.016469   0.039931  -0.048980  -0.176440  -0.062612
     65      -0.004176  -0.077359  -0.057764  -0.036776   0.033266  -0.055780
     66       0.038098  -0.078420   0.052215   0.030794   0.027244   0.085456
     67      -0.058623  -0.084567   0.050788   0.000841  -0.079473  -0.082866
     68       0.025819  -0.081090  -0.108061  -0.113356  -0.048356  -0.077950
     69       0.024087  -0.107026   0.034947   0.011331   0.015983   0.070238
     70      -0.004496  -0.071810   0.040384   0.003570  -0.094269  -0.070943
     71       0.013783  -0.065222  -0.091364  -0.099898  -0.033988  -0.072323
     72       0.030465  -0.081558   0.078948   0.074263   0.018562   0.124899
     73      -0.091765  -0.061762   0.051543  -0.028694  -0.043652  -0.122740
     74       0.003677  -0.069248  -0.096533  -0.112190  -0.031374  -0.084479
     75      -0.027943   0.055212  -0.104225   0.048878  -0.005703   0.031195
     76      -0.084101   0.006575   0.035089  -0.068703  -0.132955   0.000679
     77      -0.010073   0.001106   0.034919  -0.150145   0.046367   0.051561
     78       0.124937   0.064780   0.013526  -0.088594   0.123158  -0.090643
     79       0.053736  -0.059195   0.030337  -0.014743  -0.089211  -0.125882
     80       0.458021  -0.015031  -0.080253  -0.124956  -0.001160   0.071802
     81       0.017758   0.056791  -0.162153   0.122164   0.000971   0.010816
     82      -0.052087  -0.139675  -0.148766   0.098129   0.099599   0.002993
     83       0.017375   0.101310   0.010064  -0.047435  -0.062841  -0.015874
     84      -0.069273   0.105939  -0.005329  -0.043311  -0.125678   0.037122
     85      -0.018469  -0.070326  -0.116310   0.041701   0.076946   0.012246
     86      -0.030408  -0.041493  -0.084868   0.095397   0.007058  -0.039008
     87       0.028585  -0.011897   0.108473  -0.043515   0.039638  -0.165175
     88       0.010614   0.110627  -0.068410   0.018287   0.120330  -0.026841
     89       0.004476   0.000351   0.126271   0.122356   0.058992  -0.029209
     90       0.011825  -0.050979   0.176364  -0.018798   0.009634  -0.207387
     91       0.004565   0.101035  -0.004207   0.024820   0.135217  -0.058982
     92       0.010280   0.022612   0.177524   0.109207   0.118123  -0.046453
     93       0.088045  -0.011308   0.078773  -0.098319   0.035268  -0.148732
     94       0.034158   0.096172  -0.163832   0.004004   0.056588   0.013750
     95      -0.010759   0.003774   0.154504   0.134761   0.075285  -0.041875
     96       0.000539  -0.182701  -0.009185  -0.019181   0.001566   0.015817
     97       0.037911   0.047159   0.079475  -0.041872  -0.104865   0.022866
     98      -0.011673  -0.047843  -0.015023   0.046746   0.023673  -0.013103
     99      -0.003331  -0.204054  -0.032991  -0.063934   0.001785  -0.004211
    100       0.069219   0.167924   0.106618  -0.110489  -0.160018   0.052203
    101      -0.011023  -0.040115   0.002104   0.087727   0.027505   0.000437
    102      -0.022746  -0.246093  -0.023706   0.031816  -0.006133  -0.025069
    103       0.029712   0.007061   0.073990  -0.013992  -0.073558   0.023415
    104      -0.027753  -0.129532  -0.025664   0.102769   0.092247  -0.008120
    105       0.027208  -0.097074   0.039810   0.009220   0.011073   0.085672
    106       0.035224   0.005162   0.084677   0.000998  -0.030558   0.059703
    107       0.005991   0.042326   0.007096   0.019065  -0.045551  -0.011509
    108       0.024204  -0.083810   0.055767   0.082978  -0.004823   0.094875
    109      -0.000428  -0.105681   0.057718   0.097393   0.004377   0.027822
    110       0.007844   0.033035  -0.004011  -0.032879  -0.034305  -0.017936
    111       0.059605  -0.039726   0.059084  -0.079887   0.047495   0.140411
    112       0.043854   0.034207   0.086471  -0.026028  -0.057483   0.052121
    113       0.030095   0.118294   0.014958  -0.057496  -0.101926  -0.019088
    114       0.018514  -0.110591   0.038124   0.056244  -0.004053   0.072445
    115       0.062015   0.066704   0.122607  -0.048282   0.033369   0.150521
    116      -0.005801   0.038518   0.029163   0.159843  -0.054992   0.005418
    117       0.022116  -0.117140   0.026478  -0.019328   0.010790   0.067244
    118       0.093022   0.148961   0.130953  -0.133368   0.004562   0.154415
    119      -0.009027   0.040901   0.036769   0.212645  -0.064311   0.008804
    120      -0.005149  -0.161665   0.020786   0.143499  -0.040481   0.021969
    121       0.054506   0.046256   0.127379  -0.025068   0.058312   0.168395
    122      -0.025837  -0.014952   0.036969   0.224719  -0.005049   0.037377
    123      -0.008980  -0.007956   0.122111  -0.008745   0.046898  -0.173095
    124      -0.017898   0.176349  -0.086449   0.026595   0.208237  -0.003516
    125      -0.057748  -0.018090   0.160126   0.187231   0.037896  -0.053213
    126       0.004390  -0.040457   0.155231  -0.013392   0.015018  -0.194864
    127      -0.024584   0.200074  -0.116528   0.027296   0.229085   0.015218
    128      -0.102825  -0.008567   0.230470   0.225383   0.080274  -0.085375
    129       0.003405   0.028839   0.071106  -0.029895   0.080345  -0.140538
    130      -0.015718   0.187692  -0.133231   0.023252   0.203258   0.019967
    131      -0.067314  -0.038093   0.131791   0.204496  -0.007888  -0.046686
    132      -0.061310  -0.008850   0.149291   0.042332   0.051408  -0.189549
    133      -0.033951   0.189358  -0.022795   0.035126   0.256995  -0.029704
    134      -0.047183  -0.020911   0.142214   0.178495   0.026329  -0.045146
    135       0.035361  -0.050427   0.073143   0.085732   0.009383   0.130324
    136       0.054104   0.045017   0.142769  -0.018779   0.098701   0.211198
    137       0.012181   0.096880   0.027835   0.145480  -0.117703  -0.026161
[...]
  28:       232.22    0.000000  (  0.000000   0.000000   0.000000)
  29:       237.61    0.000000  (  0.000000   0.000000   0.000000)
  30:       262.22    0.000000  (  0.000000   0.000000   0.000000)
  31:       274.20    0.000000  (  0.000000   0.000000   0.000000)
  32:       278.34    0.000000  (  0.000000   0.000000   0.000000)
  33:       340.81    0.000000  (  0.000000   0.000000   0.000000)
  34:       357.97    0.000000  (  0.000000   0.000000   0.000000)
  35:       382.02    0.000000  (  0.000000   0.000000   0.000000)
  36:       394.99    0.000000  (  0.000000   0.000000   0.000000)
  37:       396.52    0.000000  (  0.000000   0.000000   0.000000)
  38:       416.84    0.000000  (  0.000000   0.000000   0.000000)
  39:       418.80    0.000000  (  0.000000   0.000000   0.000000)
  40:       430.01    0.000000  (  0.000000   0.000000   0.000000)
  41:       447.66    0.000000  (  0.000000   0.000000   0.000000)
  42:       478.02    0.000000  (  0.000000   0.000000   0.000000)
  43:       586.85    0.000000  (  0.000000   0.000000   0.000000)
  44:       626.00    0.000000  (  0.000000   0.000000   0.000000)
  45:       661.16    0.000000  (  0.000000   0.000000   0.000000)
  46:       734.67    0.000000  (  0.000000   0.000000   0.000000)
  47:       749.60    0.000000  (  0.000000   0.000000   0.000000)
  48:       766.31    0.000000  (  0.000000   0.000000   0.000000)
  49:       772.31    0.000000  (  0.000000   0.000000   0.000000)
  50:       821.38    0.000000  (  0.000000   0.000000   0.000000)
  51:       824.64    0.000000  (  0.000000   0.000000   0.000000)
  52:       831.62    0.000000  (  0.000000   0.000000   0.000000)
  53:       883.89    0.000000  (  0.000000   0.000000   0.000000)
  54:       898.22    0.000000  (  0.000000   0.000000   0.000000)
  55:       923.44    0.000000  (  0.000000   0.000000   0.000000)
  56:       923.86    0.000000  (  0.000000   0.000000   0.000000)
  57:       929.23    0.000000  (  0.000000   0.000000   0.000000)
  58:       935.10    0.000000  (  0.000000   0.000000   0.000000)
  59:       938.10    0.000000  (  0.000000   0.000000   0.000000)
  60:       939.05    0.000000  (  0.000000   0.000000   0.000000)
  61:       944.56    0.000000  (  0.000000   0.000000   0.000000)
  62:       974.35    0.000000  (  0.000000   0.000000   0.000000)
  63:       984.53    0.000000  (  0.000000   0.000000   0.000000)
  64:      1000.72    0.000000  (  0.000000   0.000000   0.000000)
  65:      1003.32    0.000000  (  0.000000   0.000000   0.000000)
  66:      1006.13    0.000000  (  0.000000   0.000000   0.000000)
  67:      1059.19    0.000000  (  0.000000   0.000000   0.000000)
  68:      1065.77    0.000000  (  0.000000   0.000000   0.000000)
  69:      1070.42    0.000000  (  0.000000   0.000000   0.000000)
  70:      1096.02    0.000000  (  0.000000   0.000000   0.000000)
  71:      1101.17    0.000000  (  0.000000   0.000000   0.000000)
  72:      1111.53    0.000000  (  0.000000   0.000000   0.000000)
  73:      1122.11    0.000000  (  0.000000   0.000000   0.000000)
  74:      1123.87    0.000000  (  0.000000   0.000000   0.000000)
  75:      1145.04    0.000000  (  0.000000   0.000000   0.000000)
  76:      1151.56    0.000000  (  0.000000   0.000000   0.000000)
  77:      1174.31    0.000000  (  0.000000   0.000000   0.000000)
  78:      1179.04    0.000000  (  0.000000   0.000000   0.000000)
  79:      1197.74    0.000000  (  0.000000   0.000000   0.000000)
  80:      1201.61    0.000000  (  0.000000   0.000000   0.000000)
  81:      1207.97    0.000000  (  0.000000   0.000000   0.000000)
  82:      1229.33    0.000000  (  0.000000   0.000000   0.000000)
  83:      1239.73    0.000000  (  0.000000   0.000000   0.000000)
  84:      1269.58    0.000000  (  0.000000   0.000000   0.000000)
  85:      1276.03    0.000000  (  0.000000   0.000000   0.000000)
  86:      1277.12    0.000000  (  0.000000   0.000000   0.000000)
  87:      1277.76    0.000000  (  0.000000   0.000000   0.000000)
  88:      1278.73    0.000000  (  0.000000   0.000000   0.000000)
  89:      1290.10    0.000000  (  0.000000   0.000000   0.000000)
  90:      1292.55    0.000000  (  0.000000   0.000000   0.000000)
  91:      1302.40    0.000000  (  0.000000   0.000000   0.000000)
  92:      1349.68    0.000000  (  0.000000   0.000000   0.000000)
  93:      1352.37    0.000000  (  0.000000   0.000000   0.000000)
  94:      1356.13    0.000000  (  0.000000   0.000000   0.000000)
  95:      1377.54    0.000000  (  0.000000   0.000000   0.000000)
  96:      1380.92    0.000000  (  0.000000   0.000000   0.000000)
  97:      1426.70    0.000000  (  0.000000   0.000000   0.000000)
  98:      1427.33    0.000000  (  0.000000   0.000000   0.000000)
  99:      1428.49    0.000000  (  0.000000   0.000000   0.000000)
 100:      1449.46    0.000000  (  0.000000   0.000000   0.000000)
 101:      1490.82    0.000000  (  0.000000   0.000000   0.000000)
 102:      1501.59    0.000000  (  0.000000   0.000000   0.000000)
 103:      1502.32    0.000000  (  0.000000   0.000000   0.000000)
 104:      1505.42    0.000000  (  0.000000   0.000000   0.000000)
 105:      1506.54    0.000000  (  0.000000   0.000000   0.000000)
 106:      1507.11    0.000000  (  0.000000   0.000000   0.000000)
 107:      1507.92    0.000000  (  0.000000   0.000000   0.000000)
 108:      1508.72    0.000000  (  0.000000   0.000000   0.000000)
 109:      1512.59    0.000000  (  0.000000   0.000000   0.000000)
 110:      1512.77    0.000000  (  0.000000   0.000000   0.000000)
 111:      1546.28    0.000000  (  0.000000   0.000000   0.000000)
 112:      1550.91    0.000000  (  0.000000   0.000000   0.000000)
 113:      1559.34    0.000000  (  0.000000   0.000000   0.000000)
 114:      1563.22    0.000000  (  0.000000   0.000000   0.000000)
 115:      1570.09    0.000000  (  0.000000   0.000000   0.000000)
 116:      1662.75    0.000000  (  0.000000   0.000000   0.000000)
 117:      2844.34    0.000000  (  0.000000   0.000000   0.000000)
 118:      2846.80    0.000000  (  0.000000   0.000000   0.000000)
 119:      2891.98    0.000000  (  0.000000   0.000000   0.000000)
 120:      2935.56    0.000000  (  0.000000   0.000000   0.000000)
 121:      2936.47    0.000000  (  0.000000   0.000000   0.000000)
 122:      2938.40    0.000000  (  0.000000   0.000000   0.000000)
 123:      2940.91    0.000000  (  0.000000   0.000000   0.000000)
 124:      2953.41    0.000000  (  0.000000   0.000000   0.000000)
 125:      2962.03    0.000000  (  0.000000   0.000000   0.000000)
 126:      2962.99    0.000000  (  0.000000   0.000000   0.000000)
 127:      2969.11    0.000000  (  0.000000   0.000000   0.000000)
 128:      2973.90    0.000000  (  0.000000   0.000000   0.000000)
 129:      2975.07    0.000000  (  0.000000   0.000000   0.000000)
 130:      2979.55    0.000000  (  0.000000   0.000000   0.000000)
 131:      2980.58    0.000000  (  0.000000   0.000000   0.000000)
 132:      2984.19    0.000000  (  0.000000   0.000000   0.000000)
 133:      2985.94    0.000000  (  0.000000   0.000000   0.000000)
 134:      2996.18    0.000000  (  0.000000   0.000000   0.000000)
 135:      2998.66    0.000000  (  0.000000   0.000000   0.000000)
 136:      2999.51    0.000000  (  0.000000   0.000000   0.000000)
 137:      3054.64    0.000000  (  0.000000   0.000000   0.000000)
 138:      3059.97    0.000000  (  0.000000   0.000000   0.000000)
 139:      3065.60    0.000000  (  0.000000   0.000000   0.000000)
 140:      3072.47    0.000000  (  0.000000   0.000000   0.000000)
 141:      3078.20    0.000000  (  0.000000   0.000000   0.000000)
 142:      3349.18    0.000000  (  0.000000   0.000000   0.000000)
 143:      3374.31    0.000000  (  0.000000   0.000000   0.000000)
 144:      3413.17    0.000000  (  0.000000   0.000000   0.000000)
 145:      3422.67    0.000000  (  0.000000   0.000000   0.000000)
 146:      3591.06    0.000000  (  0.000000   0.000000   0.000000)

The first frequency considered to be a vibration is 7
The total number of vibrations considered is 140


--------------------------
THERMOCHEMISTRY AT 298.15K
--------------------------

Temperature         ... 298.15 K
Pressure            ... 1.00 atm
Total Mass          ... 270.42 AMU

Throughout the following assumptions are being made:
  (1) The electronic state is orbitally nondegenerate
  (2) There are no thermally accessible electronically excited states
  (3) Hindered rotations indicated by low frequency modes are not
      treated as such but are treated as vibrations and this may
      cause some error
  (4) All equations used are the standard statistical mechanics
      equations for an ideal gas
  (5) All vibrations are strictly harmonic

freq.      26.00  E(vib)   ...       0.56 
freq.      34.19  E(vib)   ...       0.54 
freq.      37.69  E(vib)   ...       0.54 
freq.      38.59  E(vib)   ...       0.54 
freq.      43.10  E(vib)   ...       0.53 
freq.      49.52  E(vib)   ...       0.52 
freq.      55.47  E(vib)   ...       0.52 
freq.      62.31  E(vib)   ...       0.51 
freq.      71.46  E(vib)   ...       0.50 
freq.      77.27  E(vib)   ...       0.49 
freq.      83.04  E(vib)   ...       0.48 
freq.      95.46  E(vib)   ...       0.47 
freq.     106.21  E(vib)   ...       0.45 
freq.     120.81  E(vib)   ...       0.44 
freq.     124.19  E(vib)   ...       0.43 
freq.     138.08  E(vib)   ...       0.42 
freq.     152.89  E(vib)   ...       0.40 
freq.     160.49  E(vib)   ...       0.39 
freq.     192.90  E(vib)   ...       0.36 
freq.     201.85  E(vib)   ...       0.35 
freq.     215.40  E(vib)   ...       0.34 
freq.     232.22  E(vib)   ...       0.32 
freq.     237.61  E(vib)   ...       0.32 
freq.     262.22  E(vib)   ...       0.29 
freq.     274.20  E(vib)   ...       0.28 
freq.     278.34  E(vib)   ...       0.28 
freq.     340.81  E(vib)   ...       0.23 
freq.     357.97  E(vib)   ...       0.22 
freq.     382.02  E(vib)   ...       0.21 
freq.     394.99  E(vib)   ...       0.20 
freq.     396.52  E(vib)   ...       0.20 
freq.     416.84  E(vib)   ...       0.18 
freq.     418.80  E(vib)   ...       0.18 
freq.     430.01  E(vib)   ...       0.18 
freq.     447.66  E(vib)   ...       0.17 
freq.     478.02  E(vib)   ...       0.15 
freq.     586.85  E(vib)   ...       0.11 
freq.     626.00  E(vib)   ...       0.09 
freq.     661.16  E(vib)   ...       0.08 
freq.     734.67  E(vib)   ...       0.06 
freq.     749.60  E(vib)   ...       0.06 
freq.     766.31  E(vib)   ...       0.06 
freq.     772.31  E(vib)   ...       0.05 
freq.     821.38  E(vib)   ...       0.05 
freq.     824.64  E(vib)   ...       0.04 
freq.     831.62  E(vib)   ...       0.04 
freq.     883.89  E(vib)   ...       0.04 
freq.     898.22  E(vib)   ...       0.03 
freq.     923.44  E(vib)   ...       0.03 
freq.     923.86  E(vib)   ...       0.03 
freq.     929.23  E(vib)   ...       0.03 
freq.     935.10  E(vib)   ...       0.03 
freq.     938.10  E(vib)   ...       0.03 
freq.     939.05  E(vib)   ...       0.03 
freq.     944.56  E(vib)   ...       0.03 
freq.     974.35  E(vib)   ...       0.03 
freq.     984.53  E(vib)   ...       0.02 
freq.    1000.72  E(vib)   ...       0.02 
freq.    1003.32  E(vib)   ...       0.02 
freq.    1006.13  E(vib)   ...       0.02 
freq.    1059.19  E(vib)   ...       0.02 
freq.    1065.77  E(vib)   ...       0.02 
freq.    1070.42  E(vib)   ...       0.02 
freq.    1096.02  E(vib)   ...       0.02 
freq.    1101.17  E(vib)   ...       0.02 
freq.    1111.53  E(vib)   ...       0.01 
freq.    1122.11  E(vib)   ...       0.01 
freq.    1123.87  E(vib)   ...       0.01 
freq.    1145.04  E(vib)   ...       0.01 
freq.    1151.56  E(vib)   ...       0.01 
freq.    1174.31  E(vib)   ...       0.01 
freq.    1179.04  E(vib)   ...       0.01 
freq.    1197.74  E(vib)   ...       0.01 
freq.    1201.61  E(vib)   ...       0.01 
freq.    1207.97  E(vib)   ...       0.01 
freq.    1229.33  E(vib)   ...       0.01 
freq.    1239.73  E(vib)   ...       0.01 
freq.    1269.58  E(vib)   ...       0.01 
freq.    1276.03  E(vib)   ...       0.01 
freq.    1277.12  E(vib)   ...       0.01 
freq.    1277.76  E(vib)   ...       0.01 
freq.    1278.73  E(vib)   ...       0.01 
freq.    1290.10  E(vib)   ...       0.01 
freq.    1292.55  E(vib)   ...       0.01 
freq.    1302.40  E(vib)   ...       0.01 
freq.    1349.68  E(vib)   ...       0.01 
freq.    1352.37  E(vib)   ...       0.01 
freq.    1356.13  E(vib)   ...       0.01 
freq.    1377.54  E(vib)   ...       0.01 
freq.    1380.92  E(vib)   ...       0.01 
freq.    1426.70  E(vib)   ...       0.00 
freq.    1427.33  E(vib)   ...       0.00 
freq.    1428.49  E(vib)   ...       0.00 
freq.    1449.46  E(vib)   ...       0.00 
freq.    1490.82  E(vib)   ...       0.00 
freq.    1501.59  E(vib)   ...       0.00 
freq.    1502.32  E(vib)   ...       0.00 
freq.    1505.42  E(vib)   ...       0.00 
freq.    1506.54  E(vib)   ...       0.00 
freq.    1507.11  E(vib)   ...       0.00 
freq.    1507.92  E(vib)   ...       0.00 
freq.    1508.72  E(vib)   ...       0.00 
freq.    1512.59  E(vib)   ...       0.00 
freq.    1512.77  E(vib)   ...       0.00 
freq.    1546.28  E(vib)   ...       0.00 
freq.    1550.91  E(vib)   ...       0.00 
freq.    1559.34  E(vib)   ...       0.00 
freq.    1563.22  E(vib)   ...       0.00 
freq.    1570.09  E(vib)   ...       0.00 
freq.    1662.75  E(vib)   ...       0.00 
freq.    2844.34  E(vib)   ...       0.00 
freq.    2846.80  E(vib)   ...       0.00 
freq.    2891.98  E(vib)   ...       0.00 
freq.    2935.56  E(vib)   ...       0.00 
freq.    2936.47  E(vib)   ...       0.00 
freq.    2938.40  E(vib)   ...       0.00 
freq.    2940.91  E(vib)   ...       0.00 
freq.    2953.41  E(vib)   ...       0.00 
freq.    2962.03  E(vib)   ...       0.00 
freq.    2962.99  E(vib)   ...       0.00 
freq.    2969.11  E(vib)   ...       0.00 
freq.    2973.90  E(vib)   ...       0.00 
freq.    2975.07  E(vib)   ...       0.00 
freq.    2979.55  E(vib)   ...       0.00 
freq.    2980.58  E(vib)   ...       0.00 
freq.    2984.19  E(vib)   ...       0.00 
freq.    2985.94  E(vib)   ...       0.00 
freq.    2996.18  E(vib)   ...       0.00 
freq.    2998.66  E(vib)   ...       0.00 
freq.    2999.51  E(vib)   ...       0.00 
freq.    3054.64  E(vib)   ...       0.00 
freq.    3059.97  E(vib)   ...       0.00 
freq.    3065.60  E(vib)   ...       0.00 
freq.    3072.47  E(vib)   ...       0.00 
freq.    3078.20  E(vib)   ...       0.00 
freq.    3349.18  E(vib)   ...       0.00 
freq.    3374.31  E(vib)   ...       0.00 
freq.    3413.17  E(vib)   ...       0.00 
freq.    3422.67  E(vib)   ...       0.00 
freq.    3591.06  E(vib)   ...       0.00 

------------
INNER ENERGY
------------

The inner energy is: U= E(el) + E(ZPE) + E(vib) + E(rot) + E(trans)
    E(el)   - is the total energy from the electronic structure calculation
              = E(kin-el) + E(nuc-el) + E(el-el) + E(nuc-nuc)
    E(ZPE)  - the the zero temperature vibrational energy from the frequency calculation
    E(vib)  - the the finite temperature correction to E(ZPE) due to population
              of excited vibrational states
    E(rot)  - is the rotational thermal energy
    E(trans)- is the translational thermal energy

Summary of contributions to the inner energy U:
Electronic energy                ...    -61.36457625 Eh
Zero point energy                ...      0.42471595 Eh     266.51 kcal/mol
Thermal vibrational correction   ...      0.02327209 Eh      14.60 kcal/mol
Thermal rotational correction    ...      0.00141627 Eh       0.89 kcal/mol
Thermal translational correction ...      0.00141627 Eh       0.89 kcal/mol
-----------------------------------------------------------------------
Total thermal energy                    -60.91375568 Eh


Summary of corrections to the electronic energy:
(perhaps to be used in another calculation)
Total thermal correction                  0.02610463 Eh      16.38 kcal/mol
Non-thermal (ZPE) correction              0.42471595 Eh     266.51 kcal/mol
-----------------------------------------------------------------------
Total correction                          0.45082057 Eh     282.89 kcal/mol


--------
ENTHALPY
--------

The enthalpy is H = U + kB*T
                kB is Boltzmann's constant
Total free energy                 ...    -60.91375568 Eh 
Thermal Enthalpy correction       ...      0.00094421 Eh       0.59 kcal/mol
-----------------------------------------------------------------------
Total Enthalpy                    ...    -60.91281147 Eh


Note: Only C1 symmetry has been detected, increase convergence thresholds 
      if your molecule has a higher symmetry. Symmetry factor of 1.0 is   
      used for the rotational entropy correction. 
 

Note: Rotational entropy computed according to Herzberg 
Infrared and Raman Spectra, Chapter V,1, Van Nostrand Reinhold, 1945 
Point Group:  C1, Symmetry Number:   1  
Rotational constants in cm-1:     0.013471     0.006715     0.005680 

Vibrational entropy computed according to the QRRHO of S. Grimme
Chem.Eur.J. 2012 18 9955


-------
ENTROPY
-------

The entropy contributions are T*S = T*(S(el)+S(vib)+S(rot)+S(trans))
     S(el)   - electronic entropy
     S(vib)  - vibrational entropy
     S(rot)  - rotational entropy
     S(trans)- translational entropy
The entropies will be listed as mutliplied by the temperature to get
units of energy

Electronic entropy                ...      0.00000000 Eh      0.00 kcal/mol
Vibrational entropy               ...      0.04298381 Eh     26.97 kcal/mol
Rotational entropy                ...      0.01634743 Eh     10.26 kcal/mol
Translational entropy             ...      0.02028014 Eh     12.73 kcal/mol
-----------------------------------------------------------------------
Final entropy term                ...      0.07961138 Eh     49.96 kcal/mol

In case the symmetry of your molecule has not been determined correctly
or in case you have a reason to use a different symmetry number we print 
out the resulting rotational entropy values for sn=1,12 :
 --------------------------------------------------------
|  sn= 1 | S(rot)=       0.01634743 Eh     10.26 kcal/mol|
|  sn= 2 | S(rot)=       0.01569297 Eh      9.85 kcal/mol|
|  sn= 3 | S(rot)=       0.01531014 Eh      9.61 kcal/mol|
|  sn= 4 | S(rot)=       0.01503852 Eh      9.44 kcal/mol|
|  sn= 5 | S(rot)=       0.01482783 Eh      9.30 kcal/mol|
|  sn= 6 | S(rot)=       0.01465568 Eh      9.20 kcal/mol|
|  sn= 7 | S(rot)=       0.01451014 Eh      9.11 kcal/mol|
|  sn= 8 | S(rot)=       0.01438406 Eh      9.03 kcal/mol|
|  sn= 9 | S(rot)=       0.01427285 Eh      8.96 kcal/mol|
|  sn=10 | S(rot)=       0.01417337 Eh      8.89 kcal/mol|
|  sn=11 | S(rot)=       0.01408338 Eh      8.84 kcal/mol|
|  sn=12 | S(rot)=       0.01400123 Eh      8.79 kcal/mol|
 --------------------------------------------------------


-------------------
GIBBS FREE ENERGY
-------------------

The Gibbs free energy is G = H - T*S

Total enthalpy                    ...    -60.91281147 Eh 
Total entropy correction          ...     -0.07961138 Eh    -49.96 kcal/mol
-----------------------------------------------------------------------
Final Gibbs free energy         ...    -60.99242284 Eh

For completeness - the Gibbs free energy minus the electronic energy
G-E(el)                           ...      0.37215340 Eh    233.53 kcal/mol


Total Time for Numerical Frequencies  :       168.583 sec
Time for Reference State(s)           :         0.169 sec
Time for Displacements                :       148.529 sec

Timings for individual modules:

Sum of individual times         ...        0.648 sec (=   0.011 min)
XTB module                      ...        0.648 sec (=   0.011 min) 100.0 %
                             ****ORCA TERMINATED NORMALLY****
TOTAL RUN TIME: 0 days 0 hours 2 minutes 49 seconds 854 msec
(SLURM) EXECUTION TIME: 169.900701577 seconds.
