 Entering Gaussian System
 *********************************************
 Gaussian 98:
 frequency output generated by the xtb code
 *********************************************
                         Standard orientation:
 --------------------------------------------------------------------
  Center     Atomic     Atomic              Coordinates (Angstroms)
  Number     Number      Type              X           Y           Z
 --------------------------------------------------------------------
    1          6             0        2.848234   -1.193610    0.003112
    2          6             0        2.949597   -0.001023    0.948742
    3          6             0        1.303577    1.250835   -0.468058
    4          1             0        1.973579    0.159835   -2.218005
    5          6             0        2.685505    1.290269    0.180426
    6          1             0        1.130648    2.171123   -1.032432
    7          1             0        0.527298    1.164174    0.298653
    8          6             0        1.465659   -1.242220   -0.643519
    9          1             0        2.214193   -0.107275    1.749751
   10          1             0        3.943836    0.031850    1.396684
   11          6             0        1.244690    0.054463   -1.398410
   12          1             0        0.693124   -1.363577    0.122448
   13          1             0        1.405402   -2.090623   -1.331380
   14          1             0        3.431359    1.399348   -0.612052
   15          1             0        2.754953    2.154285    0.844209
   16          1             0        3.593250   -1.090705   -0.791255
   17          1             0        3.037609   -2.126906    0.537241
   18         35             0       -0.513764    0.001717   -2.263621
   19          8             0        3.456598    0.325725   -3.442754
   20          6             0        3.366043   -0.163442   -4.662098
   21          1             0        2.456798    0.191191   -5.238253
   22          1             0        4.243273    0.098224   -5.325883
   23          1             0        3.302808   -1.295485   -4.703408
 --------------------------------------------------------------------
     1 basis functions        1 primitive gaussians
     1 alpha electrons        1 beta electrons

 Harmonic frequencies (cm**-1), IR intensities (KM/Mole),
 Raman scattering activities (A**4/amu), Raman depolarization ratios,
 reduced masses (AMU), force constants (mDyne/A) and normal coordinates:
                      1                      2                      3
                        a                      a                      a 
 Frequencies --    18.4761                27.7550                34.2293
 Red. masses --    16.7955                15.4318                 6.1270
 Frc consts  --     0.0000                 0.0000                 0.0000
 IR Inten    --     0.5623                 0.7136                 0.2572
 Raman Activ --     0.0000                 0.0000                 0.0000
 Depolar     --     0.0000                 0.0000                 0.0000
 Atom AN      X      Y      Z        X      Y      Z        X      Y      Z
   1   6     0.08   0.01  -0.25    -0.08  -0.04   0.02     0.15   0.09  -0.25
   2   6     0.11  -0.04  -0.18     0.08   0.07  -0.14     0.09  -0.01  -0.12
   3   6    -0.05  -0.02   0.02     0.08   0.03  -0.17    -0.11  -0.02   0.09
   4   1    -0.03   0.03  -0.02    -0.02  -0.06  -0.02    -0.01   0.06  -0.01
   5   6     0.00  -0.00  -0.09     0.14  -0.01  -0.28    -0.08   0.05   0.03
   6   1    -0.04   0.00   0.03     0.03  -0.01  -0.08    -0.07   0.01   0.06
   7   1     0.01  -0.03   0.02     0.04   0.05  -0.03    -0.02  -0.05   0.03
   8   6     0.03  -0.00  -0.13    -0.13  -0.00   0.12     0.11   0.02  -0.16
   9   1     0.05  -0.03  -0.04     0.04   0.07  -0.02     0.04  -0.05  -0.03
  10   1     0.04  -0.01  -0.08     0.03   0.01  -0.06     0.03   0.01  -0.05
  11   6    -0.07   0.03  -0.05    -0.06  -0.08  -0.03    -0.03   0.07  -0.03
  12   1     0.03  -0.02  -0.02    -0.03   0.05   0.05     0.05  -0.03  -0.04
  13   1     0.00   0.01  -0.05    -0.07  -0.02   0.07     0.04   0.02  -0.07
  14   1    -0.02   0.02  -0.04     0.02  -0.05  -0.10    -0.04   0.06   0.00
  15   1     0.01  -0.01  -0.01     0.08   0.02  -0.12    -0.04  -0.00   0.04
  16   1     0.00   0.03  -0.09    -0.04  -0.05  -0.01     0.02   0.08  -0.09
  17   1     0.05  -0.00  -0.09    -0.04   0.00   0.03     0.09   0.01  -0.11
  18  35    -0.31   0.06   0.16    -0.25  -0.08   0.12    -0.09   0.01  -0.01
  19   8     0.04   0.18   0.10     0.24  -0.28   0.27     0.18  -0.10   0.23
  20   6     0.46  -0.24   0.22     0.25   0.40  -0.03    -0.10  -0.12   0.23
  21   1     0.06  -0.32   0.03     0.12   0.28   0.01     0.16   0.29  -0.03
  22   1     0.08   0.08   0.05     0.12   0.14   0.07     0.14  -0.40   0.14
  23   1     0.39  -0.09   0.15    -0.02   0.13  -0.18    -0.47  -0.01   0.10
                      4                      5                      6
                        a                      a                      a 
 Frequencies --    54.0371                64.7850               117.2477
 Red. masses --     9.7394                11.2534                20.5884
 Frc consts  --     0.0000                 0.0000                 0.0000
 IR Inten    --     0.6862                 0.4998                 0.6457
 Raman Activ --     0.0000                 0.0000                 0.0000
 Depolar     --     0.0000                 0.0000                 0.0000
 Atom AN      X      Y      Z        X      Y      Z        X      Y      Z
   1   6     0.13   0.13  -0.16    -0.02  -0.05  -0.02     0.05   0.00  -0.06
   2   6    -0.02   0.01   0.01     0.09   0.01  -0.11     0.31   0.03  -0.13
   3   6    -0.13   0.00   0.13     0.08  -0.00  -0.10    -0.11  -0.05   0.25
   4   1    -0.00   0.06   0.00     0.01  -0.03  -0.01    -0.01  -0.01   0.08
   5   6    -0.16   0.08   0.17     0.12  -0.03  -0.19     0.02   0.03  -0.02
   6   1    -0.06   0.01   0.07     0.03  -0.01  -0.04    -0.09  -0.01   0.10
   7   1    -0.04  -0.05   0.03     0.03   0.02  -0.02     0.01  -0.05   0.11
   8   6     0.12   0.04  -0.14    -0.05  -0.01   0.03    -0.10   0.01   0.24
   9   1    -0.01  -0.05  -0.00     0.04   0.03  -0.02     0.17   0.00   0.04
  10   1    -0.01   0.02   0.01     0.03  -0.00  -0.05     0.13   0.02  -0.13
  11   6    -0.01   0.09   0.00     0.01  -0.04  -0.04    -0.09  -0.02   0.21
  12   1     0.04  -0.04  -0.04    -0.01   0.02   0.02     0.01   0.03   0.11
  13   1     0.06   0.03  -0.07    -0.04  -0.02   0.03    -0.08  -0.01   0.09
  14   1    -0.04   0.08   0.06     0.02  -0.04  -0.07    -0.05   0.04  -0.05
  15   1    -0.08   0.00   0.08     0.06   0.00  -0.07     0.03   0.00  -0.00
  16   1     0.03   0.10  -0.05    -0.01  -0.04  -0.02    -0.04  -0.01  -0.07
  17   1     0.08   0.02  -0.08    -0.02  -0.01   0.01     0.05   0.01  -0.02
  18  35    -0.01   0.06  -0.00     0.05  -0.03  -0.16     0.18   0.05  -0.32
  19   8     0.22  -0.58   0.12     0.17   0.20   0.35    -0.55  -0.16   0.18
  20   6    -0.11   0.06  -0.10    -0.43   0.02   0.41     0.02   0.04   0.05
  21   1    -0.19  -0.09   0.16    -0.28  -0.13   0.28     0.05  -0.00  -0.06
  22   1    -0.19   0.30  -0.13    -0.29   0.10  -0.06     0.06   0.08   0.12
  23   1     0.20   0.01  -0.19     0.01  -0.00   0.16     0.06   0.01  -0.04
                      7                      8                      9
                        a                      a                      a 
 Frequencies --   163.4185               213.6490               232.8273
 Red. masses --    13.2999                18.2310                 8.1655
 Frc consts  --     0.0000                 0.0000                 0.0000
 IR Inten    --     1.0154                 0.3406                 0.2208
 Raman Activ --     0.0000                 0.0000                 0.0000
 Depolar     --     0.0000                 0.0000                 0.0000
 Atom AN      X      Y      Z        X      Y      Z        X      Y      Z
   1   6    -0.06  -0.04   0.04    -0.13  -0.01  -0.23     0.17   0.10  -0.21
   2   6     0.22   0.02  -0.05     0.01  -0.21  -0.01     0.01  -0.06   0.01
   3   6    -0.16  -0.07   0.26     0.18   0.36   0.03     0.10  -0.06  -0.33
   4   1    -0.01   0.00   0.07    -0.01   0.08   0.00     0.01  -0.17  -0.01
   5   6    -0.05   0.01   0.03     0.13  -0.03   0.23    -0.16   0.04   0.23
   6   1    -0.10  -0.01   0.11     0.16   0.12   0.00     0.14  -0.06  -0.20
   7   1    -0.01  -0.07   0.10     0.02   0.17  -0.02    -0.06   0.10  -0.17
   8   6    -0.17   0.02   0.26    -0.22   0.33   0.02    -0.07  -0.12   0.33
   9   1     0.15   0.01   0.06     0.00  -0.09  -0.01     0.01  -0.10  -0.00
  10   1     0.11   0.01  -0.12     0.01  -0.10  -0.01     0.00   0.01   0.01
  11   6    -0.12  -0.01   0.18    -0.02   0.36   0.02     0.02  -0.31  -0.02
  12   1    -0.02   0.06   0.11    -0.04   0.16   0.04     0.05   0.08   0.19
  13   1    -0.10  -0.01   0.11    -0.17   0.10   0.01    -0.12  -0.10   0.19
  14   1    -0.06   0.03  -0.03     0.07   0.02   0.10     0.03   0.13   0.16
  15   1    -0.00  -0.00   0.02     0.05  -0.05   0.12    -0.20  -0.03   0.14
  16   1    -0.05  -0.05  -0.03    -0.07   0.03  -0.09    -0.05   0.15  -0.13
  17   1    -0.01  -0.00   0.02    -0.04  -0.04  -0.13     0.20   0.02  -0.14
  18  35    -0.10  -0.01  -0.11     0.03  -0.36  -0.02    -0.03   0.13  -0.00
  19   8     0.57   0.16  -0.32    -0.01   0.00   0.00     0.01   0.05  -0.01
  20   6     0.01  -0.05  -0.16     0.00   0.00  -0.00    -0.00   0.00   0.01
  21   1    -0.05  -0.02   0.03     0.00  -0.00  -0.00    -0.00  -0.00   0.00
  22   1    -0.06  -0.08  -0.16     0.00   0.00   0.00    -0.00  -0.01  -0.00
  23   1    -0.04  -0.02   0.01     0.00   0.00  -0.00    -0.00   0.00   0.01
                     10                     11                     12
                        a                      a                      a 
 Frequencies --   252.9386               323.8428               420.1052
 Red. masses --    41.3345                 7.0317                 8.1807
 Frc consts  --     0.0000                 0.0000                 0.0000
 IR Inten    --     0.1752                 0.1737                 0.1495
 Raman Activ --     0.0000                 0.0000                 0.0000
 Depolar     --     0.0000                 0.0000                 0.0000
 Atom AN      X      Y      Z        X      Y      Z        X      Y      Z
   1   6     0.23   0.08   0.19     0.15   0.16  -0.21     0.03  -0.21   0.04
   2   6     0.17  -0.01   0.30    -0.35  -0.03   0.06    -0.00   0.02  -0.22
   3   6     0.25  -0.02   0.08    -0.01   0.06   0.17     0.03   0.35  -0.01
   4   1    -0.02   0.01  -0.02    -0.04  -0.01   0.09    -0.03  -0.01   0.13
   5   6     0.26  -0.08   0.17     0.17  -0.11  -0.23     0.00   0.21   0.07
   6   1     0.11   0.01   0.03    -0.03  -0.00   0.03     0.14   0.02  -0.18
   7   1     0.07   0.02   0.02     0.05   0.06   0.11    -0.03   0.31  -0.02
   8   6     0.25   0.05   0.06    -0.00  -0.09   0.16     0.08  -0.34  -0.06
   9   1     0.03   0.00   0.06    -0.27  -0.01  -0.14     0.01   0.00  -0.05
  10   1     0.04  -0.01   0.11    -0.19  -0.03   0.22     0.00   0.00  -0.07
  11   6     0.06   0.01   0.04    -0.17  -0.03   0.28    -0.13  -0.04   0.44
  12   1     0.07  -0.02   0.01     0.06  -0.07   0.10     0.01  -0.31  -0.07
  13   1     0.11   0.01   0.02    -0.03  -0.01   0.03     0.13   0.02  -0.18
  14   1     0.09  -0.05   0.06     0.01  -0.21  -0.13     0.01   0.14   0.04
  15   1     0.07   0.00   0.02     0.20   0.03  -0.17    -0.02  -0.01   0.11
  16   1     0.09   0.05   0.08    -0.02   0.23  -0.10     0.03  -0.14   0.02
  17   1     0.05   0.00   0.03     0.20   0.02  -0.17    -0.01  -0.01   0.11
  18  35    -0.55  -0.01  -0.38     0.07   0.01  -0.04    -0.04   0.00  -0.07
  19   8    -0.01  -0.01   0.01     0.05   0.02  -0.05     0.03   0.00  -0.02
  20   6    -0.00   0.00   0.01     0.00  -0.01  -0.03     0.00   0.00  -0.00
  21   1     0.00   0.00   0.00    -0.00  -0.00  -0.00    -0.00   0.00  -0.00
  22   1     0.00   0.00   0.00    -0.00  -0.01  -0.02    -0.00  -0.01  -0.01
  23   1    -0.00   0.00  -0.00    -0.00  -0.00   0.00    -0.00  -0.00  -0.00
                     13                     14                     15
                        a                      a                      a 
 Frequencies --   427.3335               501.4675               692.3459
 Red. masses --     9.5596                 7.5260                10.4703
 Frc consts  --     0.0000                 0.0000                 0.0000
 IR Inten    --     0.0055                 0.0488                 0.3589
 Raman Activ --     0.0000                 0.0000                 0.0000
 Depolar     --     0.0000                 0.0000                 0.0000
 Atom AN      X      Y      Z        X      Y      Z        X      Y      Z
   1   6    -0.34   0.26  -0.11     0.13  -0.27  -0.03     0.12   0.02   0.02
   2   6    -0.01   0.18   0.01    -0.22   0.01  -0.32     0.08   0.01  -0.01
   3   6     0.30  -0.21   0.14     0.08  -0.06   0.12     0.07  -0.14  -0.05
   4   1     0.00  -0.06  -0.00     0.07   0.00  -0.01    -0.23  -0.01  -0.05
   5   6     0.30   0.28   0.15     0.10   0.29   0.01     0.12  -0.00   0.02
   6   1    -0.03  -0.06   0.07    -0.16  -0.00   0.12     0.02  -0.01   0.03
   7   1     0.14  -0.13   0.09     0.09  -0.19   0.09     0.08   0.01   0.06
   8   6    -0.27  -0.23  -0.17     0.07   0.05   0.13     0.05   0.15  -0.03
   9   1    -0.00   0.10   0.01    -0.24   0.00  -0.25    -0.10   0.00  -0.11
  10   1     0.01  -0.09  -0.01    -0.17  -0.02   0.14    -0.05  -0.01   0.15
  11   6     0.01  -0.15  -0.01     0.30   0.02  -0.01    -0.77  -0.04  -0.16
  12   1    -0.13  -0.13  -0.11     0.07   0.18   0.11     0.09  -0.01   0.06
  13   1     0.04  -0.05  -0.08    -0.16  -0.04   0.12     0.02   0.01   0.03
  14   1     0.12   0.15   0.09     0.06   0.23   0.06     0.10   0.15   0.09
  15   1    -0.02   0.07   0.07    -0.07  -0.01   0.14    -0.15  -0.05   0.09
  16   1    -0.14   0.14  -0.07     0.09  -0.22   0.02     0.12  -0.15   0.07
  17   1     0.01   0.08  -0.06    -0.07  -0.02   0.13    -0.16   0.01   0.09
  18  35     0.01  -0.06  -0.00    -0.12  -0.00  -0.05     0.14   0.01   0.02
  19   8     0.00   0.01  -0.00    -0.01  -0.01   0.01     0.01  -0.00  -0.01
  20   6    -0.00   0.00   0.00    -0.00   0.00   0.01     0.00   0.01   0.01
  21   1    -0.00  -0.00  -0.00     0.00   0.00   0.00    -0.00  -0.00   0.00
  22   1    -0.00  -0.00  -0.00     0.00   0.00   0.01    -0.00  -0.00  -0.01
  23   1    -0.00   0.00   0.00     0.00   0.00  -0.00    -0.00  -0.00  -0.00
                     16                     17                     18
                        a                      a                      a 
 Frequencies --   826.9604               861.0445               894.4835
 Red. masses --     4.4301                 7.6786                 6.3338
 Frc consts  --     0.0000                 0.0000                 0.0000
 IR Inten    --     0.0468                 0.2772                 0.0328
 Raman Activ --     0.0000                 0.0000                 0.0000
 Depolar     --     0.0000                 0.0000                 0.0000
 Atom AN      X      Y      Z        X      Y      Z        X      Y      Z
   1   6     0.00   0.14  -0.23     0.10  -0.29   0.04     0.10  -0.17   0.01
   2   6    -0.01   0.14   0.01    -0.10  -0.02   0.20     0.45   0.01   0.23
   3   6    -0.01  -0.11   0.23    -0.03   0.33  -0.03    -0.26   0.02  -0.02
   4   1    -0.00   0.04   0.00    -0.09   0.00  -0.11     0.05   0.00  -0.01
   5   6    -0.02   0.09   0.25     0.07   0.30   0.09     0.08   0.18   0.03
   6   1     0.23  -0.10  -0.13    -0.21   0.12   0.11     0.01  -0.01  -0.06
   7   1    -0.17   0.21  -0.08     0.08  -0.09   0.06    -0.18   0.05  -0.11
   8   6     0.02  -0.07  -0.23     0.01  -0.32  -0.08    -0.25  -0.05  -0.02
   9   1     0.00  -0.07  -0.01     0.13  -0.01   0.19    -0.21   0.00  -0.23
  10   1     0.00  -0.03  -0.00     0.06   0.01  -0.12    -0.07  -0.04   0.47
  11   6     0.01  -0.16  -0.01    -0.19   0.00  -0.30     0.06   0.01  -0.13
  12   1     0.14   0.21   0.11     0.07   0.10   0.08    -0.17  -0.05  -0.12
  13   1    -0.21  -0.14   0.11    -0.19  -0.17   0.10     0.01   0.02  -0.06
  14   1    -0.13  -0.23  -0.10     0.03  -0.10   0.01    -0.10   0.07  -0.11
  15   1     0.24   0.16  -0.14     0.18   0.13  -0.05     0.05   0.10  -0.06
  16   1     0.16  -0.23   0.06     0.02   0.10   0.02    -0.10  -0.07  -0.12
  17   1    -0.26   0.11   0.16     0.19  -0.09  -0.06     0.07  -0.08  -0.07
  18  35     0.00  -0.00  -0.00     0.03   0.00   0.00    -0.00  -0.00   0.01
  19   8     0.00  -0.00   0.00    -0.00  -0.00   0.00    -0.00   0.00   0.01
  20   6     0.00  -0.00  -0.00    -0.00   0.00   0.00    -0.00  -0.00  -0.01
  21   1     0.00   0.00   0.00    -0.00   0.00   0.00     0.00   0.00   0.00
  22   1    -0.00   0.00   0.00    -0.00   0.00  -0.00     0.00   0.00   0.00
  23   1     0.00   0.00  -0.00     0.00   0.00   0.00     0.00   0.00   0.00
                     19                     20                     21
                        a                      a                      a 
 Frequencies --   935.4128               939.9515               970.9093
 Red. masses --     7.1469                 4.3688                 7.2009
 Frc consts  --     0.0000                 0.0000                 0.0000
 IR Inten    --     0.3299                 0.1032                 0.0415
 Raman Activ --     0.0000                 0.0000                 0.0000
 Depolar     --     0.0000                 0.0000                 0.0000
 Atom AN      X      Y      Z        X      Y      Z        X      Y      Z
   1   6    -0.02   0.15   0.22     0.02  -0.21   0.12     0.28  -0.14  -0.05
   2   6     0.00   0.06  -0.34    -0.01   0.12   0.11    -0.02   0.30   0.02
   3   6    -0.01   0.14   0.26     0.02  -0.20   0.16     0.34  -0.07   0.02
   4   1    -0.01   0.07  -0.10    -0.02   0.23   0.04    -0.00  -0.02  -0.00
   5   6     0.00  -0.26   0.08     0.00  -0.06  -0.23    -0.26  -0.16   0.04
   6   1     0.24   0.12   0.13     0.20  -0.12  -0.13     0.13   0.07   0.15
   7   1    -0.12   0.11  -0.05    -0.02   0.25   0.05     0.12  -0.09   0.03
   8   6     0.01  -0.24   0.10     0.00  -0.05  -0.28    -0.32  -0.09  -0.03
   9   1    -0.07   0.09  -0.15     0.00   0.28   0.07     0.01  -0.13  -0.01
  10   1    -0.04   0.02  -0.01     0.01   0.05   0.00    -0.03   0.39   0.02
  11   6    -0.04   0.05  -0.37     0.00   0.09   0.11    -0.02   0.20   0.01
  12   1    -0.10   0.03  -0.06     0.04   0.28   0.02    -0.11  -0.10  -0.04
  13   1     0.11  -0.17   0.15    -0.28  -0.08   0.04    -0.14   0.08  -0.14
  14   1    -0.10   0.05  -0.06     0.02   0.24  -0.01     0.00  -0.17   0.06
  15   1     0.11  -0.19   0.17    -0.24  -0.08   0.05    -0.12   0.07  -0.13
  16   1    -0.11   0.08  -0.04     0.01   0.23   0.07     0.01  -0.15  -0.09
  17   1     0.22   0.13   0.14     0.17  -0.13  -0.16     0.12   0.05   0.13
  18  35     0.00  -0.00   0.00    -0.00  -0.00  -0.00     0.00  -0.01  -0.00
  19   8    -0.00   0.00   0.01     0.00  -0.01   0.00    -0.00   0.00  -0.00
  20   6    -0.00  -0.00  -0.01     0.00  -0.00  -0.00    -0.00   0.00   0.00
  21   1     0.00   0.00   0.00     0.00   0.00  -0.00    -0.00  -0.00  -0.00
  22   1     0.00   0.00   0.00    -0.00   0.00  -0.00    -0.00  -0.00  -0.00
  23   1     0.00   0.00   0.00     0.00   0.00  -0.00     0.00  -0.00   0.00
                     22                     23                     24
                        a                      a                      a 
 Frequencies --   994.3810              1077.7093              1089.1763
 Red. masses --     7.3681                 1.7058                 6.6199
 Frc consts  --     0.0000                 0.0000                 0.0000
 IR Inten    --     0.2482                 0.0393                 0.2831
 Raman Activ --     0.0000                 0.0000                 0.0000
 Depolar     --     0.0000                 0.0000                 0.0000
 Atom AN      X      Y      Z        X      Y      Z        X      Y      Z
   1   6     0.01   0.31  -0.11    -0.00  -0.09  -0.09     0.29   0.06   0.18
   2   6     0.18   0.01   0.17    -0.01   0.16   0.02    -0.10   0.02  -0.16
   3   6    -0.14   0.30  -0.12     0.05   0.05   0.02    -0.25  -0.12  -0.17
   4   1     0.07   0.00   0.06     0.03  -0.35  -0.02     0.01  -0.02   0.04
   5   6     0.03  -0.30  -0.16     0.00  -0.09   0.06     0.29  -0.06   0.18
   6   1    -0.19   0.12   0.09     0.14   0.16   0.21    -0.18  -0.13  -0.17
   7   1     0.11  -0.05   0.11    -0.19  -0.21  -0.22    -0.10  -0.06  -0.08
   8   6    -0.12  -0.31  -0.18    -0.04   0.04   0.00    -0.27   0.12  -0.16
   9   1    -0.03  -0.00  -0.03    -0.03   0.41   0.03     0.05   0.02   0.03
  10   1     0.00   0.00   0.14     0.00  -0.04  -0.00     0.01   0.02  -0.11
  11   6     0.13   0.01   0.10     0.00  -0.03  -0.01    -0.02  -0.02   0.10
  12   1     0.09   0.05   0.11     0.22  -0.22   0.20    -0.10   0.05  -0.06
  13   1    -0.18  -0.16   0.07    -0.15   0.15  -0.17    -0.20   0.14  -0.16
  14   1     0.13   0.10   0.11    -0.18   0.11  -0.14     0.11  -0.07   0.07
  15   1    -0.17  -0.18   0.11     0.12  -0.11   0.11     0.26  -0.14   0.19
  16   1     0.14  -0.10   0.09     0.17   0.11   0.15     0.11   0.08   0.09
  17   1    -0.18   0.13   0.13    -0.12  -0.11  -0.14     0.23   0.13   0.18
  18  35    -0.01  -0.00   0.01    -0.00  -0.00   0.00     0.01  -0.00   0.01
  19   8    -0.00  -0.00  -0.01     0.00   0.01   0.00    -0.00  -0.00  -0.01
  20   6    -0.00   0.00   0.01     0.00  -0.00  -0.00     0.00   0.00   0.01
  21   1     0.00   0.00  -0.00    -0.00  -0.00   0.00    -0.00   0.00   0.00
  22   1     0.00   0.00   0.00    -0.00  -0.00  -0.00    -0.00  -0.00  -0.00
  23   1     0.00  -0.00  -0.00    -0.00  -0.00   0.00    -0.00  -0.00   0.00
                     25                     26                     27
                        a                      a                      a 
 Frequencies --  1105.9085              1127.0644              1139.1813
 Red. masses --     4.9152                13.2213                 7.7781
 Frc consts  --     0.0000                 0.0000                 0.0000
 IR Inten    --     0.1502                 2.7128                 0.1108
 Raman Activ --     0.0000                 0.0000                 0.0000
 Depolar     --     0.0000                 0.0000                 0.0000
 Atom AN      X      Y      Z        X      Y      Z        X      Y      Z
   1   6     0.06  -0.04   0.01     0.05   0.01  -0.02    -0.21  -0.21  -0.23
   2   6    -0.00   0.07   0.01    -0.03  -0.02   0.02    -0.02   0.40   0.03
   3   6     0.05   0.21   0.18    -0.03  -0.01   0.04    -0.23  -0.06  -0.14
   4   1     0.01  -0.17  -0.01     0.09  -0.00   0.04    -0.02   0.19   0.01
   5   6    -0.07  -0.04  -0.02     0.03   0.02  -0.03     0.23  -0.21   0.20
   6   1    -0.12  -0.05  -0.08     0.02  -0.01  -0.01    -0.07  -0.02  -0.04
   7   1     0.11   0.11   0.15     0.01   0.06   0.04    -0.06  -0.03  -0.04
   8   6    -0.06   0.22  -0.14    -0.05   0.01   0.03     0.25  -0.05   0.13
   9   1     0.00  -0.03  -0.00     0.02  -0.01   0.03    -0.01   0.20   0.01
  10   1    -0.03   0.47   0.04     0.01  -0.00  -0.03    -0.02   0.22   0.02
  11   6     0.03  -0.43  -0.03    -0.01   0.00  -0.07    -0.01   0.09   0.01
  12   1    -0.12   0.11  -0.13     0.01  -0.06   0.02     0.07  -0.02   0.04
  13   1     0.14  -0.05   0.08     0.01   0.01  -0.01     0.06  -0.01   0.03
  14   1    -0.01   0.01   0.01     0.03   0.02   0.01     0.22  -0.15   0.19
  15   1     0.20  -0.19   0.21    -0.02   0.00   0.00     0.05  -0.06   0.06
  16   1    -0.01   0.01  -0.01     0.04  -0.01   0.02    -0.21  -0.15  -0.22
  17   1    -0.19  -0.19  -0.25    -0.02   0.00   0.01    -0.04  -0.05  -0.07
  18  35    -0.00   0.00  -0.00    -0.00  -0.00   0.00    -0.00   0.01   0.00
  19   8    -0.00   0.00  -0.00     0.07   0.25   0.58     0.00   0.01   0.03
  20   6     0.00   0.00   0.00    -0.09  -0.30  -0.67    -0.01  -0.01  -0.03
  21   1    -0.00  -0.00   0.00     0.04  -0.00  -0.03     0.00  -0.00  -0.00
  22   1    -0.00  -0.00  -0.00     0.00   0.02   0.05     0.00   0.00   0.00
  23   1    -0.00  -0.00   0.00     0.02   0.02  -0.04     0.00   0.00  -0.00
                     28                     29                     30
                        a                      a                      a 
 Frequencies --  1148.8494              1179.9534              1181.2169
 Red. masses --     7.5304                 4.4960                 4.5548
 Frc consts  --     0.0000                 0.0000                 0.0000
 IR Inten    --     0.5238                 0.8116                 0.9064
 Raman Activ --     0.0000                 0.0000                 0.0000
 Depolar     --     0.0000                 0.0000                 0.0000
 Atom AN      X      Y      Z        X      Y      Z        X      Y      Z
   1   6    -0.21   0.02   0.19     0.01  -0.00  -0.00    -0.02  -0.00   0.02
   2   6     0.22   0.02  -0.16    -0.01   0.00   0.01     0.03   0.00  -0.02
   3   6     0.21   0.05  -0.21    -0.01   0.00   0.01     0.02   0.00  -0.02
   4   1    -0.25  -0.01  -0.11    -0.00  -0.01  -0.01     0.02   0.00   0.02
   5   6    -0.22  -0.06   0.17     0.01   0.00  -0.01    -0.03  -0.00   0.02
   6   1    -0.14   0.02   0.03     0.01   0.00   0.00    -0.01   0.00   0.00
   7   1     0.07  -0.23  -0.06    -0.00   0.01   0.00     0.02  -0.02   0.00
   8   6     0.20   0.00  -0.22    -0.00   0.00   0.00     0.02   0.00  -0.02
   9   1    -0.10   0.01  -0.17     0.00   0.00   0.01    -0.01   0.00  -0.02
  10   1    -0.03  -0.02   0.14     0.00  -0.01  -0.01    -0.00  -0.00   0.02
  11   6    -0.06  -0.03   0.35     0.01  -0.00  -0.01    -0.02  -0.00   0.02
  12   1     0.04   0.24  -0.02    -0.00  -0.00  -0.00     0.01   0.01   0.01
  13   1    -0.14  -0.04   0.02     0.00   0.00  -0.00    -0.01  -0.00   0.00
  14   1    -0.16  -0.11  -0.07     0.01   0.00   0.00    -0.01  -0.02  -0.00
  15   1     0.13   0.01  -0.01    -0.01   0.00  -0.00     0.02   0.00  -0.00
  16   1    -0.16   0.11  -0.04     0.00  -0.01  -0.00    -0.01   0.02   0.01
  17   1     0.12   0.01  -0.01     0.00   0.00   0.01     0.01  -0.00  -0.01
  18  35     0.01   0.00  -0.01     0.00   0.00   0.00    -0.00  -0.00   0.00
  19   8    -0.00   0.05   0.13     0.01  -0.21   0.12     0.24  -0.02  -0.07
  20   6     0.02  -0.05  -0.14    -0.02   0.44  -0.21    -0.47   0.03   0.08
  21   1    -0.01  -0.00   0.02    -0.05  -0.36  -0.20     0.18  -0.15  -0.47
  22   1    -0.02  -0.02  -0.04     0.03  -0.35  -0.15     0.25   0.16   0.50
  23   1    -0.02   0.01   0.01     0.06   0.03   0.61     0.28  -0.02  -0.04
                     31                     32                     33
                        a                      a                      a 
 Frequencies --  1203.4814              1230.5764              1243.0587
 Red. masses --     5.0334                 3.8626                 3.3788
 Frc consts  --     0.0000                 0.0000                 0.0000
 IR Inten    --     0.1462                 0.1274                 0.1620
 Raman Activ --     0.0000                 0.0000                 0.0000
 Depolar     --     0.0000                 0.0000                 0.0000
 Atom AN      X      Y      Z        X      Y      Z        X      Y      Z
   1   6     0.01   0.12   0.04     0.13   0.02  -0.18     0.01   0.04   0.18
   2   6     0.01  -0.15  -0.01    -0.18  -0.03   0.26    -0.03  -0.03  -0.18
   3   6     0.14  -0.19  -0.11     0.02   0.03   0.04    -0.18  -0.01  -0.02
   4   1    -0.03   0.28   0.01    -0.39  -0.00  -0.28     0.03  -0.12   0.07
   5   6    -0.02   0.13  -0.03     0.13   0.02  -0.18     0.25   0.05  -0.01
   6   1    -0.08  -0.15  -0.16     0.07   0.05   0.06     0.24   0.22   0.28
   7   1    -0.07  -0.12  -0.14    -0.21  -0.16  -0.22    -0.25  -0.15  -0.22
   8   6    -0.12  -0.22   0.09     0.03  -0.02   0.04    -0.03  -0.01  -0.14
   9   1     0.01  -0.09  -0.00     0.07  -0.01   0.16     0.02  -0.27  -0.06
  10   1    -0.02   0.31   0.02     0.02   0.00  -0.08    -0.01   0.20  -0.04
  11   6    -0.02   0.41   0.03     0.04  -0.03   0.21    -0.03  -0.02   0.17
  12   1     0.07  -0.14   0.12    -0.23   0.16  -0.20    -0.04   0.11  -0.04
  13   1     0.10  -0.16   0.14     0.07  -0.04   0.04     0.07  -0.14   0.13
  14   1    -0.11   0.06  -0.11    -0.10   0.22  -0.14     0.22  -0.06   0.13
  15   1     0.25  -0.13   0.16    -0.01  -0.11   0.12    -0.21   0.17  -0.18
  16   1     0.10   0.05   0.11    -0.07  -0.22  -0.17     0.04   0.13   0.09
  17   1    -0.24  -0.13  -0.18    -0.02   0.10   0.14    -0.11  -0.15  -0.20
  18  35     0.00  -0.01  -0.00     0.02   0.00  -0.01     0.00   0.00   0.00
  19   8    -0.00  -0.01   0.00     0.02   0.02   0.04    -0.00   0.01   0.01
  20   6     0.00   0.01  -0.01    -0.03  -0.02  -0.03    -0.00  -0.01  -0.01
  21   1    -0.00  -0.01  -0.00     0.01  -0.01  -0.04     0.00  -0.00  -0.00
  22   1    -0.00  -0.01  -0.01     0.01   0.01   0.02     0.00   0.00   0.00
  23   1    -0.00   0.00   0.01     0.02  -0.00  -0.02     0.00  -0.00  -0.00
                     34                     35                     36
                        a                      a                      a 
 Frequencies --  1243.9045              1276.7446              1306.2588
 Red. masses --     3.5103                 2.8068                 3.4349
 Frc consts  --     0.0000                 0.0000                 0.0000
 IR Inten    --     0.1247                 0.1988                 0.0661
 Raman Activ --     0.0000                 0.0000                 0.0000
 Depolar     --     0.0000                 0.0000                 0.0000
 Atom AN      X      Y      Z        X      Y      Z        X      Y      Z
   1   6     0.27  -0.03  -0.10     0.01   0.05   0.06     0.00   0.09   0.00
   2   6    -0.03   0.07  -0.11     0.06   0.01  -0.13    -0.00   0.02   0.00
   3   6     0.04   0.04  -0.14    -0.12   0.03   0.13    -0.09  -0.10  -0.23
   4   1    -0.01   0.18   0.05    -0.52   0.02  -0.53    -0.00   0.45   0.06
   5   6    -0.09  -0.09   0.20     0.02  -0.04   0.04    -0.02   0.09   0.01
   6   1    -0.06   0.03   0.03    -0.04  -0.08  -0.11     0.24   0.24   0.30
   7   1     0.09  -0.04   0.05     0.03   0.14   0.10     0.15   0.06   0.12
   8   6    -0.18  -0.00   0.05    -0.10  -0.06   0.13     0.11  -0.11   0.20
   9   1    -0.03   0.44   0.01    -0.02  -0.01  -0.07     0.01  -0.11  -0.01
  10   1     0.02  -0.30  -0.06    -0.00   0.01   0.01    -0.00   0.01   0.00
  11   6    -0.01  -0.00   0.10     0.24  -0.01  -0.05     0.01  -0.26  -0.02
  12   1    -0.28   0.10  -0.21     0.05  -0.15   0.09    -0.15   0.07  -0.11
  13   1     0.26  -0.18   0.21    -0.09   0.12  -0.13    -0.25   0.23  -0.25
  14   1    -0.04  -0.12   0.02     0.13  -0.12   0.11    -0.07   0.05  -0.06
  15   1    -0.05   0.10  -0.12    -0.14   0.08  -0.09     0.18  -0.06   0.09
  16   1     0.21   0.02   0.11     0.11   0.12   0.13     0.06   0.05   0.06
  17   1    -0.16  -0.12  -0.13    -0.13  -0.08  -0.11    -0.15  -0.06  -0.09
  18  35     0.00  -0.00   0.00     0.03   0.00  -0.01    -0.00   0.00   0.00
  19   8    -0.00   0.00   0.01     0.02   0.01   0.02    -0.00  -0.01  -0.00
  20   6     0.00  -0.00  -0.01    -0.02  -0.01  -0.00     0.00   0.00  -0.00
  21   1     0.00  -0.00  -0.00     0.01  -0.00  -0.02    -0.00   0.00   0.00
  22   1    -0.00   0.00  -0.00     0.00   0.01   0.01    -0.00   0.00  -0.00
  23   1    -0.00   0.00  -0.00     0.01  -0.00  -0.02    -0.00   0.00   0.01
                     37                     38                     39
                        a                      a                      a 
 Frequencies --  1330.6706              1342.8817              1347.9618
 Red. masses --     4.4676                 4.5166                 4.5502
 Frc consts  --     0.0000                 0.0000                 0.0000
 IR Inten    --     0.1281                 0.2593                 0.1103
 Raman Activ --     0.0000                 0.0000                 0.0000
 Depolar     --     0.0000                 0.0000                 0.0000
 Atom AN      X      Y      Z        X      Y      Z        X      Y      Z
   1   6    -0.14   0.00  -0.16    -0.01  -0.11  -0.00     0.13   0.08   0.15
   2   6     0.03  -0.45  -0.03    -0.01  -0.01   0.04     0.01  -0.12  -0.01
   3   6    -0.02   0.04  -0.03    -0.20  -0.17  -0.22     0.16   0.14   0.15
   4   1    -0.01   0.13   0.01    -0.14   0.02  -0.12    -0.01   0.47   0.05
   5   6     0.14  -0.00   0.16    -0.04   0.11  -0.01    -0.15   0.08  -0.15
   6   1    -0.03   0.04   0.04     0.26   0.18   0.22    -0.03   0.01   0.01
   7   1     0.00   0.01   0.00     0.21   0.13   0.22    -0.21  -0.17  -0.23
   8   6     0.01   0.04   0.03    -0.24   0.19  -0.21    -0.15   0.13  -0.10
   9   1    -0.02   0.37   0.03     0.03   0.01   0.05    -0.01   0.19   0.01
  10   1    -0.03   0.53   0.04    -0.01  -0.01   0.04     0.01  -0.08  -0.01
  11   6     0.01  -0.12  -0.01     0.14  -0.01   0.12     0.01  -0.30  -0.03
  12   1     0.00   0.01   0.00     0.25  -0.16   0.22     0.20  -0.16   0.18
  13   1     0.03   0.04  -0.03     0.29  -0.18   0.21    -0.00   0.03  -0.03
  14   1    -0.10   0.08  -0.08    -0.02   0.01  -0.02     0.22  -0.14   0.18
  15   1    -0.14   0.20  -0.20     0.17  -0.07   0.10     0.00  -0.01   0.00
  16   1     0.09   0.08   0.09    -0.05  -0.03  -0.04    -0.19  -0.13  -0.19
  17   1     0.12   0.19   0.23     0.16   0.07   0.11    -0.01  -0.01  -0.01
  18  35    -0.00   0.00   0.00     0.01   0.00   0.00    -0.00   0.00   0.00
  19   8    -0.00  -0.00  -0.00     0.00   0.00  -0.00    -0.00  -0.00   0.00
  20   6     0.00   0.00   0.00    -0.00   0.00   0.01     0.00  -0.00  -0.00
  21   1     0.00   0.00  -0.00     0.00   0.00  -0.00    -0.00   0.00   0.00
  22   1    -0.00   0.00  -0.00    -0.00  -0.00  -0.00    -0.00   0.00  -0.00
  23   1    -0.00   0.00   0.01     0.00  -0.00  -0.00    -0.00   0.00   0.00
                     40                     41                     42
                        a                      a                      a 
 Frequencies --  1357.5815              1359.4532              1473.8886
 Red. masses --     4.7230                 4.9738                 1.9097
 Frc consts  --     0.0000                 0.0000                 0.0000
 IR Inten    --     0.2135                 0.1033                 0.0608
 Raman Activ --     0.0000                 0.0000                 0.0000
 Depolar     --     0.0000                 0.0000                 0.0000
 Atom AN      X      Y      Z        X      Y      Z        X      Y      Z
   1   6    -0.21  -0.16  -0.26    -0.14  -0.22  -0.11    -0.11   0.09   0.02
   2   6     0.16   0.00   0.05    -0.02   0.30   0.02     0.01   0.01   0.06
   3   6     0.04  -0.04   0.10     0.10   0.16   0.02     0.12  -0.11  -0.04
   4   1    -0.03  -0.02  -0.01    -0.02   0.35   0.03    -0.00   0.00  -0.00
   5   6    -0.24   0.17  -0.24     0.16  -0.20   0.07     0.07   0.08  -0.00
   6   1     0.08   0.01   0.03    -0.13  -0.03  -0.07    -0.29   0.08   0.23
   7   1    -0.12  -0.06  -0.11    -0.06  -0.11  -0.10    -0.13   0.33  -0.11
   8   6     0.04   0.02   0.10    -0.12   0.15   0.01    -0.09  -0.08   0.01
   9   1    -0.02   0.01  -0.04     0.02  -0.39  -0.03    -0.10   0.01  -0.09
  10   1     0.00  -0.00   0.10     0.01  -0.07  -0.00     0.05   0.01  -0.12
  11   6    -0.03   0.01   0.03     0.01  -0.21  -0.02     0.01  -0.01   0.00
  12   1    -0.14   0.07  -0.11     0.07  -0.12   0.07     0.07   0.24   0.12
  13   1     0.08  -0.00   0.03     0.14  -0.03   0.07     0.22   0.11  -0.15
  14   1     0.33  -0.20   0.27    -0.20   0.18  -0.17    -0.08  -0.24  -0.11
  15   1     0.19  -0.13   0.14    -0.13   0.02  -0.06    -0.19  -0.10   0.15
  16   1     0.30   0.19   0.29     0.19   0.19   0.21     0.15  -0.32   0.11
  17   1     0.16   0.13   0.16     0.13   0.04   0.07     0.28  -0.06  -0.21
  18  35    -0.00  -0.00  -0.00    -0.00   0.00   0.00    -0.00  -0.00  -0.00
  19   8    -0.00   0.00   0.01    -0.00  -0.01  -0.00     0.00   0.02   0.04
  20   6    -0.00  -0.00  -0.00     0.00  -0.00  -0.00    -0.00   0.02   0.03
  21   1     0.00  -0.00  -0.01     0.00   0.00   0.00     0.02  -0.05  -0.07
  22   1    -0.00  -0.00  -0.01    -0.00   0.00  -0.00    -0.03  -0.06  -0.07
  23   1     0.00  -0.00  -0.01    -0.00   0.00   0.01     0.00  -0.01  -0.11
                     43                     44                     45
                        a                      a                      a 
 Frequencies --  1475.9214              1478.7956              1482.9054
 Red. masses --     1.9555                 2.1467                 2.0539
 Frc consts  --     0.0000                 0.0000                 0.0000
 IR Inten    --     0.1038                 0.3202                 0.0681
 Raman Activ --     0.0000                 0.0000                 0.0000
 Depolar     --     0.0000                 0.0000                 0.0000
 Atom AN      X      Y      Z        X      Y      Z        X      Y      Z
   1   6    -0.01   0.01   0.01     0.00  -0.01  -0.01    -0.13   0.13   0.02
   2   6     0.04  -0.02   0.24     0.02  -0.00   0.07     0.00  -0.03   0.01
   3   6     0.00  -0.04  -0.02     0.03  -0.04  -0.02    -0.13   0.13   0.03
   4   1    -0.02  -0.00  -0.01    -0.01  -0.00  -0.03    -0.00   0.04   0.00
   5   6    -0.06  -0.07   0.02     0.03   0.05  -0.01     0.08   0.09   0.01
   6   1    -0.04   0.02   0.04    -0.08   0.03   0.07     0.32  -0.07  -0.23
   7   1    -0.01   0.06  -0.01    -0.04   0.10  -0.03     0.15  -0.35   0.12
   8   6     0.05   0.09  -0.02     0.01   0.02  -0.01     0.07   0.09   0.01
   9   1    -0.43  -0.00  -0.38    -0.12   0.00  -0.11    -0.02   0.03  -0.01
  10   1     0.24   0.05  -0.52     0.07   0.02  -0.14     0.01   0.03  -0.02
  11   6     0.02   0.00   0.01     0.00  -0.00   0.02    -0.00  -0.03  -0.01
  12   1    -0.05  -0.20  -0.08    -0.01  -0.05  -0.02    -0.07  -0.20  -0.11
  13   1    -0.16  -0.09   0.13    -0.04  -0.03   0.04    -0.19  -0.07   0.12
  14   1     0.07   0.22   0.10    -0.03  -0.13  -0.05    -0.08  -0.23  -0.11
  15   1     0.19   0.08  -0.12    -0.09  -0.05   0.08    -0.20  -0.07   0.13
  16   1     0.02  -0.04   0.01    -0.00   0.03  -0.00     0.17  -0.36   0.12
  17   1     0.05  -0.00  -0.02    -0.01   0.01   0.02     0.31  -0.06  -0.23
  18  35     0.00   0.00  -0.00     0.00   0.00  -0.00     0.00   0.00   0.00
  19   8     0.00   0.01   0.04    -0.01  -0.07  -0.18     0.00  -0.00   0.00
  20   6     0.00   0.01   0.04     0.00  -0.08  -0.18     0.00  -0.00  -0.00
  21   1     0.03  -0.05  -0.09    -0.12   0.26   0.42    -0.00  -0.00   0.00
  22   1    -0.04  -0.05  -0.08     0.17   0.27   0.40     0.00   0.01   0.00
  23   1    -0.00  -0.00  -0.10     0.00   0.02   0.52    -0.01   0.00   0.00
                     46                     47                     48
                        a                      a                      a 
 Frequencies --  1485.9333              1498.2747              1516.8760
 Red. masses --     1.9664                 2.0188                 1.5749
 Frc consts  --     0.0000                 0.0000                 0.0000
 IR Inten    --     0.0940                 0.0630                 0.4256
 Raman Activ --     0.0000                 0.0000                 0.0000
 Depolar     --     0.0000                 0.0000                 0.0000
 Atom AN      X      Y      Z        X      Y      Z        X      Y      Z
   1   6     0.05  -0.06  -0.03    -0.09   0.11   0.03    -0.00  -0.00  -0.00
   2   6     0.01  -0.01  -0.02    -0.05   0.01  -0.12     0.00  -0.00  -0.00
   3   6     0.08  -0.08  -0.04     0.08  -0.08  -0.02     0.00  -0.00  -0.00
   4   1     0.01   0.01   0.01    -0.03  -0.00  -0.03    -0.00   0.01  -0.01
   5   6     0.08   0.12  -0.01    -0.08  -0.13   0.01    -0.00  -0.00   0.00
   6   1    -0.19   0.06   0.16    -0.21   0.05   0.15    -0.00   0.00   0.00
   7   1    -0.09   0.23  -0.07    -0.10   0.23  -0.08    -0.00   0.00  -0.00
   8   6     0.12   0.15  -0.02     0.07   0.10  -0.01     0.00   0.00   0.00
   9   1     0.05   0.01   0.04     0.22  -0.00   0.20     0.00  -0.00   0.00
  10   1    -0.02   0.00   0.06    -0.12  -0.02   0.25    -0.00   0.00   0.00
  11   6     0.02  -0.01   0.01     0.02  -0.00   0.02     0.00  -0.00   0.00
  12   1    -0.10  -0.38  -0.18    -0.08  -0.24  -0.12    -0.00  -0.01  -0.01
  13   1    -0.32  -0.17   0.24    -0.21  -0.10   0.15    -0.01  -0.01   0.01
  14   1    -0.10  -0.33  -0.14     0.09   0.31   0.13     0.00   0.01   0.00
  15   1    -0.25  -0.13   0.20     0.23   0.11  -0.19     0.01   0.00  -0.00
  16   1    -0.08   0.21  -0.06     0.13  -0.30   0.09     0.00   0.00   0.00
  17   1    -0.15   0.05   0.14     0.24  -0.05  -0.20     0.00   0.00   0.00
  18  35    -0.00   0.00  -0.00    -0.00   0.00  -0.00     0.00   0.00  -0.00
  19   8     0.00   0.02   0.04    -0.00  -0.01  -0.02     0.01   0.03  -0.01
  20   6     0.00   0.02   0.05     0.00  -0.02  -0.03     0.09   0.18  -0.09
  21   1     0.03  -0.07  -0.11    -0.01   0.04   0.05    -0.36  -0.49   0.30
  22   1    -0.05  -0.06  -0.10     0.02   0.05   0.05     0.26  -0.20   0.41
  23   1    -0.01  -0.00  -0.12    -0.00   0.00   0.08    -0.28  -0.08  -0.36
                     49                     50                     51
                        a                      a                      a 
 Frequencies --  1516.9440              2325.2714              2353.3761
 Red. masses --     1.5472                 1.5993                 1.6163
 Frc consts  --     0.0000                 0.0000                 0.0000
 IR Inten    --     0.4191                 0.9685                 1.0162
 Raman Activ --     0.0000                 0.0000                 0.0000
 Depolar     --     0.0000                 0.0000                 0.0000
 Atom AN      X      Y      Z        X      Y      Z        X      Y      Z
   1   6    -0.00   0.00  -0.00    -0.00  -0.00  -0.00     0.00  -0.00  -0.00
   2   6    -0.00  -0.00  -0.00     0.00  -0.00  -0.00    -0.00  -0.00   0.00
   3   6     0.00   0.00   0.00     0.00   0.00  -0.00    -0.00  -0.00  -0.00
   4   1    -0.00   0.01  -0.00     0.00   0.00  -0.00     0.01   0.00  -0.00
   5   6     0.00  -0.00   0.00     0.00  -0.00   0.00     0.00   0.00  -0.00
   6   1    -0.00  -0.00  -0.00     0.00  -0.00  -0.00     0.00   0.00   0.00
   7   1    -0.00  -0.00  -0.00     0.00  -0.00  -0.00    -0.00  -0.00   0.00
   8   6     0.00   0.01   0.00     0.00  -0.00   0.00    -0.00   0.00  -0.00
   9   1     0.00   0.00   0.00    -0.00   0.00   0.00     0.00   0.00  -0.00
  10   1    -0.00   0.00   0.00    -0.00   0.00   0.00     0.00   0.00   0.00
  11   6     0.00  -0.00  -0.00    -0.00  -0.00   0.00    -0.00  -0.00   0.00
  12   1    -0.01  -0.02  -0.01    -0.00  -0.00   0.00    -0.00   0.00   0.00
  13   1    -0.01  -0.01   0.01    -0.00  -0.00   0.00     0.00  -0.00   0.00
  14   1    -0.00   0.00  -0.00    -0.00   0.00  -0.00    -0.00   0.00   0.00
  15   1     0.00   0.00  -0.00     0.00   0.00  -0.00     0.00   0.00  -0.00
  16   1     0.00   0.00   0.00     0.00   0.00   0.00     0.00   0.00   0.00
  17   1    -0.00   0.00   0.00    -0.00   0.00   0.00     0.00  -0.00   0.00
  18  35    -0.00   0.00  -0.00    -0.00   0.00   0.00     0.00   0.00  -0.00
  19   8    -0.04   0.01  -0.01    -0.00   0.01   0.00     0.01   0.01   0.01
  20   6    -0.20   0.08  -0.03    -0.07   0.21  -0.08     0.22   0.06  -0.04
  21   1     0.02   0.27   0.36     0.52  -0.10   0.23    -0.38   0.27  -0.30
  22   1     0.20  -0.54  -0.05    -0.17   0.10   0.02    -0.56  -0.21   0.42
  23   1     0.62  -0.07  -0.17    -0.09  -0.75   0.01     0.13  -0.29  -0.00
                     52                     53                     54
                        a                      a                      a 
 Frequencies --  2552.1615              2826.6146              2940.5803
 Red. masses --     1.1842                 1.8232                 1.9198
 Frc consts  --     0.0000                 0.0000                 0.0000
 IR Inten    --     0.6028                 0.4725                 0.1499
 Raman Activ --     0.0000                 0.0000                 0.0000
 Depolar     --     0.0000                 0.0000                 0.0000
 Atom AN      X      Y      Z        X      Y      Z        X      Y      Z
   1   6    -0.00  -0.00   0.00    -0.00  -0.00   0.00    -0.03  -0.02   0.04
   2   6    -0.00  -0.00   0.00     0.00   0.00   0.00    -0.00  -0.00   0.00
   3   6    -0.00  -0.00   0.00    -0.01  -0.01   0.01    -0.07  -0.05   0.10
   4   1    -0.05  -0.01   0.07    -0.62  -0.09   0.72    -0.02   0.00   0.02
   5   6     0.00   0.00   0.00    -0.00   0.00   0.00     0.01  -0.01  -0.02
   6   1     0.00  -0.00   0.00    -0.01   0.01  -0.00    -0.04   0.14  -0.07
   7   1     0.00   0.00  -0.00     0.05   0.01  -0.04     0.29   0.03  -0.29
   8   6    -0.00   0.00   0.00    -0.01   0.00   0.01     0.13  -0.06  -0.20
   9   1     0.00   0.00  -0.00     0.00   0.00  -0.00     0.01   0.00  -0.01
  10   1    -0.00   0.00  -0.00    -0.01  -0.00  -0.00     0.00  -0.00   0.00
  11   6     0.02   0.00  -0.02     0.18   0.03  -0.20     0.01  -0.00  -0.01
  12   1     0.00  -0.00  -0.00     0.05   0.00  -0.05    -0.52  -0.09   0.51
  13   1     0.00   0.00   0.00    -0.00  -0.01  -0.01     0.04   0.30   0.22
  14   1    -0.00  -0.00  -0.00     0.01   0.00  -0.01    -0.06  -0.01   0.06
  15   1    -0.00  -0.00  -0.00    -0.00  -0.01  -0.00     0.00   0.02   0.02
  16   1    -0.00   0.00  -0.00     0.01   0.00  -0.01     0.12   0.02  -0.13
  17   1    -0.00   0.00  -0.00    -0.00   0.01  -0.00    -0.01   0.04  -0.02
  18  35     0.00   0.00   0.00     0.00   0.00   0.00    -0.00   0.00  -0.00
  19   8     0.00   0.04   0.09     0.00   0.00   0.00     0.00   0.00  -0.00
  20   6    -0.01   0.00   0.04    -0.00  -0.01  -0.02    -0.00  -0.00  -0.00
  21   1    -0.47   0.20  -0.23     0.04  -0.01   0.02     0.00  -0.00   0.00
  22   1     0.51   0.17  -0.31    -0.05  -0.01   0.04    -0.00  -0.00   0.00
  23   1    -0.03  -0.53   0.04     0.00   0.04   0.00    -0.00   0.00   0.00
                     55                     56                     57
                        a                      a                      a 
 Frequencies --  2945.2903              2957.8117              2959.0773
 Red. masses --     1.8961                 1.7941                 1.6419
 Frc consts  --     0.0000                 0.0000                 0.0000
 IR Inten    --     0.2509                 0.2055                 0.1491
 Raman Activ --     0.0000                 0.0000                 0.0000
 Depolar     --     0.0000                 0.0000                 0.0000
 Atom AN      X      Y      Z        X      Y      Z        X      Y      Z
   1   6     0.01   0.01  -0.02     0.06   0.10  -0.14    -0.05   0.00   0.04
   2   6     0.01   0.00  -0.01    -0.12  -0.01   0.07     0.12   0.02  -0.07
   3   6    -0.13  -0.09   0.19     0.01  -0.01  -0.00     0.00  -0.03   0.02
   4   1     0.05   0.01  -0.06    -0.01  -0.00   0.01     0.02   0.00  -0.02
   5   6     0.03  -0.01  -0.04     0.02  -0.01  -0.03    -0.04   0.03   0.07
   6   1    -0.06   0.25  -0.14    -0.00   0.03  -0.02    -0.02   0.11  -0.07
   7   1     0.55   0.06  -0.54    -0.02  -0.00   0.02     0.01  -0.00  -0.01
   8   6    -0.07   0.03   0.11    -0.03  -0.11  -0.06    -0.08  -0.13  -0.03
   9   1    -0.02  -0.00   0.02     0.32   0.05  -0.35    -0.32  -0.05   0.35
  10   1    -0.01  -0.00  -0.01     0.11   0.00   0.07    -0.12  -0.00  -0.07
  11   6    -0.02  -0.00   0.03     0.00  -0.00  -0.00    -0.01  -0.01   0.01
  12   1     0.26   0.05  -0.26     0.11   0.00  -0.12     0.25   0.02  -0.28
  13   1    -0.02  -0.17  -0.13     0.02   0.40   0.34     0.01   0.47   0.40
  14   1    -0.12  -0.02   0.12    -0.09  -0.02   0.09     0.16   0.03  -0.17
  15   1     0.01   0.05   0.04     0.01   0.04   0.03    -0.02  -0.14  -0.10
  16   1    -0.07  -0.01   0.07    -0.31  -0.03   0.32     0.18   0.03  -0.20
  17   1     0.01  -0.03   0.01     0.08  -0.34   0.19     0.00  -0.05   0.04
  18  35     0.00   0.00   0.00     0.00  -0.00   0.00     0.00  -0.00   0.00
  19   8    -0.00  -0.00   0.00     0.00   0.00  -0.00    -0.00  -0.00   0.00
  20   6     0.00   0.00   0.00    -0.00   0.00  -0.00     0.00   0.00   0.00
  21   1    -0.00   0.00  -0.00     0.00  -0.00   0.00    -0.00   0.00  -0.00
  22   1     0.00   0.00  -0.00    -0.00  -0.00   0.00     0.00  -0.00  -0.00
  23   1     0.00  -0.00   0.00    -0.00   0.00   0.00    -0.00  -0.00  -0.00
                     58                     59                     60
                        a                      a                      a 
 Frequencies --  2962.3622              2964.5846              2971.2991
 Red. masses --     1.9115                 1.5793                 1.9610
 Frc consts  --     0.0000                 0.0000                 0.0000
 IR Inten    --     0.2192                 0.2625                 0.4437
 Raman Activ --     0.0000                 0.0000                 0.0000
 Depolar     --     0.0000                 0.0000                 0.0000
 Atom AN      X      Y      Z        X      Y      Z        X      Y      Z
   1   6     0.08   0.07  -0.13    -0.03  -0.04   0.05     0.02   0.10  -0.09
   2   6     0.05   0.01  -0.03    -0.05  -0.00   0.02     0.17   0.02  -0.05
   3   6     0.01  -0.07   0.05     0.10  -0.17   0.04     0.04  -0.02  -0.02
   4   1    -0.01  -0.00   0.01    -0.01  -0.00   0.01    -0.02  -0.00   0.02
   5   6    -0.08   0.08   0.17     0.06   0.03  -0.03     0.06  -0.09  -0.14
   6   1    -0.04   0.25  -0.16    -0.10   0.67  -0.42    -0.01   0.10  -0.06
   7   1     0.01  -0.01  -0.00    -0.24  -0.06   0.27    -0.12  -0.02   0.12
   8   6     0.05   0.05  -0.01    -0.01   0.01   0.01     0.02   0.02  -0.01
   9   1    -0.12  -0.02   0.13     0.10   0.02  -0.11    -0.29  -0.04   0.33
  10   1    -0.04  -0.00  -0.02     0.07   0.00   0.03    -0.32  -0.01  -0.15
  11   6     0.00  -0.00  -0.00     0.00  -0.01  -0.00     0.01   0.00  -0.01
  12   1    -0.17  -0.02   0.18     0.03   0.01  -0.03    -0.09  -0.01   0.09
  13   1    -0.00  -0.16  -0.14    -0.00  -0.03  -0.02     0.00  -0.06  -0.05
  14   1     0.33   0.06  -0.34    -0.19  -0.02   0.21    -0.23  -0.04   0.24
  15   1    -0.04  -0.35  -0.26     0.00  -0.10  -0.09     0.03   0.36   0.27
  16   1    -0.32  -0.04   0.34     0.12   0.01  -0.12    -0.12  -0.00   0.12
  17   1     0.05  -0.21   0.11    -0.03   0.13  -0.07     0.07  -0.37   0.21
  18  35    -0.00   0.00  -0.00    -0.00  -0.00  -0.00    -0.00  -0.00  -0.00
  19   8     0.00   0.00  -0.00     0.00  -0.00  -0.00     0.00   0.00  -0.00
  20   6     0.00   0.00   0.00    -0.00   0.00   0.00    -0.00  -0.00   0.00
  21   1    -0.00   0.00  -0.00     0.00  -0.00   0.00    -0.00   0.00  -0.00
  22   1     0.00   0.00  -0.00     0.00   0.00  -0.00     0.00   0.00  -0.00
  23   1    -0.00  -0.00  -0.00     0.00  -0.00   0.00    -0.00  -0.00  -0.00
                     61                     62                     63
                        a                      a                      a 
 Frequencies --  2974.4331              2976.6447              2987.0990
 Red. masses --     1.5276                 1.5127                 1.5939
 Frc consts  --     0.0000                 0.0000                 0.0000
 IR Inten    --     0.3875                 0.3720                 0.3293
 Raman Activ --     0.0000                 0.0000                 0.0000
 Depolar     --     0.0000                 0.0000                 0.0000
 Atom AN      X      Y      Z        X      Y      Z        X      Y      Z
   1   6    -0.13   0.13   0.03    -0.01   0.04  -0.03     0.04  -0.05   0.01
   2   6    -0.01  -0.00   0.08    -0.01   0.01  -0.08     0.16   0.00   0.13
   3   6    -0.01   0.00   0.01    -0.01   0.06  -0.03    -0.01   0.02  -0.01
   4   1     0.01   0.00  -0.01    -0.01  -0.00   0.01     0.00   0.00  -0.01
   5   6    -0.02   0.03   0.05     0.11   0.14  -0.02     0.04   0.07   0.02
   6   1     0.00  -0.01   0.01     0.03  -0.21   0.13     0.01  -0.08   0.05
   7   1     0.03   0.00  -0.03     0.01   0.01  -0.02     0.01   0.00  -0.01
   8   6    -0.00   0.04   0.03     0.01   0.01  -0.00    -0.00  -0.01  -0.01
   9   1     0.22   0.03  -0.22    -0.19  -0.02   0.18     0.19   0.02  -0.16
  10   1    -0.19  -0.01  -0.07     0.24   0.01   0.09    -0.75  -0.03  -0.31
  11   6    -0.00  -0.00   0.00     0.00   0.00  -0.00    -0.00  -0.00   0.00
  12   1    -0.00   0.00   0.01    -0.02  -0.00   0.02     0.01  -0.00  -0.01
  13   1    -0.01  -0.15  -0.12    -0.00  -0.02  -0.02     0.00   0.05   0.04
  14   1     0.08   0.01  -0.09    -0.40  -0.03   0.44    -0.12  -0.01   0.14
  15   1    -0.01  -0.11  -0.08    -0.02  -0.47  -0.39    -0.01  -0.24  -0.19
  16   1     0.38   0.08  -0.42    -0.00   0.00  -0.00    -0.09  -0.02   0.11
  17   1     0.09  -0.54   0.33     0.03  -0.15   0.09    -0.04   0.22  -0.13
  18  35    -0.00   0.00  -0.00     0.00   0.00   0.00     0.00   0.00   0.00
  19   8    -0.00   0.00   0.00     0.00   0.00  -0.00    -0.00  -0.00   0.00
  20   6     0.00  -0.00   0.00    -0.00  -0.00  -0.00    -0.00  -0.00  -0.00
  21   1    -0.00   0.00  -0.00     0.00  -0.00   0.00     0.00  -0.00   0.00
  22   1     0.00   0.00  -0.00    -0.00  -0.00   0.00    -0.00  -0.00   0.00
  23   1     0.00  -0.00  -0.00     0.00   0.00   0.00     0.00   0.00   0.00
