
                                 *****************
                                 * O   R   C   A *
                                 *****************

           --- An Ab Initio, DFT and Semiempirical electronic structure package ---

                  #######################################################
                  #                        -***-                        #
                  #          Department of theory and spectroscopy      #
                  #               Directorship: Frank Neese             #
                  #        Max Planck Institute fuer Kohlenforschung    #
                  #                Kaiser Wilhelm Platz 1               #
                  #                 D-45470 Muelheim/Ruhr               #
                  #                      Germany                        #
                  #                                                     #
                  #                  All rights reserved                #
                  #                        -***-                        #
                  #######################################################


                         Program Version 4.2.1 -  RELEASE  -


 With contributions from (in alphabetic order):
   Daniel Aravena         : Magnetic Suceptibility
   Michael Atanasov       : Ab Initio Ligand Field Theory (pilot matlab implementation)
   Alexander A. Auer      : GIAO ZORA, VPT2
   Ute Becker             : Parallelization
   Giovanni Bistoni       : ED, misc. LED, open-shell LED, HFLD
   Martin Brehm           : Molecular dynamics
   Dmytro Bykov           : SCF Hessian
   Vijay G. Chilkuri      : MRCI spin determinant printing, contributions to CSF-ICE
   Dipayan Datta          : RHF DLPNO-CCSD density
   Achintya Kumar Dutta   : EOM-CC, STEOM-CC
   Dmitry Ganyushin       : Spin-Orbit,Spin-Spin,Magnetic field MRCI
   Miquel Garcia          : C-PCM Hessian, Gaussian charge scheme
   Yang Guo               : DLPNO-NEVPT2, CIM, IAO-localization
   Andreas Hansen         : Spin unrestricted coupled pair/coupled cluster methods
   Benjamin Helmich-Paris : CASSCF linear response (MC-RPA)
   Lee Huntington         : MR-EOM, pCC
   Robert Izsak           : Overlap fitted RIJCOSX, COSX-SCS-MP3, EOM
   Christian Kollmar      : KDIIS, OOCD, Brueckner-CCSD(T), CCSD density
   Simone Kossmann        : Meta GGA functionals, TD-DFT gradient, OOMP2, MP2 Hessian
   Martin Krupicka        : AUTO-CI
   Lucas Lang             : DCDCAS
   Dagmar Lenk            : GEPOL surface, SMD
   Dimitrios Liakos       : Extrapolation schemes; Compound Job, initial MDCI parallelization
   Dimitrios Manganas     : Further ROCIS development; embedding schemes
   Dimitrios Pantazis     : SARC Basis sets
   Taras Petrenko         : DFT Hessian,TD-DFT gradient, ASA, ECA, R-Raman, ABS, FL, XAS/XES, NRVS
   Peter Pinski           : DLPNO-MP2, DLPNO-MP2 Gradient
   Christoph Reimann      : Effective Core Potentials
   Marius Retegan         : Local ZFS, SOC
   Christoph Riplinger    : Optimizer, TS searches, QM/MM, DLPNO-CCSD(T), (RO)-DLPNO pert. Triples
   Tobias Risthaus        : Range-separated hybrids, TD-DFT gradient, RPA, STAB
   Michael Roemelt        : Original ROCIS implementation
   Masaaki Saitow         : Open-shell DLPNO-CCSD energy and density
   Barbara Sandhoefer     : DKH picture change effects
   Avijit Sen             : IP-ROCIS
   Kantharuban Sivalingam : CASSCF convergence, NEVPT2, FIC-MRCI
   Bernardo de Souza      : ESD, SOC TD-DFT
   Georgi Stoychev        : AutoAux, RI-MP2 NMR
   Willem Van den Heuvel  : Paramagnetic NMR
   Boris Wezisla          : Elementary symmetry handling
   Frank Wennmohs         : Technical directorship


 We gratefully acknowledge several colleagues who have allowed us to
 interface, adapt or use parts of their codes:
   Stefan Grimme, W. Hujo, H. Kruse,             : VdW corrections, initial TS optimization,
                  C. Bannwarth                     DFT functionals, gCP, sTDA/sTD-DF
   Ed Valeev, F. Pavosevic, A. Kumar             : LibInt (2-el integral package), F12 methods
   Garnet Chan, S. Sharma, J. Yang, R. Olivares  : DMRG
   Ulf Ekstrom                                   : XCFun DFT Library
   Mihaly Kallay                                 : mrcc  (arbitrary order and MRCC methods)
   Andreas Klamt, Michael Diedenhofen            : otool_cosmo (COSMO solvation model)
   Jiri Pittner, Ondrej Demel                    : Mk-CCSD
   Frank Weinhold                                : gennbo (NPA and NBO analysis)
   Christopher J. Cramer and Donald G. Truhlar   : smd solvation model
   Lars Goerigk                                  : TD-DFT with DH, B97 family of functionals
   V. Asgeirsson, H. Jonsson                     : NEB implementation
   FAccTs GmbH                                   : IRC, NEB, NEB-TS, Multilevel, MM, QM/MM, CI optimization
   S Lehtola, MJT Oliveira, MAL Marques          : LibXC Library


 Your calculation uses the libint2 library for the computation of 2-el integrals
 For citations please refer to: http://libint.valeyev.net

 Your ORCA version has been built with support for libXC version: 4.2.3
 For citations please refer to: https://tddft.org/programs/libxc/

 This ORCA versions uses:
   CBLAS   interface :  Fast vector & matrix operations
   LAPACKE interface :  Fast linear algebra routines
   SCALAPACK package :  Parallel linear algebra routines


----- Orbital basis set information -----
Your calculation utilizes the basis: cc-pVTZ 
       H, B-Ne : Obtained from the ccRepo (grant-hill.group.shef.ac.uk/ccrepo) Feb. 2017
                 T. H. Dunning, Jr., J. Chem. Phys. 90, 1007 (1989)
            He : Obtained from the ccRepo (grant-hill.group.shef.ac.uk/ccrepo) Feb. 2017
                 D. E. Woon, T. H. Dunning, Jr., J. Chem. Phys. 100, 2975 (1994)
  Li-Be, Na-Mg : Obtained from the ccRepo (grant-hill.group.shef.ac.uk/ccrepo) Feb. 2017
                 B. P. Prascher, D. E. Woon, K. A. Peterson, T. H. Dunning, Jr., A. K. Wilson, Theor. Chem. Acc. 128, 69 (2011)
         Al-Ar : Obtained from the ccRepo (grant-hill.group.shef.ac.uk/ccrepo) Feb. 2017
                 D. E. Woon, T. H. Dunning, Jr., J. Chem. Phys. 98, 1358 (1993)
            Ca : Obtained from the Peterson Research Group Website (tyr0.chem.wsu.edu/~kipeters) Feb. 2017
                 J. Koput, K. A. Peterson, J. Phys. Chem. 106, 9595 (2002)
         Sc-Zn : Obtained from the ccRepo (grant-hill.group.shef.ac.uk/ccrepo) Feb. 2017
                 N. B. Balabanov, K. A. Peterson, J. Chem. Phys. 123, 064107 (2005)
                 N. B. Balabanov, K. A. Peterson, J. Chem. Phys. 125, 074110 (2006)
         Ga-Kr : Obtained from the ccRepo (grant-hill.group.shef.ac.uk/ccrepo) Feb. 2017
                 A. K. Wilson, D. E. Woon, K. A. Peterson, T. H. Dunning, Jr., J. Chem. Phys. 110, 7667 (1999)
             Y : Obtained from the ccRepo (grant-hill.group.shef.ac.uk/ccrepo) Feb. 2017
                 K. A. Peterson, D. Figgen, M. Dolg, H. Stoll, J. Chem. Phys. 126, 124101 (2007)
        Ag, Au : Obtained from the Peterson Research Group Website (tyr0.chem.wsu.edu/~kipeters) Feb. 2017
                 K. A. Peterson, C. Puzzarini, Theor. Chem. Acc. 114, 283 (2005)

================================================================================
                                        WARNINGS
                       Please study these warnings very carefully!
================================================================================


WARNING: Geometry Optimization
  ===> : Switching off AutoStart
         For restart on a previous wavefunction, please use MOREAD

WARNING: Post HF methods need fully converged wavefunctions
  ===> : Setting SCFConvForced true
         You can overwrite this default with %scf ConvForced false 


INFO   : the flag for use of LIBINT has been found!

================================================================================
                                       INPUT FILE
================================================================================
NAME = CH3·.inp
|  1> ! UHF MP2 cc-pVTZ Opt Freq NoFrozenCore TightOpt TightSCF Grid4 FinalGrid5 PrintBasis PrintMOs NBO
|  2> %maxcore 3000
|  3> 
|  4> *xyz 0 2
|  5>   C   0.00000017314882     -0.00000000000056      0.00000000000009
|  6>   H   1.07337896137086      0.00000000000022     -0.00000000000003
|  7>   H   -0.53668906725981      0.92957336970396     -0.00000000000003
|  8>   H   -0.53668906725987     -0.92957336970362     -0.00000000000003
|  9> *
| 10> 
| 11> %pal
| 12>  nprocs 6
| 13> end
| 14> 
| 15>                          ****END OF INPUT****
================================================================================

                       *****************************
                       * Geometry Optimization Run *
                       *****************************

Geometry optimization settings:
Update method            Update   .... BFGS
Choice of coordinates    CoordSys .... Z-matrix Internals
Initial Hessian          InHess   .... Almoef's Model

Convergence Tolerances:
Energy Change            TolE     ....  1.0000e-06 Eh
Max. Gradient            TolMAXG  ....  1.0000e-04 Eh/bohr
RMS Gradient             TolRMSG  ....  3.0000e-05 Eh/bohr
Max. Displacement        TolMAXD  ....  1.0000e-03 bohr
RMS Displacement         TolRMSD  ....  6.0000e-04 bohr
Strict Convergence                ....  False
------------------------------------------------------------------------------
                        ORCA OPTIMIZATION COORDINATE SETUP
------------------------------------------------------------------------------

The optimization will be done in new redundant internal coordinates
Making redundant internal coordinates   ...  (new redundants) done
Evaluating the initial hessian          ...  (Almloef) done
Evaluating the coordinates              ...  done
Calculating the B-matrix                .... done
Calculating the G-matrix                .... done
Diagonalizing the G-matrix              .... done
The first mode is                       ....    1
The number of degrees of freedom        ....    6

    -----------------------------------------------------------------
                    Redundant Internal Coordinates


    -----------------------------------------------------------------
         Definition                    Initial Value    Approx d2E/dq
    -----------------------------------------------------------------
      1. B(H   1,C   0)                  1.0734         0.382773   
      2. B(H   2,C   0)                  1.0734         0.382773   
      3. B(H   3,C   0)                  1.0734         0.382773   
      4. A(H   1,C   0,H   3)          120.0000         0.296496   
      5. A(H   2,C   0,H   3)          120.0000         0.296496   
      6. A(H   1,C   0,H   2)          120.0000         0.296496   
      7. I(H   1,H   3,H   2,C   0)      0.0000         0.023800   
    -----------------------------------------------------------------

Number of atoms                         .... 4
Number of degrees of freedom            .... 7

         *************************************************************
         *                GEOMETRY OPTIMIZATION CYCLE   1            *
         *************************************************************
---------------------------------
CARTESIAN COORDINATES (ANGSTROEM)
---------------------------------
  C      0.000000   -0.000000    0.000000
  H      1.073379    0.000000   -0.000000
  H     -0.536689    0.929573   -0.000000
  H     -0.536689   -0.929573   -0.000000

----------------------------
CARTESIAN COORDINATES (A.U.)
----------------------------
  NO LB      ZA    FRAG     MASS         X           Y           Z
   0 C     6.0000    0    12.011    0.000000   -0.000000    0.000000
   1 H     1.0000    0     1.008    2.028392    0.000000   -0.000000
   2 H     1.0000    0     1.008   -1.014195    1.756639   -0.000000
   3 H     1.0000    0     1.008   -1.014195   -1.756639   -0.000000

--------------------------------
INTERNAL COORDINATES (ANGSTROEM)
--------------------------------
 C      0   0   0     0.000000000000     0.00000000     0.00000000
 H      1   0   0     1.073378788222     0.00000000     0.00000000
 H      1   2   0     1.073378773050   119.99999099     0.00000000
 H      1   2   3     1.073378773049   119.99999099   180.00000000

---------------------------
INTERNAL COORDINATES (A.U.)
---------------------------
 C      0   0   0     0.000000000000     0.00000000     0.00000000
 H      1   0   0     2.028391947700     0.00000000     0.00000000
 H      1   2   0     2.028391919029   119.99999099     0.00000000
 H      1   2   3     2.028391919026   119.99999099   180.00000000

---------------------
BASIS SET INFORMATION
---------------------
There are 2 groups of distinct atoms

 Group   1 Type C   : 18s5p2d1f contracted to 4s3p2d1f pattern {8811/311/11/1}
 Group   2 Type H   : 5s2p1d contracted to 3s2p1d pattern {311/11/1}

Atom   0C    basis set group =>   1
Atom   1H    basis set group =>   2
Atom   2H    basis set group =>   2
Atom   3H    basis set group =>   2

-------------------------
BASIS SET IN INPUT FORMAT
-------------------------

 # Basis set for element : H 
 NewGTO H 
 S 3 
   1      33.8700000000      0.0254948632
   2       5.0950000000      0.1903627659
   3       1.1590000000      0.8521620222
 S 1 
   1       0.3258000000      1.0000000000
 S 1 
   1       0.1027000000      1.0000000000
 P 1 
   1       1.4070000000      1.0000000000
 P 1 
   1       0.3880000000      1.0000000000
 D 1 
   1       1.0570000000      1.0000000000
  end;

 # Basis set for element : C 
 NewGTO C 
 S 8 
   1    8236.0000000000      0.0005424302
   2    1235.0000000000      0.0041964279
   3     280.8000000000      0.0215409141
   4      79.2700000000      0.0836149496
   5      25.5900000000      0.2398716189
   6       8.9970000000      0.4437518201
   7       3.3190000000      0.3535796965
   8       0.3643000000     -0.0091763661
 S 8 
   1    8236.0000000000     -0.0001963922
   2    1235.0000000000     -0.0015259503
   3     280.8000000000     -0.0078904490
   4      79.2700000000     -0.0315148705
   5      25.5900000000     -0.0969100083
   6       8.9970000000     -0.2205415263
   7       3.3190000000     -0.2960691129
   8       0.3643000000      1.0405034329
 S 1 
   1       0.9059000000      1.0000000000
 S 1 
   1       0.1285000000      1.0000000000
 P 3 
   1      18.7100000000      0.0394263872
   2       4.1330000000      0.2440889849
   3       1.2000000000      0.8154920089
 P 1 
   1       0.3827000000      1.0000000000
 P 1 
   1       0.1209000000      1.0000000000
 D 1 
   1       1.0970000000      1.0000000000
 D 1 
   1       0.3180000000      1.0000000000
 F 1 
   1       0.7610000000      1.0000000000
  end;



           ************************************************************
           *        Program running with 6 parallel MPI-processes     *
           *              working on a common directory               *
           ************************************************************
------------------------------------------------------------------------------
                           ORCA GTO INTEGRAL CALCULATION
------------------------------------------------------------------------------

                         BASIS SET STATISTICS AND STARTUP INFO

 # of primitive gaussian shells          ...   50
 # of primitive gaussian functions       ...   98
 # of contracted shells                  ...   28
 # of contracted basis functions         ...   72
 Highest angular momentum                ...    3
 Maximum contraction depth               ...    8
 Integral package used                   ... LIBINT
 Integral threshhold            Thresh   ...  2.500e-11
 Primitive cut-off              TCut     ...  2.500e-12


------------------------------ INTEGRAL EVALUATION ----------------------------


 * One electron integrals 
 Pre-screening matrix                    ... done
 Shell pair data                         ... done (   0.000 sec)



           ************************************************************
           *        Program running with 6 parallel MPI-processes     *
           *              working on a common directory               *
           ************************************************************
-------------------------------------------------------------------------------
                                 ORCA SCF
-------------------------------------------------------------------------------

------------
SCF SETTINGS
------------
Hamiltonian:
 Ab initio Hamiltonian  Method          .... Hartree-Fock(GTOs)


General Settings:
 Integral files         IntName         .... CH3·
 Hartree-Fock type      HFTyp           .... UHF
 Total Charge           Charge          ....    0
 Multiplicity           Mult            ....    2
 Number of Electrons    NEL             ....    9
 Basis Dimension        Dim             ....   72
 Nuclear Repulsion      ENuc            ....      9.7279280841 Eh

Convergence Acceleration:
 DIIS                   CNVDIIS         .... on
   Start iteration      DIISMaxIt       ....    12
   Startup error        DIISStart       ....  0.200000
   # of expansion vecs  DIISMaxEq       ....     5
   Bias factor          DIISBfac        ....   1.050
   Max. coefficient     DIISMaxC        ....  10.000
 Newton-Raphson         CNVNR           .... off
 SOSCF                  CNVSOSCF        .... off
 Level Shifting         CNVShift        .... on
   Level shift para.    LevelShift      ....    0.2500
   Turn off err/grad.   ShiftErr        ....    0.0010
 Zerner damping         CNVZerner       .... off
 Static damping         CNVDamp         .... on
   Fraction old density DampFac         ....    0.7000
   Max. Damping (<1)    DampMax         ....    0.9800
   Min. Damping (>=0)   DampMin         ....    0.0000
   Turn off err/grad.   DampErr         ....    0.1000
 Fernandez-Rico         CNVRico         .... off

SCF Procedure:
 Maximum # iterations   MaxIter         ....   125
 SCF integral mode      SCFMode         .... Direct
   Integral package                     .... LIBINT
 Reset frequency        DirectResetFreq ....    20
 Integral Threshold     Thresh          ....  2.500e-11 Eh
 Primitive CutOff       TCut            ....  2.500e-12 Eh

Convergence Tolerance:
 Convergence Check Mode ConvCheckMode   .... Total+1el-Energy
 Convergence forced     ConvForced      .... 1
 Energy Change          TolE            ....  1.000e-08 Eh
 1-El. energy change                    ....  1.000e-05 Eh
 DIIS Error             TolErr          ....  5.000e-07


Diagonalization of the overlap matrix:
Smallest eigenvalue                        ... 2.076e-03
Time for diagonalization                   ...    0.022 sec
Threshold for overlap eigenvalues          ... 1.000e-08
Number of eigenvalues below threshold      ... 0
Time for construction of square roots      ...    0.001 sec
Total time needed                          ...    0.023 sec

-------------------
DFT GRID GENERATION
-------------------

General Integration Accuracy     IntAcc      ...  4.670
Radial Grid Type                 RadialGrid  ... Gauss-Chebyshev
Angular Grid (max. acc.)         AngularGrid ... Lebedev-302
Angular grid pruning method      GridPruning ... 3 (G Style)
Weight generation scheme         WeightScheme... Becke
Basis function cutoff            BFCut       ...    1.0000e-11
Integration weight cutoff        WCut        ...    1.0000e-14
Grids for H and He will be reduced by one unit

# of grid points (after initial pruning)     ...  16394 (   0.0 sec)
# of grid points (after weights+screening)   ...  16145 (   0.0 sec)
nearest neighbour list constructed           ...    0.0 sec
Grid point re-assignment to atoms done       ...    0.0 sec
Grid point division into batches done        ...    0.1 sec
Reduced shell lists constructed in    0.1 sec

Total number of grid points                  ...    16145
Total number of batches                      ...      253
Average number of points per batch           ...       63
Average number of grid points per atom       ...     4036
Average number of shells per batch           ...    27.36 (97.73%)
Average number of basis functions per batch  ...    70.36 (97.73%)
Average number of large shells per batch     ...    27.09 (99.00%)
Average number of large basis fcns per batch ...    69.82 (99.22%)
Maximum spatial batch extension              ...   2.89,  2.57, 19.60 au
Average spatial batch extension              ...   0.18,  0.19,  0.31 au

Time for grid setup =    0.078 sec

------------------------------
INITIAL GUESS: MODEL POTENTIAL
------------------------------
Loading Hartree-Fock densities                     ... done
Calculating cut-offs                               ... done
Setting up the integral package                    ... done
Initializing the effective Hamiltonian             ... done
Starting the Coulomb interaction                   ... done (   0.0 sec)
Reading the grid                                   ... done
Mapping shells                                     ... done
Starting the XC term evaluation                    ... done (   0.0 sec)
Transforming the Hamiltonian                       ... done (   0.0 sec)
Diagonalizing the Hamiltonian                      ... done (   0.0 sec)
Back transforming the eigenvectors                 ... done (   0.0 sec)
Now organizing SCF variables                       ... done
                      ------------------
                      INITIAL GUESS DONE (   0.2 sec)
                      ------------------
--------------
SCF ITERATIONS
--------------
ITER       Energy         Delta-E        Max-DP      RMS-DP      [F,P]     Damp
               ***  Starting incremental Fock matrix formation  ***
  0    -39.5155841173   0.000000000000 0.01510977  0.00049255  0.2181446 0.7000
  1    -39.5361826730  -0.020598555718 0.01328974  0.00038828  0.1464282 0.7000
                               ***Turning on DIIS***
  2    -39.5493416715  -0.013158998525 0.02803465  0.00087320  0.0914035 0.0000
  3    -39.5143443267   0.034997344841 0.00983733  0.00023007  0.0251582 0.0000
  4    -39.5714980576  -0.057153730973 0.00453000  0.00011185  0.0046059 0.0000
  5    -39.5775462912  -0.006048233545 0.00306840  0.00008055  0.0025498 0.0000
  6    -39.5780577842  -0.000511493006 0.00192933  0.00005144  0.0014144 0.0000
  7    -39.5777090838   0.000348700393 0.00154088  0.00004184  0.0007156 0.0000
  8    -39.5775949939   0.000114089910 0.00049354  0.00001561  0.0001966 0.0000
  9    -39.5775971937  -0.000002199848 0.00007984  0.00000366  0.0000362 0.0000
 10    -39.5775904271   0.000006766659 0.00004617  0.00000194  0.0000105 0.0000
 11    -39.5775940150  -0.000003587911 0.00001606  0.00000065  0.0000018 0.0000
                            ***DIIS convergence achieved***

               *****************************************************
               *                     SUCCESS                       *
               *           SCF CONVERGED AFTER  12 CYCLES          *
               *****************************************************


----------------
TOTAL SCF ENERGY
----------------

Total Energy       :          -39.57759418 Eh           -1076.96109 eV

Components:
Nuclear Repulsion  :            9.72792808 Eh             264.71038 eV
Electronic Energy  :          -49.30552227 Eh           -1341.67147 eV
One Electron Energy:          -71.68148649 Eh           -1950.55241 eV
Two Electron Energy:           22.37596423 Eh             608.88094 eV

Virial components:
Potential Energy   :          -79.13111258 Eh           -2153.26704 eV
Kinetic Energy     :           39.55351839 Eh            1076.30595 eV
Virial Ratio       :            2.00060869


---------------
SCF CONVERGENCE
---------------

  Last Energy change         ...   -1.6906e-07  Tolerance :   1.0000e-08
  Last MAX-Density change    ...    9.8018e-06  Tolerance :   1.0000e-07
  Last RMS-Density change    ...    4.0020e-07  Tolerance :   5.0000e-09
  Last DIIS Error            ...    9.1396e-07  Tolerance :   5.0000e-07

             **** THE GBW FILE WAS UPDATED (CH3·.gbw) ****
             **** DENSITY FILE WAS UPDATED (CH3·.scfp) ****
             **** ENERGY FILE WAS UPDATED (CH3·.en.tmp) ****
----------------------
UHF SPIN CONTAMINATION
----------------------

Expectation value of <S**2>     :     0.761465
Ideal value S*(S+1) for S=0.5   :     0.750000
Deviation                       :     0.011465

             **** THE GBW FILE WAS UPDATED (CH3·.gbw) ****
             **** DENSITY FILE WAS UPDATED (CH3·.scfp) ****
----------------
ORBITAL ENERGIES
----------------
                 SPIN UP ORBITALS
  NO   OCC          E(Eh)            E(eV) 
   0   1.0000     -11.231251      -305.6179 
   1   1.0000      -0.949015       -25.8240 
   2   1.0000      -0.581637       -15.8271 
   3   1.0000      -0.581637       -15.8271 
   4   1.0000      -0.384486       -10.4624 
   5   0.0000       0.150530         4.0961 
   6   0.0000       0.222577         6.0566 
   7   0.0000       0.222577         6.0566 
   8   0.0000       0.376579        10.2472 
   9   0.0000       0.376579        10.2472 
  10   0.0000       0.440651        11.9907 
  11   0.0000       0.490019        13.3341 
  12   0.0000       0.622951        16.9513 
  13   0.0000       0.667197        18.1553 
  14   0.0000       0.667197        18.1553 
  15   0.0000       0.732740        19.9389 
  16   0.0000       0.732740        19.9389 
  17   0.0000       1.032935        28.1076 
  18   0.0000       1.068988        29.0886 
  19   0.0000       1.093299        29.7502 
  20   0.0000       1.093299        29.7502 
  21   0.0000       1.160630        31.5823 
  22   0.0000       1.268782        34.5253 
  23   0.0000       1.268782        34.5253 
  24   0.0000       1.443496        39.2795 
  25   0.0000       1.443496        39.2795 
  26   0.0000       1.550538        42.1923 
  27   0.0000       1.550538        42.1923 
  28   0.0000       1.825605        49.6772 
  29   0.0000       2.365891        64.3792 
  30   0.0000       2.383663        64.8628 
  31   0.0000       2.537066        69.0371 
  32   0.0000       2.537066        69.0371 
  33   0.0000       2.840565        77.2957 
  34   0.0000       2.840565        77.2957 
  35   0.0000       2.911606        79.2288 
  36   0.0000       2.911606        79.2288 
  37   0.0000       3.167204        86.1840 
  38   0.0000       3.198289        87.0299 
  39   0.0000       3.219955        87.6194 
  40   0.0000       3.231723        87.9397 
  41   0.0000       3.231723        87.9397 
  42   0.0000       3.271589        89.0245 
  43   0.0000       3.271589        89.0245 
  44   0.0000       3.499608        95.2292 
  45   0.0000       3.548117        96.5492 
  46   0.0000       3.696056       100.5748 
  47   0.0000       3.696056       100.5748 
  48   0.0000       3.918722       106.6339 
  49   0.0000       3.918723       106.6339 
  50   0.0000       3.966535       107.9349 
  51   0.0000       3.966535       107.9349 
  52   0.0000       4.173593       113.5692 
  53   0.0000       4.223512       114.9276 
  54   0.0000       4.233808       115.2078 
  55   0.0000       4.283881       116.5703 
  56   0.0000       4.283881       116.5703 
  57   0.0000       4.419064       120.2488 
  58   0.0000       4.419064       120.2488 
  59   0.0000       5.006562       136.2355 
  60   0.0000       5.199441       141.4840 
  61   0.0000       5.199441       141.4840 
  62   0.0000       5.234923       142.4495 
  63   0.0000       5.241018       142.6154 
  64   0.0000       5.241019       142.6154 
  65   0.0000       5.319067       144.7392 
  66   0.0000       5.319067       144.7392 
  67   0.0000       5.935762       161.5203 
  68   0.0000       6.031355       164.1215 
  69   0.0000       6.031355       164.1215 
  70   0.0000       6.594102       179.4346 
  71   0.0000      13.408690       364.8690 

                 SPIN DOWN ORBITALS
  NO   OCC          E(Eh)            E(eV) 
   0   1.0000     -11.208430      -304.9969 
   1   1.0000      -0.858287       -23.3552 
   2   1.0000      -0.567408       -15.4399 
   3   1.0000      -0.567408       -15.4399 
   4   0.0000       0.122038         3.3208 
   5   0.0000       0.160522         4.3680 
   6   0.0000       0.227008         6.1772 
   7   0.0000       0.227008         6.1772 
   8   0.0000       0.379457        10.3256 
   9   0.0000       0.379457        10.3256 
  10   0.0000       0.536720        14.6049 
  11   0.0000       0.563969        15.3464 
  12   0.0000       0.649053        17.6616 
  13   0.0000       0.676896        18.4193 
  14   0.0000       0.676896        18.4193 
  15   0.0000       0.782882        21.3033 
  16   0.0000       0.782882        21.3033 
  17   0.0000       1.030139        28.0315 
  18   0.0000       1.098908        29.9028 
  19   0.0000       1.098908        29.9028 
  20   0.0000       1.116043        30.3691 
  21   0.0000       1.181560        32.1519 
  22   0.0000       1.293089        35.1867 
  23   0.0000       1.293089        35.1867 
  24   0.0000       1.447965        39.4011 
  25   0.0000       1.447965        39.4011 
  26   0.0000       1.556853        42.3641 
  27   0.0000       1.556853        42.3641 
  28   0.0000       1.842743        50.1436 
  29   0.0000       2.393069        65.1187 
  30   0.0000       2.462412        67.0056 
  31   0.0000       2.552714        69.4629 
  32   0.0000       2.552714        69.4629 
  33   0.0000       2.863089        77.9086 
  34   0.0000       2.863089        77.9086 
  35   0.0000       2.950916        80.2985 
  36   0.0000       2.950916        80.2985 
  37   0.0000       3.169187        86.2380 
  38   0.0000       3.238080        88.1126 
  39   0.0000       3.244338        88.2829 
  40   0.0000       3.244338        88.2829 
  41   0.0000       3.287649        89.4615 
  42   0.0000       3.310292        90.0776 
  43   0.0000       3.310292        90.0776 
  44   0.0000       3.502500        95.3079 
  45   0.0000       3.554400        96.7201 
  46   0.0000       3.697076       100.6026 
  47   0.0000       3.697076       100.6026 
  48   0.0000       3.923023       106.7509 
  49   0.0000       3.923023       106.7509 
  50   0.0000       3.975903       108.1898 
  51   0.0000       3.975903       108.1898 
  52   0.0000       4.170808       113.4934 
  53   0.0000       4.224752       114.9613 
  54   0.0000       4.235818       115.2625 
  55   0.0000       4.281325       116.5008 
  56   0.0000       4.281325       116.5008 
  57   0.0000       4.424962       120.4093 
  58   0.0000       4.424962       120.4093 
  59   0.0000       5.016281       136.5000 
  60   0.0000       5.203396       141.5916 
  61   0.0000       5.203397       141.5916 
  62   0.0000       5.242594       142.6582 
  63   0.0000       5.243211       142.6750 
  64   0.0000       5.243211       142.6750 
  65   0.0000       5.339104       145.2844 
  66   0.0000       5.339104       145.2844 
  67   0.0000       5.943325       161.7261 
  68   0.0000       6.035819       164.2430 
  69   0.0000       6.035819       164.2430 
  70   0.0000       6.597235       179.5199 
  71   0.0000      13.426480       365.3531 
------------------
MOLECULAR ORBITALS
------------------
                      0         1         2         3         4         5   
                 -11.23125  -0.94902  -0.58164  -0.58164  -0.38449   0.15053
                   1.00000   1.00000   1.00000   1.00000   1.00000   0.00000
                  --------  --------  --------  --------  --------  --------
  0C   1s        -0.976985  0.013171 -0.000000  0.000000  0.000000 -0.029097
  0C   2s        -0.000099 -0.477415  0.000000  0.000000  0.000000 -0.284438
  0C   3s        -0.042774 -0.100565  0.000000  0.000000  0.000000 -0.064186
  0C   4s        -0.004531 -0.239840 -0.000000  0.000000  0.000000 -3.223953
  0C   1pz       -0.000000  0.000000 -0.000000  0.000000  0.318546  0.000000
  0C   1px        0.000000 -0.000000 -0.000001 -0.246678  0.000000 -0.000000
  0C   1py       -0.000000  0.000000 -0.246678  0.000001  0.000000 -0.000000
  0C   2pz        0.000000  0.000000 -0.000000  0.000000  0.453898  0.000000
  0C   2px       -0.000000 -0.000000 -0.000001 -0.303178  0.000000 -0.000000
  0C   2py        0.000000  0.000000 -0.303178  0.000001 -0.000000  0.000000
  0C   3pz        0.000000  0.000000  0.000000  0.000000  0.394229  0.000000
  0C   3px       -0.000000 -0.000000 -0.000001 -0.141641  0.000000 -0.000000
  0C   3py        0.000000  0.000000 -0.141641  0.000001 -0.000000 -0.000000
  0C   1dz2      -0.000297  0.003093  0.000000  0.000000  0.000000 -0.004692
  0C   1dxz      -0.000000  0.000000  0.000000  0.000000  0.000000 -0.000000
  0C   1dyz       0.000000 -0.000000  0.000000 -0.000000 -0.000000  0.000000
  0C   1dx2y2     0.000000  0.000000 -0.000000 -0.016237 -0.000000 -0.000000
  0C   1dxy      -0.000000 -0.000000  0.016237 -0.000000  0.000000 -0.000000
  0C   2dz2       0.000033 -0.002397  0.000000  0.000000  0.000000  0.137233
  0C   2dxz      -0.000000  0.000000 -0.000000  0.000000  0.000000  0.000000
  0C   2dyz       0.000000 -0.000000  0.000000  0.000000  0.000000 -0.000000
  0C   2dx2y2    -0.000000  0.000000 -0.000000 -0.020438  0.000000  0.000000
  0C   2dxy      -0.000000 -0.000000  0.020438 -0.000000  0.000000 -0.000000
  0C   1f0       -0.000000 -0.000000 -0.000000  0.000000  0.002943 -0.000000
  0C   1f+1       0.000000  0.000000 -0.000000 -0.001913 -0.000000  0.000000
  0C   1f-1      -0.000000 -0.000000 -0.001913  0.000000  0.000000 -0.000000
  0C   1f+2      -0.000000  0.000000  0.000000  0.000000 -0.000000  0.000000
  0C   1f-2      -0.000000  0.000000 -0.000000 -0.000000  0.000000  0.000000
  0C   1f+3       0.000613  0.007059 -0.000000 -0.000000  0.000000  0.014382
  0C   1f-3       0.000000  0.000000 -0.000000 -0.000000  0.000000 -0.000000
  1H   1s        -0.000118 -0.086839 -0.000001 -0.163780 -0.000000  0.010863
  1H   2s        -0.000165 -0.090968 -0.000001 -0.245310 -0.000000  0.221697
  1H   3s         0.000725 -0.008047 -0.000000 -0.087744 -0.000000  1.335225
  1H   1pz       -0.000000 -0.000000 -0.000000 -0.000000  0.008929 -0.000000
  1H   1px       -0.000258  0.009018  0.000000  0.014885  0.000000  0.016399
  1H   1py        0.000000  0.000000 -0.005003  0.000000 -0.000000 -0.000000
  1H   2pz        0.000000  0.000000 -0.000000 -0.000000  0.018129  0.000000
  1H   2px        0.000040  0.003868  0.000000  0.017414  0.000000 -0.165830
  1H   2py       -0.000000  0.000000 -0.008534  0.000000 -0.000000  0.000000
  1H   1dz2      -0.000051  0.000292  0.000000  0.001678  0.000000 -0.007159
  1H   1dxz       0.000000  0.000000 -0.000000  0.000000 -0.003770 -0.000000
  1H   1dyz       0.000000 -0.000000 -0.000000  0.000000 -0.000000 -0.000000
  1H   1dx2y2     0.000209 -0.001331 -0.000000 -0.004046 -0.000000  0.005436
  1H   1dxy       0.000000 -0.000000  0.002231 -0.000000 -0.000000  0.000000
  2H   1s        -0.000118 -0.086839 -0.141837  0.081890 -0.000000  0.010863
  2H   2s        -0.000165 -0.090968 -0.212444  0.122656 -0.000000  0.221697
  2H   3s         0.000725 -0.008047 -0.075988  0.043872 -0.000000  1.335225
  2H   1pz        0.000000 -0.000000 -0.000000  0.000000  0.008929  0.000000
  2H   1px        0.000129 -0.004509 -0.008612 -0.000031 -0.000000 -0.008200
  2H   1py       -0.000223  0.007810  0.009913 -0.008612  0.000000  0.014202
  2H   2pz       -0.000000  0.000000 -0.000000 -0.000000  0.018129  0.000000
  2H   2px       -0.000020 -0.001934 -0.011236 -0.002047 -0.000000  0.082915
  2H   2py        0.000035  0.003349  0.010927 -0.011236 -0.000000 -0.143613
  2H   1dz2      -0.000051  0.000292  0.001454 -0.000839  0.000000 -0.007159
  2H   1dxz      -0.000000  0.000000 -0.000000 -0.000000  0.001885  0.000000
  2H   1dyz       0.000000 -0.000000  0.000000 -0.000000 -0.003265 -0.000000
  2H   1dx2y2    -0.000104  0.000666  0.000786 -0.002685  0.000000 -0.002718
  2H   1dxy      -0.000181  0.001153  0.003593 -0.000786  0.000000 -0.004708
  3H   1s        -0.000118 -0.086839  0.141838  0.081889 -0.000000  0.010863
  3H   2s        -0.000165 -0.090968  0.212445  0.122654 -0.000000  0.221697
  3H   3s         0.000725 -0.008047  0.075988  0.043872 -0.000000  1.335225
  3H   1pz        0.000000 -0.000000  0.000000  0.000000  0.008929  0.000000
  3H   1px        0.000129 -0.004509  0.008612 -0.000031 -0.000000 -0.008200
  3H   1py        0.000223 -0.007810  0.009913  0.008612 -0.000000 -0.014202
  3H   2pz        0.000000  0.000000  0.000000  0.000000  0.018129  0.000000
  3H   2px       -0.000020 -0.001934  0.011236 -0.002047 -0.000000  0.082915
  3H   2py       -0.000035 -0.003349  0.010927  0.011236 -0.000000  0.143613
  3H   1dz2      -0.000051  0.000292 -0.001454 -0.000839  0.000000 -0.007159
  3H   1dxz      -0.000000  0.000000  0.000000  0.000000  0.001885  0.000000
  3H   1dyz       0.000000 -0.000000  0.000000  0.000000  0.003265  0.000000
  3H   1dx2y2    -0.000104  0.000666 -0.000786 -0.002685  0.000000 -0.002718
  3H   1dxy       0.000181 -0.001153  0.003593  0.000786 -0.000000  0.004708
                      6         7         8         9        10        11   
                   0.22258   0.22258   0.37658   0.37658   0.44065   0.49002
                   0.00000   0.00000   0.00000   0.00000   0.00000   0.00000
                  --------  --------  --------  --------  --------  --------
  0C   1s        -0.000000  0.000000 -0.000000  0.000000 -0.000000  0.009866
  0C   2s        -0.000000 -0.000000 -0.000000  0.000000 -0.000000  0.056820
  0C   3s         0.000000 -0.000000  0.000000  0.000000 -0.000000 -0.045286
  0C   4s         0.000000  0.000000 -0.000001  0.000000 -0.000000  3.306263
  0C   1pz        0.000000 -0.000000  0.000000  0.000000 -0.222697 -0.000000
  0C   1px       -0.000001  0.136057 -0.082498  0.000000 -0.000000 -0.000000
  0C   1py       -0.136057 -0.000001  0.000000  0.082498 -0.000000  0.000000
  0C   2pz        0.000000 -0.000000  0.000000  0.000000 -0.800642 -0.000000
  0C   2px       -0.000001  0.348325  0.705048 -0.000002  0.000000  0.000000
  0C   2py       -0.348325 -0.000001 -0.000002 -0.705048 -0.000000 -0.000000
  0C   3pz       -0.000000  0.000000 -0.000000 -0.000000  1.317156  0.000000
  0C   3px       -0.000007  1.767662  2.605139 -0.000006  0.000000  0.000002
  0C   3py       -1.767663 -0.000007 -0.000006 -2.605140 -0.000000  0.000000
  0C   1dz2       0.000000 -0.000000 -0.000000  0.000000 -0.000000  0.000775
  0C   1dxz       0.000000  0.000000  0.000000 -0.000000 -0.000000  0.000000
  0C   1dyz      -0.000000 -0.000000  0.000000 -0.000000  0.000000 -0.000000
  0C   1dx2y2     0.000000 -0.004034 -0.007752  0.000000  0.000000  0.000000
  0C   1dxy      -0.004034 -0.000000 -0.000000 -0.007752 -0.000000  0.000000
  0C   2dz2       0.000000 -0.000000  0.000000 -0.000000 -0.000000 -0.054188
  0C   2dxz      -0.000000 -0.000000 -0.000000 -0.000000  0.000000  0.000000
  0C   2dyz       0.000000  0.000000 -0.000000  0.000000 -0.000000  0.000000
  0C   2dx2y2    -0.000000  0.094974  0.684659 -0.000002  0.000000  0.000000
  0C   2dxy       0.094974  0.000000  0.000002  0.684659  0.000000  0.000000
  0C   1f0       -0.000000  0.000000  0.000000 -0.000000 -0.013042  0.000000
  0C   1f+1       0.000000 -0.005424 -0.061850  0.000000 -0.000000 -0.000000
  0C   1f-1       0.005424  0.000000  0.000000  0.061850  0.000000  0.000000
  0C   1f+2       0.000000 -0.000000 -0.000000 -0.000000  0.000000 -0.000000
  0C   1f-2      -0.000000 -0.000000  0.000000 -0.000000  0.000000  0.000000
  0C   1f+3       0.000000 -0.000000  0.000000 -0.000000  0.000000 -0.077690
  0C   1f-3       0.000000 -0.000000 -0.000000 -0.000000  0.000000  0.000000
  1H   1s         0.000000 -0.008929 -0.040548  0.000000  0.000000 -0.060292
  1H   2s         0.000000 -0.112493 -2.116044  0.000005  0.000000 -1.242734
  1H   3s         0.000012 -2.871079 -1.059058  0.000003  0.000000 -0.293627
  1H   1pz        0.000000  0.000000 -0.000000 -0.000000  0.012854  0.000000
  1H   1px        0.000000 -0.025141  0.038117 -0.000000 -0.000000  0.025877
  1H   1py       -0.014202 -0.000000 -0.000000 -0.006818 -0.000000  0.000000
  1H   2pz       -0.000000 -0.000000 -0.000000  0.000000 -0.104875 -0.000000
  1H   2px       -0.000001  0.194243  0.516073 -0.000001 -0.000000  0.156366
  1H   2py        0.042260  0.000000 -0.000000 -0.147099 -0.000000 -0.000000
  1H   1dz2      -0.000000  0.004169  0.013332 -0.000000 -0.000000  0.015857
  1H   1dxz       0.000000  0.000000  0.000000 -0.000000 -0.000263  0.000000
  1H   1dyz      -0.000000 -0.000000 -0.000000 -0.000000  0.000000 -0.000000
  1H   1dx2y2     0.000000 -0.008847 -0.042627  0.000000  0.000000 -0.020532
  1H   1dxy      -0.000048 -0.000000  0.000000  0.010193 -0.000000 -0.000000
  2H   1s         0.007733  0.004465  0.020274  0.035115  0.000000 -0.060292
  2H   2s         0.097421  0.056247  1.058027  1.832546  0.000000 -1.242733
  2H   3s         2.486421  1.435549  0.529531  0.917171  0.000000 -0.293625
  2H   1pz       -0.000000 -0.000000  0.000000  0.000000  0.012854  0.000000
  2H   1px       -0.017036  0.004367  0.014643  0.013553  0.000000 -0.012939
  2H   1py        0.015305  0.017036 -0.013553 -0.030292 -0.000000  0.022410
  2H   2pz        0.000000  0.000000  0.000000  0.000000 -0.104875 -0.000000
  2H   2px        0.102409  0.016866  0.239343  0.159770  0.000000 -0.078183
  2H   2py       -0.135117 -0.102409 -0.159772 -0.423830 -0.000000  0.135416
  2H   1dz2      -0.003611 -0.002085 -0.006666 -0.011546 -0.000000  0.015857
  2H   1dxz      -0.000000  0.000000  0.000000  0.000000  0.000131 -0.000000
  2H   1dyz      -0.000000  0.000000 -0.000000 -0.000000 -0.000227  0.000000
  2H   1dx2y2    -0.003810 -0.002248 -0.003012 -0.022872 -0.000000  0.010266
  2H   1dxy      -0.006648 -0.003810 -0.022872 -0.029422 -0.000000  0.017782
  3H   1s        -0.007733  0.004465  0.020274 -0.035115  0.000000 -0.060292
  3H   2s        -0.097422  0.056246  1.058018 -1.832551  0.000000 -1.242733
  3H   3s        -2.486433  1.435529  0.529527 -0.917174  0.000000 -0.293625
  3H   1pz        0.000000 -0.000000  0.000000 -0.000000  0.012854  0.000000
  3H   1px        0.017036  0.004367  0.014643 -0.013553  0.000000 -0.012939
  3H   1py        0.015305 -0.017036  0.013553 -0.030292  0.000000 -0.022410
  3H   2pz       -0.000000  0.000000  0.000000 -0.000000 -0.104875 -0.000000
  3H   2px       -0.102409  0.016865  0.239342 -0.159771  0.000000 -0.078183
  3H   2py       -0.135117  0.102408  0.159770 -0.423830  0.000000 -0.135416
  3H   1dz2       0.003611 -0.002085 -0.006666  0.011546 -0.000000  0.015857
  3H   1dxz       0.000000  0.000000  0.000000 -0.000000  0.000131 -0.000000
  3H   1dyz      -0.000000 -0.000000  0.000000 -0.000000  0.000227 -0.000000
  3H   1dx2y2     0.003810 -0.002248 -0.003012  0.022872 -0.000000  0.010266
  3H   1dxy      -0.006648  0.003810  0.022872 -0.029422  0.000000 -0.017782
                     12        13        14        15        16        17   
                   0.62295   0.66720   0.66720   0.73274   0.73274   1.03293
                   0.00000   0.00000   0.00000   0.00000   0.00000   0.00000
                  --------  --------  --------  --------  --------  --------
  0C   1s        -0.061180 -0.000000 -0.000000  0.000000  0.000000  0.000000
  0C   2s         0.278828  0.000000  0.000000  0.000000 -0.000000  0.000000
  0C   3s         0.129871  0.000000 -0.000000  0.000000 -0.000000 -0.000000
  0C   4s        -6.970331 -0.000001 -0.000000 -0.000000  0.000000  0.000000
  0C   1pz       -0.000000 -0.000000  0.000000 -0.000000  0.000000  0.000000
  0C   1px       -0.000000  0.295363 -0.000002  0.000000 -0.000000 -0.000000
  0C   1py        0.000000 -0.000002 -0.295363  0.000000  0.000000  0.000000
  0C   2pz        0.000000  0.000000  0.000000  0.000000  0.000000 -0.000000
  0C   2px        0.000000 -0.460262  0.000002 -0.000000  0.000000 -0.000000
  0C   2py        0.000000  0.000002  0.460262 -0.000000  0.000000  0.000000
  0C   3pz        0.000000  0.000000 -0.000000 -0.000000  0.000000 -0.000000
  0C   3px       -0.000000 -2.674328  0.000014 -0.000000  0.000000 -0.000000
  0C   3py       -0.000000  0.000014  2.674329 -0.000000 -0.000000  0.000002
  0C   1dz2       0.047577  0.000000  0.000000  0.000000 -0.000000  0.000000
  0C   1dxz      -0.000000  0.000000  0.000000  0.000000 -0.000014 -0.000000
  0C   1dyz       0.000000 -0.000000 -0.000000  0.000014  0.000000 -0.000000
  0C   1dx2y2     0.000000 -0.046709  0.000000 -0.000000 -0.000000  0.000000
  0C   1dxy      -0.000000 -0.000000 -0.046709 -0.000000 -0.000000 -0.000000
  0C   2dz2       0.747096  0.000000  0.000000  0.000000 -0.000000 -0.000000
  0C   2dxz       0.000000  0.000000 -0.000000  0.000000 -0.524203 -0.000000
  0C   2dyz      -0.000000 -0.000000 -0.000000  0.524203  0.000000  0.000000
  0C   2dx2y2     0.000001 -0.834235  0.000004 -0.000000  0.000000 -0.000000
  0C   2dxy      -0.000000 -0.000004 -0.834235  0.000000 -0.000000 -0.000001
  0C   1f0       -0.000000 -0.000000  0.000000  0.000000 -0.000000  0.000000
  0C   1f+1       0.000000  0.055144 -0.000000  0.000000 -0.000000  0.000000
  0C   1f-1       0.000000 -0.000000 -0.055144  0.000000 -0.000000 -0.000000
  0C   1f+2       0.000000  0.000000 -0.000000 -0.000000  0.014544 -0.000000
  0C   1f-2       0.000000  0.000000  0.000000  0.014544  0.000000 -0.000000
  0C   1f+3       0.109411  0.000000  0.000000  0.000000 -0.000000 -0.000000
  0C   1f-3      -0.000000  0.000000  0.000000  0.000000  0.000000  0.145396
  1H   1s        -0.081701 -0.097734  0.000001 -0.000000  0.000000  0.000000
  1H   2s         1.086697  0.866863 -0.000005  0.000000 -0.000000  0.000000
  1H   3s         1.639061  2.692181 -0.000014  0.000000 -0.000000  0.000000
  1H   1pz        0.000000  0.000000 -0.000000 -0.000000  0.043944 -0.000000
  1H   1px        0.000594  0.003003 -0.000000 -0.000000  0.000000 -0.000000
  1H   1py       -0.000000  0.000000  0.016817  0.000000 -0.000000 -0.037974
  1H   2pz        0.000000  0.000000  0.000000  0.000000 -0.488691  0.000000
  1H   2px       -0.802798 -0.955013  0.000005 -0.000000  0.000000  0.000000
  1H   2py        0.000000 -0.000001 -0.190517 -0.000000  0.000000  0.784020
  1H   1dz2      -0.034702 -0.023795  0.000000 -0.000000  0.000000 -0.000000
  1H   1dxz      -0.000000 -0.000000 -0.000000  0.000000 -0.010245 -0.000000
  1H   1dyz      -0.000000 -0.000000  0.000000  0.000521  0.000000  0.000000
  1H   1dx2y2     0.037750  0.047646 -0.000000  0.000000 -0.000000  0.000000
  1H   1dxy       0.000000  0.000000  0.005270  0.000000 -0.000000 -0.042113
  2H   1s        -0.081701  0.048868  0.084640 -0.000000 -0.000000 -0.000000
  2H   2s         1.086697 -0.433436 -0.750723  0.000000  0.000000 -0.000001
  2H   3s         1.639061 -1.346102 -2.331490  0.000000  0.000000 -0.000000
  2H   1pz       -0.000000 -0.000000 -0.000000 -0.038056 -0.021972  0.000000
  2H   1px       -0.000297 -0.011862  0.008582  0.000000 -0.000000  0.032886
  2H   1py        0.000514 -0.008582  0.001952 -0.000000 -0.000000  0.018987
  2H   2pz        0.000000 -0.000000 -0.000000  0.423219  0.244346 -0.000000
  2H   2px        0.401399 -0.095868 -0.496029 -0.000000  0.000000 -0.678982
  2H   2py       -0.695244  0.496033  0.668628 -0.000000  0.000000 -0.392011
  2H   1dz2      -0.034702  0.011898  0.020607 -0.000000 -0.000000  0.000000
  2H   1dxz       0.000000 -0.000000 -0.000000 -0.004211 -0.002952 -0.000000
  2H   1dyz      -0.000000  0.000000  0.000000  0.007814  0.004211 -0.000000
  2H   1dx2y2    -0.018875  0.015864  0.018349 -0.000000 -0.000000 -0.036471
  2H   1dxy      -0.032692  0.018350  0.037052 -0.000000 -0.000000  0.021056
  3H   1s        -0.081701  0.048867 -0.084641  0.000000 -0.000000  0.000000
  3H   2s         1.086697 -0.433428  0.750728 -0.000000  0.000000  0.000001
  3H   3s         1.639061 -1.346078  2.331504 -0.000000  0.000000  0.000000
  3H   1pz        0.000000 -0.000000  0.000000  0.038056 -0.021972 -0.000000
  3H   1px       -0.000297 -0.011862 -0.008582 -0.000000 -0.000000 -0.032886
  3H   1py       -0.000514  0.008582  0.001952 -0.000000  0.000000  0.018987
  3H   2pz        0.000000 -0.000000  0.000000 -0.423219  0.244345  0.000000
  3H   2px        0.401399 -0.095863  0.496030  0.000000  0.000000  0.678982
  3H   2py        0.695244 -0.496026  0.668633 -0.000000 -0.000000 -0.392011
  3H   1dz2      -0.034702  0.011897 -0.020607  0.000000 -0.000000 -0.000000
  3H   1dxz       0.000000 -0.000000  0.000000  0.004211 -0.002952  0.000000
  3H   1dyz       0.000000 -0.000000  0.000000  0.007814 -0.004211 -0.000000
  3H   1dx2y2    -0.018875  0.015864 -0.018349  0.000000 -0.000000  0.036471
  3H   1dxy       0.032692 -0.018349  0.037052 -0.000000  0.000000  0.021056
                     18        19        20        21        22        23   
                   1.06899   1.09330   1.09330   1.16063   1.26878   1.26878
                   0.00000   0.00000   0.00000   0.00000   0.00000   0.00000
                  --------  --------  --------  --------  --------  --------
  0C   1s        -0.012087  0.000000 -0.000000  0.000000 -0.000000 -0.000000
  0C   2s        -0.073838  0.000000 -0.000000  0.000000 -0.000000 -0.000000
  0C   3s         0.113656  0.000000  0.000000 -0.000000 -0.000000 -0.000000
  0C   4s        -2.760085  0.000000 -0.000002  0.000000 -0.000000 -0.000000
  0C   1pz        0.000000 -0.000000  0.000000  0.131508 -0.000000  0.000000
  0C   1px        0.000000 -0.000000 -0.125661  0.000000  0.000000  0.000000
  0C   1py       -0.000000 -0.125661  0.000000 -0.000000  0.000000 -0.000000
  0C   2pz        0.000000 -0.000000 -0.000000  0.669840 -0.000000 -0.000000
  0C   2px        0.000001 -0.000001 -1.149243 -0.000000  0.000000 -0.000000
  0C   2py       -0.000000 -1.149242  0.000001 -0.000000 -0.000000 -0.000000
  0C   3pz        0.000000 -0.000000 -0.000000  0.722401 -0.000000  0.000000
  0C   3px        0.000001 -0.000002 -1.986228 -0.000000  0.000000 -0.000000
  0C   3py       -0.000000 -1.986229  0.000002 -0.000000  0.000000 -0.000000
  0C   1dz2      -0.021775  0.000000 -0.000000  0.000000  0.000000  0.000000
  0C   1dxz      -0.000000  0.000000  0.000000  0.000000  0.029865 -0.000000
  0C   1dyz       0.000000  0.000000 -0.000000 -0.000000 -0.000000 -0.029865
  0C   1dx2y2     0.000000 -0.000000 -0.021221 -0.000000  0.000000 -0.000000
  0C   1dxy      -0.000000  0.021221 -0.000000  0.000000  0.000000  0.000000
  0C   2dz2       1.483362 -0.000000  0.000001 -0.000000  0.000000  0.000000
  0C   2dxz       0.000000 -0.000000  0.000000 -0.000000 -1.637245  0.000004
  0C   2dyz      -0.000000  0.000000  0.000000 -0.000000  0.000004  1.637246
  0C   2dx2y2     0.000000 -0.000001 -1.123115 -0.000000  0.000000 -0.000000
  0C   2dxy       0.000000  1.123114 -0.000001  0.000000  0.000000  0.000000
  0C   1f0       -0.000000  0.000000  0.000000 -0.060749  0.000000  0.000000
  0C   1f+1      -0.000000  0.000000  0.059848  0.000000 -0.000000  0.000000
  0C   1f-1       0.000000  0.059848 -0.000000  0.000000  0.000000  0.000000
  0C   1f+2       0.000000 -0.000000  0.000000 -0.000000 -0.090102  0.000000
  0C   1f-2       0.000000 -0.000000 -0.000000  0.000000 -0.000000 -0.090102
  0C   1f+3       0.117441 -0.000000  0.000000 -0.000000  0.000000  0.000000
  0C   1f-3       0.000000  0.000000 -0.000000  0.000000 -0.000000 -0.000000
  1H   1s         0.009035 -0.000000 -0.044161  0.000000  0.000000 -0.000000
  1H   2s         1.329167  0.000002  2.334031 -0.000000 -0.000000  0.000000
  1H   3s         0.199759  0.000001  0.539728  0.000000  0.000000  0.000000
  1H   1pz        0.000000 -0.000000 -0.000000  0.067019 -0.080428  0.000000
  1H   1px       -0.062206 -0.000000 -0.061269  0.000000  0.000000 -0.000000
  1H   1py       -0.000000 -0.053055  0.000000 -0.000000  0.000000  0.000000
  1H   2pz       -0.000000  0.000000  0.000000 -0.938657  1.443892 -0.000004
  1H   2px        0.066023 -0.000000 -0.080114 -0.000000  0.000000 -0.000000
  1H   2py        0.000000  0.614370 -0.000001  0.000000 -0.000000 -0.000000
  1H   1dz2       0.001305 -0.000000 -0.026127 -0.000000  0.000000 -0.000000
  1H   1dxz      -0.000000 -0.000000 -0.000000  0.023798 -0.085539  0.000000
  1H   1dyz      -0.000000 -0.000000 -0.000000 -0.000000  0.000000  0.020050
  1H   1dx2y2     0.011757  0.000000  0.023183  0.000000 -0.000000  0.000000
  1H   1dxy       0.000000  0.010925 -0.000000 -0.000000  0.000000  0.000000
  2H   1s         0.009035 -0.038244  0.022080  0.000000 -0.000000 -0.000000
  2H   2s         1.329168  2.021327 -1.167016 -0.000000  0.000000  0.000000
  2H   3s         0.199759  0.467418 -0.269864  0.000000  0.000000  0.000000
  2H   1pz        0.000000 -0.000000  0.000000  0.067019  0.040214  0.069653
  2H   1px        0.031103  0.003557 -0.055108 -0.000000 -0.000000  0.000000
  2H   1py       -0.053872 -0.059216  0.003557  0.000000 -0.000000 -0.000000
  2H   2pz       -0.000000  0.000000 -0.000000 -0.938658 -0.721948 -1.250445
  2H   2px       -0.033012  0.300720  0.440748  0.000000  0.000000  0.000000
  2H   2py        0.057178  0.093507  0.300720 -0.000000 -0.000000 -0.000000
  2H   1dz2       0.001305 -0.022627  0.013064 -0.000000 -0.000000 -0.000000
  2H   1dxz       0.000000  0.000000 -0.000000 -0.011899 -0.036422 -0.028358
  2H   1dyz      -0.000000 -0.000000  0.000000  0.020610  0.028358  0.069167
  2H   1dx2y2    -0.005878 -0.014769 -0.002398  0.000000  0.000000 -0.000000
  2H   1dxy      -0.010182 -0.014656  0.014769  0.000000 -0.000000 -0.000000
  3H   1s         0.009035  0.038244  0.022080  0.000000 -0.000000  0.000000
  3H   2s         1.329168 -2.021329 -1.167012 -0.000000  0.000000 -0.000000
  3H   3s         0.199759 -0.467419 -0.269863 -0.000000 -0.000000  0.000000
  3H   1pz        0.000000  0.000000  0.000000  0.067019  0.040214 -0.069653
  3H   1px        0.031103 -0.003557 -0.055108 -0.000000 -0.000000 -0.000000
  3H   1py        0.053872 -0.059216 -0.003557 -0.000000  0.000000 -0.000000
  3H   2pz       -0.000000 -0.000000 -0.000000 -0.938658 -0.721942  1.250449
  3H   2px       -0.033012 -0.300719  0.440749  0.000000  0.000000 -0.000000
  3H   2py       -0.057178  0.093506 -0.300720  0.000000  0.000000 -0.000000
  3H   1dz2       0.001305  0.022627  0.013064 -0.000000 -0.000000  0.000000
  3H   1dxz       0.000000 -0.000000 -0.000000 -0.011899 -0.036422  0.028358
  3H   1dyz       0.000000 -0.000000 -0.000000 -0.020610 -0.028358  0.069167
  3H   1dx2y2    -0.005878  0.014769 -0.002398  0.000000  0.000000  0.000000
  3H   1dxy       0.010182 -0.014656 -0.014769 -0.000000  0.000000 -0.000000
                     24        25        26        27        28        29   
                   1.44350   1.44350   1.55054   1.55054   1.82560   2.36589
                   0.00000   0.00000   0.00000   0.00000   0.00000   0.00000
                  --------  --------  --------  --------  --------  --------
  0C   1s        -0.000000  0.000000  0.000000 -0.000000  0.491138  0.000000
  0C   2s        -0.000000  0.000000  0.000000  0.000000  1.596260  0.000000
  0C   3s         0.000000  0.000000  0.000000 -0.000000  0.853592  0.000000
  0C   4s        -0.000001  0.000000 -0.000001  0.000000  3.998051  0.000000
  0C   1pz       -0.000000 -0.000000 -0.000000  0.000000 -0.000000 -1.275922
  0C   1px        0.101147 -0.000001 -0.238409  0.000002  0.000000  0.000000
  0C   1py       -0.000001 -0.101148  0.000002  0.238409 -0.000000  0.000000
  0C   2pz        0.000000 -0.000000 -0.000000 -0.000000 -0.000000  1.651455
  0C   2px        4.128059 -0.000027 -3.833624  0.000039 -0.000000 -0.000000
  0C   2py       -0.000027 -4.128062  0.000039  3.833623 -0.000000 -0.000000
  0C   3pz        0.000000 -0.000000 -0.000000  0.000000 -0.000000 -0.455574
  0C   3px        1.030658 -0.000007 -2.084457  0.000021  0.000000  0.000000
  0C   3py       -0.000007 -1.030660  0.000021  2.084457 -0.000000  0.000000
  0C   1dz2       0.000000 -0.000000  0.000000 -0.000000  0.131857 -0.000000
  0C   1dxz      -0.000000 -0.000000  0.000000  0.000000  0.000000  0.000000
  0C   1dyz      -0.000000  0.000000 -0.000000 -0.000000  0.000000  0.000000
  0C   1dx2y2     0.094271 -0.000001 -0.071851  0.000001  0.000000  0.000000
  0C   1dxy       0.000001  0.094271 -0.000001 -0.071850 -0.000000  0.000000
  0C   2dz2       0.000001 -0.000000  0.000000 -0.000000 -0.875174 -0.000000
  0C   2dxz       0.000000  0.000000  0.000000 -0.000000 -0.000000  0.000000
  0C   2dyz       0.000000 -0.000000  0.000000 -0.000000  0.000000 -0.000000
  0C   2dx2y2     3.831080 -0.000025 -0.344126  0.000003 -0.000001 -0.000000
  0C   2dxy       0.000025  3.831080 -0.000003 -0.344123  0.000000  0.000000
  0C   1f0       -0.000000  0.000000 -0.000000  0.000000 -0.000000  0.076884
  0C   1f+1      -0.171706  0.000001  0.083836 -0.000001  0.000000 -0.000000
  0C   1f-1       0.000001  0.171706 -0.000001 -0.083836  0.000000 -0.000000
  0C   1f+2      -0.000000  0.000000  0.000000 -0.000000  0.000000 -0.000000
  0C   1f-2      -0.000000 -0.000000  0.000000  0.000000  0.000000  0.000000
  0C   1f+3      -0.000000  0.000000  0.000000 -0.000000  0.200745 -0.000000
  0C   1f-3      -0.000000 -0.000000  0.000000  0.000000  0.000000 -0.000000
  1H   1s         0.147009 -0.000001  0.110217 -0.000001 -0.243617  0.000000
  1H   2s        -5.925096  0.000039  3.398115 -0.000035 -1.280981 -0.000000
  1H   3s        -0.315225  0.000002  1.848865 -0.000019 -0.894416 -0.000000
  1H   1pz        0.000000  0.000000  0.000000 -0.000000  0.000000  0.007441
  1H   1px        0.048271 -0.000000  0.073427 -0.000001 -0.156053  0.000000
  1H   1py        0.000001  0.088941  0.000001  0.073989 -0.000000  0.000000
  1H   2pz       -0.000000 -0.000000 -0.000000  0.000000 -0.000000 -0.203422
  1H   2px        2.659367 -0.000017 -2.715929  0.000028  1.206093  0.000000
  1H   2py       -0.000010 -1.591644 -0.000010 -0.975464 -0.000000 -0.000000
  1H   1dz2       0.063709 -0.000000 -0.067334  0.000001 -0.024772  0.000000
  1H   1dxz       0.000000  0.000000 -0.000000 -0.000000 -0.000000  0.039178
  1H   1dyz       0.000000 -0.000000 -0.000000 -0.000000  0.000000 -0.000000
  1H   1dx2y2    -0.142806  0.000001  0.121988 -0.000001  0.041880 -0.000000
  1H   1dxy       0.000000  0.047944  0.000000  0.038721  0.000000 -0.000000
  2H   1s        -0.073505 -0.127313 -0.055109 -0.095450 -0.243617  0.000000
  2H   2s         2.962583  5.131266 -1.699087 -2.942834 -1.280983 -0.000000
  2H   3s         0.157614  0.272993 -0.924449 -1.601155 -0.894415 -0.000000
  2H   1pz       -0.000000 -0.000000 -0.000000 -0.000000  0.000000  0.007441
  2H   1px       -0.054638  0.059415 -0.037134  0.063834  0.078027 -0.000000
  2H   1py       -0.059415 -0.013967 -0.063834 -0.036572 -0.135146  0.000000
  2H   2pz        0.000000  0.000000  0.000000  0.000000 -0.000000 -0.203421
  2H   2px        1.858578  0.462325  0.052599 -1.598420 -0.603047 -0.000000
  2H   2py       -0.462353 -2.392434  1.598438  1.793064  1.044507  0.000000
  2H   1dz2      -0.031855 -0.055173  0.033668  0.058313 -0.024772  0.000000
  2H   1dxz       0.000000  0.000000 -0.000000 -0.000000  0.000000 -0.019589
  2H   1dyz      -0.000000 -0.000000  0.000000  0.000000 -0.000000  0.033929
  2H   1dx2y2     0.000256 -0.082597  0.059538  0.036055 -0.020940  0.000000
  2H   1dxy      -0.082598 -0.095118  0.036057  0.101171 -0.036269  0.000000
  3H   1s        -0.073504  0.127314 -0.055107  0.095451 -0.243617  0.000000
  3H   2s         2.962515 -5.131305 -1.699027  2.942868 -1.280983 -0.000000
  3H   3s         0.157611 -0.272995 -0.924416  1.601173 -0.894415 -0.000000
  3H   1pz       -0.000000  0.000000 -0.000000  0.000000  0.000000  0.007441
  3H   1px       -0.054639 -0.059414 -0.037136 -0.063833  0.078027 -0.000000
  3H   1py        0.059415 -0.013968  0.063833 -0.036574  0.135146 -0.000000
  3H   2pz        0.000000 -0.000000  0.000000 -0.000000 -0.000000 -0.203421
  3H   2px        1.858572 -0.462350  0.052632  1.598419 -0.603047 -0.000000
  3H   2py        0.462322 -2.392440 -1.598402  1.793096 -1.044507 -0.000000
  3H   1dz2      -0.031854  0.055174  0.033666 -0.058313 -0.024772  0.000000
  3H   1dxz       0.000000 -0.000000 -0.000000  0.000000  0.000000 -0.019589
  3H   1dyz       0.000000 -0.000000 -0.000000  0.000000 -0.000000 -0.033929
  3H   1dx2y2     0.000257  0.082597  0.059538 -0.036056 -0.020940  0.000000
  3H   1dxy       0.082596 -0.095119 -0.036054  0.101172  0.036269 -0.000000
                     30        31        32        33        34        35   
                   2.38366   2.53707   2.53707   2.84056   2.84056   2.91161
                   0.00000   0.00000   0.00000   0.00000   0.00000   0.00000
                  --------  --------  --------  --------  --------  --------
  0C   1s        -0.499690 -0.000000 -0.000000  0.000000 -0.000000 -0.000000
  0C   2s        -1.559341 -0.000000 -0.000000  0.000000 -0.000000 -0.000000
  0C   3s        -0.924279 -0.000000 -0.000000  0.000000 -0.000000  0.000000
  0C   4s        -4.415400  0.000000 -0.000000 -0.000000 -0.000000 -0.000000
  0C   1pz       -0.000000  0.000000  0.000000  0.000000  0.000000  0.000000
  0C   1px        0.000000 -0.000001 -0.125859 -0.000001  1.111734 -0.000000
  0C   1py       -0.000000 -0.125859  0.000001  1.111734  0.000001 -0.000000
  0C   2pz        0.000000 -0.000000 -0.000000 -0.000000 -0.000000 -0.000000
  0C   2px       -0.000001  0.000015  2.061084  0.000005 -5.486794  0.000000
  0C   2py        0.000000  2.061085 -0.000015 -5.486793 -0.000005  0.000000
  0C   3pz       -0.000000  0.000000  0.000000  0.000000 -0.000000  0.000000
  0C   3px       -0.000001  0.000007  0.916617  0.000001 -0.828246  0.000000
  0C   3py        0.000000  0.916619 -0.000007 -0.828246 -0.000001  0.000000
  0C   1dz2       0.264753  0.000000  0.000000 -0.000000 -0.000000  0.000000
  0C   1dxz       0.000000 -0.000000 -0.000000  0.000000  0.000000  0.000000
  0C   1dyz      -0.000000 -0.000000  0.000000  0.000000 -0.000000  0.607425
  0C   1dx2y2    -0.000000  0.000002  0.280860  0.000000 -0.042007  0.000000
  0C   1dxy      -0.000000 -0.280860  0.000002  0.042007  0.000000 -0.000000
  0C   2dz2       0.739987 -0.000000 -0.000000  0.000000  0.000000 -0.000000
  0C   2dxz       0.000000 -0.000000 -0.000000 -0.000000  0.000000 -0.000000
  0C   2dyz       0.000000 -0.000000 -0.000000  0.000000 -0.000000 -0.198789
  0C   2dx2y2    -0.000000 -0.000002 -0.256935  0.000002 -1.750430  0.000000
  0C   2dxy       0.000000  0.256935 -0.000002  1.750429  0.000002  0.000000
  0C   1f0       -0.000000  0.000000 -0.000000 -0.000000  0.000000 -0.000000
  0C   1f+1       0.000000 -0.000004 -0.579431  0.000000 -0.158482 -0.000000
  0C   1f-1      -0.000000 -0.579431  0.000004 -0.158482 -0.000000 -0.000000
  0C   1f+2      -0.000000  0.000000 -0.000000 -0.000000 -0.000000  0.000000
  0C   1f-2      -0.000000  0.000000  0.000000  0.000000 -0.000000 -0.447202
  0C   1f+3       0.544349  0.000000  0.000000  0.000000 -0.000000 -0.000000
  0C   1f-3      -0.000000  0.000000 -0.000000 -0.000000  0.000000 -0.000000
  1H   1s        -0.532006  0.000007  0.902253  0.000000 -0.423028  0.000000
  1H   2s         2.515941 -0.000020 -2.751418 -0.000005  5.277189 -0.000000
  1H   3s         0.530864 -0.000000 -0.061601 -0.000000  0.130721  0.000000
  1H   1pz       -0.000000 -0.000000 -0.000000  0.000000  0.000000  0.000000
  1H   1px       -0.041467  0.000001  0.126091  0.000000 -0.193563  0.000000
  1H   1py        0.000000 -0.000605  0.000000 -0.089473 -0.000000 -0.000000
  1H   2pz       -0.000000  0.000000  0.000000 -0.000000  0.000000 -0.000000
  1H   2px       -0.984429  0.000007  1.006514  0.000002 -2.286632  0.000000
  1H   2py       -0.000000 -0.671731  0.000005  0.102580  0.000000 -0.000000
  1H   1dz2      -0.038874 -0.000000 -0.048802  0.000000 -0.290041  0.000000
  1H   1dxz       0.000000  0.000000  0.000000 -0.000000 -0.000000 -0.000000
  1H   1dyz      -0.000000  0.000000  0.000000  0.000000 -0.000000 -0.154985
  1H   1dx2y2     0.026806 -0.000001 -0.165409 -0.000000  0.132611 -0.000000
  1H   1dxy       0.000000  0.030463 -0.000000  0.037704  0.000000 -0.000000
  2H   1s        -0.532006  0.781371 -0.451132 -0.366353  0.211514  0.000000
  2H   2s         2.515939 -2.382790  1.375727  4.570181 -2.638590 -0.000000
  2H   3s         0.530864 -0.053348  0.030801  0.113208 -0.065360 -0.000000
  2H   1pz        0.000000 -0.000000  0.000000  0.000000 -0.000000  0.251495
  2H   1px        0.020734 -0.054861  0.031070  0.045073 -0.115495 -0.000000
  2H   1py       -0.035912  0.094417 -0.054862 -0.167541  0.045072  0.000000
  2H   2pz       -0.000000  0.000000 -0.000000  0.000000 -0.000000 -0.247661
  2H   2px        0.492214 -0.726704 -0.252165  1.034559 -0.494722 -0.000000
  2H   2py       -0.852540  0.586948 -0.726706 -1.689330  1.034557  0.000000
  2H   1dz2      -0.038874 -0.042263  0.024401 -0.251183  0.145020 -0.000000
  2H   1dxz      -0.000000  0.000000  0.000000  0.000000  0.000000  0.030495
  2H   1dyz       0.000000  0.000000 -0.000000 -0.000000  0.000000 -0.207804
  2H   1dx2y2    -0.013403  0.058433 -0.064200 -0.073749  0.004874  0.000000
  2H   1dxy      -0.023214  0.131672 -0.058434 -0.090032  0.073749  0.000000
  3H   1s        -0.532006 -0.781377 -0.451121  0.366353  0.211514 -0.000000
  3H   2s         2.515939  2.382810  1.375692 -4.570176 -2.638599  0.000000
  3H   3s         0.530864  0.053349  0.030800 -0.113208 -0.065360  0.000000
  3H   1pz        0.000000  0.000000  0.000000 -0.000000 -0.000000 -0.251495
  3H   1px        0.020734  0.054861  0.031069 -0.045072 -0.115495  0.000000
  3H   1py        0.035912  0.094418  0.054861 -0.167540 -0.045073  0.000000
  3H   2pz       -0.000000 -0.000000 -0.000000 -0.000000 -0.000000  0.247661
  3H   2px        0.492214  0.726700 -0.252175 -1.034558 -0.494724  0.000000
  3H   2py        0.852540  0.586958  0.726697 -1.689328 -1.034560  0.000000
  3H   1dz2      -0.038874  0.042264  0.024401  0.251183  0.145021  0.000000
  3H   1dxz      -0.000000 -0.000000  0.000000 -0.000000  0.000000 -0.030495
  3H   1dyz      -0.000000  0.000000 -0.000000 -0.000000 -0.000000 -0.207804
  3H   1dx2y2    -0.013403 -0.058434 -0.064199  0.073749  0.004875 -0.000000
  3H   1dxy       0.023214  0.131673  0.058432 -0.090032 -0.073749  0.000000
                     36        37        38        39        40        41   
                   2.91161   3.16720   3.19829   3.21995   3.23172   3.23172
                   0.00000   0.00000   0.00000   0.00000   0.00000   0.00000
                  --------  --------  --------  --------  --------  --------
  0C   1s         0.000000 -0.000000  0.000000  0.080624  0.000000  0.000000
  0C   2s         0.000000 -0.000000  0.000000  0.281044  0.000000 -0.000000
  0C   3s         0.000000 -0.000000 -0.000000 -0.051185 -0.000000  0.000000
  0C   4s         0.000000 -0.000000  0.000000  1.206892 -0.000000 -0.000000
  0C   1pz       -0.000000 -0.000000  0.213938 -0.000000  0.000000 -0.000000
  0C   1px       -0.000000 -0.000000 -0.000000 -0.000000  0.168702  0.000002
  0C   1py        0.000000  0.000001  0.000000  0.000000 -0.000002  0.168702
  0C   2pz        0.000000  0.000000 -0.518062  0.000000 -0.000000  0.000000
  0C   2px       -0.000000  0.000000  0.000000  0.000001 -0.730204 -0.000007
  0C   2py       -0.000000 -0.000004 -0.000000 -0.000000  0.000007 -0.730204
  0C   3pz       -0.000000  0.000000 -0.302682  0.000000 -0.000000  0.000000
  0C   3px       -0.000000  0.000000 -0.000000  0.000000  0.480190  0.000004
  0C   3py       -0.000000 -0.000000 -0.000000  0.000000 -0.000004  0.480190
  0C   1dz2      -0.000000  0.000000  0.000000  0.971854  0.000000 -0.000000
  0C   1dxz      -0.607426  0.000000 -0.000000  0.000000 -0.000000 -0.000000
  0C   1dyz       0.000000 -0.000000  0.000000 -0.000000 -0.000000 -0.000000
  0C   1dx2y2    -0.000000  0.000000  0.000000  0.000000 -0.889228 -0.000008
  0C   1dxy       0.000000  0.000001  0.000000  0.000000 -0.000008  0.889228
  0C   2dz2      -0.000000 -0.000000 -0.000000 -1.036497 -0.000000  0.000000
  0C   2dxz       0.198789 -0.000000  0.000000 -0.000000  0.000000  0.000000
  0C   2dyz      -0.000000  0.000000  0.000000  0.000000  0.000000  0.000000
  0C   2dx2y2     0.000000  0.000000 -0.000000 -0.000000  1.472317  0.000013
  0C   2dxy       0.000000  0.000000 -0.000000 -0.000000  0.000013 -1.472318
  0C   1f0        0.000000 -0.000000  0.988321 -0.000000  0.000000 -0.000000
  0C   1f+1       0.000000  0.000000  0.000000  0.000000 -0.358666 -0.000003
  0C   1f-1       0.000000 -0.000000 -0.000000 -0.000000  0.000003 -0.358665
  0C   1f+2      -0.447202 -0.000000  0.000000 -0.000000  0.000000  0.000000
  0C   1f-2      -0.000000 -0.000000 -0.000000 -0.000000 -0.000000 -0.000000
  0C   1f+3      -0.000000 -0.000000 -0.000000 -0.506579 -0.000000  0.000000
  0C   1f-3       0.000000  0.946779  0.000000 -0.000000  0.000000 -0.000001
  1H   1s        -0.000000  0.000000 -0.000000 -0.079714 -0.207836 -0.000002
  1H   2s         0.000000 -0.000000 -0.000000 -0.652207 -0.158934 -0.000001
  1H   3s         0.000000 -0.000000 -0.000000 -0.088406 -0.062021 -0.000001
  1H   1pz       -0.290401  0.000000 -0.192340  0.000000 -0.000000  0.000000
  1H   1px       -0.000000 -0.000000  0.000000  0.318860  0.362568  0.000003
  1H   1py       -0.000000 -0.297918 -0.000000  0.000000 -0.000002  0.242319
  1H   2pz        0.285974 -0.000000  0.502981 -0.000000 -0.000000 -0.000000
  1H   2px        0.000000  0.000000 -0.000000 -0.099913 -0.688853 -0.000006
  1H   2py        0.000000  0.530615  0.000000  0.000000 -0.000004  0.425874
  1H   1dz2       0.000000 -0.000000 -0.000000  0.066681  0.014786  0.000000
  1H   1dxz       0.225411 -0.000000  0.018852  0.000000  0.000000  0.000000
  1H   1dyz      -0.000000 -0.000000 -0.000000 -0.000000 -0.000000 -0.000000
  1H   1dx2y2     0.000000 -0.000000 -0.000000  0.021252  0.020729  0.000000
  1H   1dxy      -0.000000 -0.032246 -0.000000 -0.000000  0.000002 -0.238729
  2H   1s         0.000000 -0.000000 -0.000000 -0.079714  0.103920 -0.179990
  2H   2s        -0.000000  0.000002 -0.000000 -0.652207  0.079468 -0.137640
  2H   3s        -0.000000  0.000000 -0.000000 -0.088406  0.031011 -0.053711
  2H   1pz        0.145201  0.000000 -0.192340  0.000000  0.000000 -0.000000
  2H   1px       -0.000000  0.258005 -0.000000 -0.159430  0.272381 -0.052067
  2H   1py        0.000000  0.148959  0.000000  0.276141 -0.052073  0.332505
  2H   2pz       -0.142987 -0.000000  0.502982 -0.000000  0.000000 -0.000000
  2H   2px        0.000000 -0.459525  0.000000  0.049957  0.147188  0.482693
  2H   2py        0.000000 -0.265309 -0.000000 -0.086528  0.482695 -0.410166
  2H   1dz2      -0.000000  0.000000 -0.000000  0.066681 -0.007393  0.012805
  2H   1dxz       0.172591  0.000000 -0.009426 -0.000000  0.000000 -0.000000
  2H   1dyz      -0.030495  0.000000  0.016326  0.000000 -0.000000  0.000000
  2H   1dx2y2     0.000000 -0.027926  0.000000 -0.010626  0.184228  0.094398
  2H   1dxy       0.000000  0.016123  0.000000 -0.018405 -0.094396 -0.075230
  3H   1s         0.000000  0.000000 -0.000000 -0.079714  0.103917  0.179992
  3H   2s        -0.000000 -0.000002 -0.000000 -0.652207  0.079465  0.137641
  3H   3s        -0.000000 -0.000000 -0.000000 -0.088406  0.031010  0.053712
  3H   1pz        0.145201  0.000000 -0.192340  0.000000  0.000000  0.000000
  3H   1px       -0.000000 -0.258005 -0.000000 -0.159430  0.272380  0.052072
  3H   1py       -0.000000  0.148959 -0.000000 -0.276141  0.052067  0.332506
  3H   2pz       -0.142987 -0.000000  0.502982 -0.000000  0.000000  0.000000
  3H   2px        0.000000  0.459525  0.000000  0.049957  0.147197 -0.482690
  3H   2py       -0.000000 -0.265309  0.000000  0.086528 -0.482687 -0.410175
  3H   1dz2      -0.000000 -0.000000 -0.000000  0.066681 -0.007393 -0.012805
  3H   1dxz       0.172591 -0.000000 -0.009426  0.000000  0.000000  0.000000
  3H   1dyz       0.030495  0.000000 -0.016326 -0.000000  0.000000  0.000000
  3H   1dx2y2     0.000000  0.027926  0.000000 -0.010626  0.184229 -0.094395
  3H   1dxy      -0.000000  0.016123 -0.000000  0.018405  0.094397 -0.075228
                     42        43        44        45        46        47   
                   3.27159   3.27159   3.49961   3.54812   3.69606   3.69606
                   0.00000   0.00000   0.00000   0.00000   0.00000   0.00000
                  --------  --------  --------  --------  --------  --------
  0C   1s         0.000000  0.000000 -0.000000 -0.041791  0.000000 -0.000000
  0C   2s         0.000000  0.000000 -0.000000  0.107182  0.000000 -0.000000
  0C   3s        -0.000000 -0.000000  0.000000  0.362199  0.000000 -0.000000
  0C   4s         0.000000  0.000000 -0.000000  1.066149 -0.000000 -0.000000
  0C   1pz        0.000000 -0.000000  0.000000  0.000000  0.000000 -0.000000
  0C   1px        0.000000  0.000000 -0.000000  0.000000 -0.000005  0.735020
  0C   1py        0.000000  0.000000 -0.000000 -0.000000  0.735020  0.000005
  0C   2pz        0.000000  0.000000 -0.000000 -0.000000  0.000000 -0.000000
  0C   2px       -0.000000 -0.000000  0.000000 -0.000002  0.000039 -5.399624
  0C   2py        0.000000 -0.000000  0.000000  0.000000 -5.399626 -0.000039
  0C   3pz       -0.000000  0.000000 -0.000000 -0.000000  0.000000 -0.000000
  0C   3px       -0.000000 -0.000000  0.000000 -0.000000  0.000010 -1.340892
  0C   3py        0.000000 -0.000000  0.000000  0.000000 -1.340892 -0.000010
  0C   1dz2       0.000000  0.000000 -0.000000 -0.167848 -0.000000  0.000000
  0C   1dxz       0.000002 -0.742880 -0.000000 -0.000000  0.000000  0.000000
  0C   1dyz       0.742880  0.000002  0.000000  0.000000  0.000000 -0.000000
  0C   1dx2y2    -0.000000  0.000000  0.000000 -0.000000  0.000001 -0.134468
  0C   1dxy       0.000000 -0.000000 -0.000000  0.000000  0.134468  0.000001
  0C   2dz2      -0.000000 -0.000000  0.000000 -0.431946  0.000000  0.000000
  0C   2dxz      -0.000003  1.270958  0.000000  0.000000 -0.000000  0.000000
  0C   2dyz      -1.270958 -0.000003 -0.000001 -0.000000  0.000000  0.000000
  0C   2dx2y2     0.000000 -0.000000  0.000000 -0.000000  0.000018 -2.455548
  0C   2dxy      -0.000000  0.000000 -0.000000 -0.000000  2.455548  0.000018
  0C   1f0        0.000000 -0.000000  0.000000  0.000000 -0.000000 -0.000000
  0C   1f+1      -0.000000 -0.000000 -0.000000  0.000000 -0.000004  0.511644
  0C   1f-1       0.000000  0.000000 -0.000000 -0.000000  0.511643  0.000004
  0C   1f+2      -0.000002  0.764827  0.000000  0.000000 -0.000000  0.000000
  0C   1f-2       0.764827  0.000002  0.000000  0.000000 -0.000000  0.000000
  0C   1f+3      -0.000000 -0.000000 -0.000000 -0.384382  0.000000  0.000000
  0C   1f-3       0.000000  0.000000  0.000000 -0.000000 -0.000000 -0.000000
  1H   1s        -0.000000  0.000000 -0.000000 -0.433411 -0.000004  0.587864
  1H   2s         0.000000  0.000000 -0.000000 -0.038145 -0.000035  4.851019
  1H   3s        -0.000000  0.000000 -0.000000 -0.288500 -0.000007  0.940882
  1H   1pz        0.000000 -0.080710 -0.000000 -0.000000  0.000000  0.000000
  1H   1px        0.000000 -0.000000 -0.000000 -0.165270 -0.000002  0.241772
  1H   1py        0.000000 -0.000000 -0.000000  0.000000 -0.132711 -0.000001
  1H   2pz        0.000002 -0.748794 -0.000000  0.000000  0.000000  0.000000
  1H   2px       -0.000000 -0.000000  0.000000  0.251087  0.000019 -2.702704
  1H   2py        0.000000  0.000000  0.000000  0.000000 -0.140168 -0.000001
  1H   1dz2       0.000000 -0.000000  0.000000  0.470488 -0.000001  0.093010
  1H   1dxz      -0.000001  0.224968 -0.000000  0.000000  0.000000 -0.000000
  1H   1dyz       0.319362  0.000001  0.580567 -0.000000 -0.000000 -0.000000
  1H   1dx2y2    -0.000000 -0.000000 -0.000000  0.017668 -0.000005  0.651478
  1H   1dxy      -0.000000 -0.000000  0.000000  0.000000 -0.090590 -0.000001
  2H   1s        -0.000000 -0.000000  0.000000 -0.433411  0.509107 -0.293928
  2H   2s        -0.000000 -0.000000 -0.000000 -0.038147  4.201124 -2.425479
  2H   3s        -0.000000 -0.000000 -0.000000 -0.288500  0.814831 -0.470435
  2H   1pz        0.069897  0.040355 -0.000000 -0.000000  0.000000 -0.000000
  2H   1px       -0.000000 -0.000000  0.000000  0.082635 -0.162156 -0.039092
  2H   1py        0.000000  0.000000  0.000000 -0.143128  0.148152 -0.162155
  2H   2pz        0.648473  0.374398  0.000000  0.000000  0.000000 -0.000000
  2H   2px        0.000000 -0.000000 -0.000000 -0.125544  1.109616 -0.780793
  2H   2py        0.000000 -0.000000 -0.000000  0.217449 -2.062078  1.109596
  2H   1dz2       0.000000  0.000000  0.000000  0.470488  0.080550 -0.046505
  2H   1dxz       0.235702 -0.183279 -0.502786 -0.000000 -0.000000 -0.000000
  2H   1dyz      -0.088885 -0.235702 -0.290283  0.000000 -0.000000 -0.000000
  2H   1dx2y2     0.000000 -0.000000  0.000000 -0.008834 -0.242873  0.230810
  2H   1dxy      -0.000000  0.000000 -0.000000 -0.015301 -0.511258  0.242868
  3H   1s         0.000000 -0.000000 -0.000000 -0.433411 -0.509103 -0.293935
  3H   2s         0.000000 -0.000000  0.000000 -0.038147 -4.201089 -2.425540
  3H   3s         0.000000 -0.000000  0.000000 -0.288500 -0.814824 -0.470447
  3H   1pz       -0.069897  0.040355  0.000000 -0.000000  0.000000 -0.000000
  3H   1px        0.000000 -0.000000 -0.000000  0.082635  0.162156 -0.039089
  3H   1py        0.000000 -0.000000  0.000000  0.143128  0.148150  0.162157
  3H   2pz       -0.648475  0.374395 -0.000000  0.000000 -0.000000 -0.000000
  3H   2px       -0.000000 -0.000000  0.000000 -0.125544 -1.109605 -0.780809
  3H   2py       -0.000000  0.000000 -0.000000 -0.217449 -2.062062 -1.109625
  3H   1dz2      -0.000000  0.000000  0.000000  0.470488 -0.080549 -0.046506
  3H   1dxz      -0.235701 -0.183280  0.502786 -0.000000  0.000000 -0.000000
  3H   1dyz      -0.088886  0.235701 -0.290283 -0.000000 -0.000000  0.000000
  3H   1dx2y2     0.000000 -0.000000 -0.000000 -0.008834  0.242870  0.230814
  3H   1dxy      -0.000000 -0.000000 -0.000000  0.015301 -0.511254 -0.242875
                     48        49        50        51        52        53   
                   3.91872   3.91872   3.96653   3.96654   4.17359   4.22351
                   0.00000   0.00000   0.00000   0.00000   0.00000   0.00000
                  --------  --------  --------  --------  --------  --------
  0C   1s        -0.000000 -0.000000  0.000000  0.000000  0.000000 -0.000000
  0C   2s        -0.000000 -0.000000 -0.000000 -0.000000  0.000000 -0.000000
  0C   3s        -0.000000 -0.000000 -0.000000  0.000000  0.000000 -0.000000
  0C   4s        -0.000000 -0.000000 -0.000000 -0.000000  0.000000 -0.000000
  0C   1pz        0.000000 -0.000000  0.000000 -0.000000  0.000000 -0.060684
  0C   1px       -0.000000 -0.000000 -0.067753 -0.000000  0.000000 -0.000000
  0C   1py       -0.000000  0.000000  0.000000 -0.067753 -0.000000  0.000000
  0C   2pz       -0.000000 -0.000000 -0.000000  0.000000  0.000000 -0.476332
  0C   2px       -0.000000  0.000000 -0.059359 -0.000000 -0.000000 -0.000000
  0C   2py        0.000000  0.000000  0.000000 -0.059360  0.000001 -0.000000
  0C   3pz        0.000000 -0.000000 -0.000000  0.000000  0.000000 -0.311334
  0C   3px       -0.000000 -0.000000 -0.401875 -0.000002  0.000000  0.000000
  0C   3py        0.000000  0.000000  0.000002 -0.401875 -0.000000 -0.000000
  0C   1dz2      -0.000000 -0.000000 -0.000000 -0.000000 -0.000000 -0.000000
  0C   1dxz       0.192352  0.000000 -0.000000  0.000000  0.000000  0.000000
  0C   1dyz       0.000000 -0.192352 -0.000000 -0.000000 -0.000000  0.000000
  0C   1dx2y2    -0.000000  0.000000 -0.346852 -0.000002 -0.000000 -0.000000
  0C   1dxy      -0.000000 -0.000000 -0.000002  0.346852  0.000000  0.000000
[...]
 ===============================================================================
    None exceeding thresholds


 NATURAL BOND ORBITALS (Summary):

           NBO                 Occupancy
 ========================================
 Molecular unit  1  (CH3)
 ------ Lewis ---------------------------
    1. CR ( 1) C  1             0.99958
    2. BD ( 1) C  1- H  2       0.98565
    3. BD ( 1) C  1- H  3       0.98565
    4. BD ( 1) C  1- H  4       0.98565
 ------ non-Lewis -----------------------
    5. LV ( 1) C  1             0.00355
    6. BD*( 1) C  1- H  2       0.00591
    7. BD*( 1) C  1- H  3       0.00591
    8. BD*( 1) C  1- H  4       0.00591
    9. RY ( 1) C  1             0.00300
   10. RY ( 2) C  1             0.00300
   11. RY ( 3) C  1             0.00156
   12. RY ( 4) C  1             0.00127
   13. RY ( 5) C  1             0.00127
   14. RY ( 6) C  1             0.00073
   15. RY ( 7) C  1             0.00073
   16. RY ( 8) C  1             0.00036
   17. RY ( 9) C  1             0.00029
   18. RY (10) C  1             0.00021
   19. RY (11) C  1             0.00018
   20. RY (12) C  1             0.00015
   21. RY (13) C  1             0.00015
   22. RY (14) C  1             0.00014
   23. RY (15) C  1             0.00014
   24. RY (16) C  1             0.00011
   25. RY (17) C  1             0.00009
   26. RY (18) C  1             0.00009
   27. RY (19) C  1             0.00008
   28. RY (20) C  1             0.00006
   29. RY (21) C  1             0.00006
   30. RY (22) C  1             0.00004
   31. RY (23) C  1             0.00004
   32. RY (24) C  1             0.00003
   33. RY (25) C  1             0.00002
   34. RY ( 1) H  2             0.00119
   35. RY ( 2) H  2             0.00056
   36. RY ( 3) H  2             0.00050
   37. RY ( 4) H  2             0.00020
   38. RY ( 5) H  2             0.00008
   39. RY ( 6) H  2             0.00007
   40. RY ( 7) H  2             0.00004
   41. RY ( 8) H  2             0.00004
   42. RY ( 9) H  2             0.00004
   43. RY (10) H  2             0.00003
   44. RY (11) H  2             0.00003
   45. RY (12) H  2             0.00002
   46. RY (13) H  2             0.00002
   47. RY ( 1) H  3             0.00119
   48. RY ( 2) H  3             0.00056
   49. RY ( 3) H  3             0.00050
   50. RY ( 4) H  3             0.00020
   51. RY ( 5) H  3             0.00008
   52. RY ( 6) H  3             0.00007
   53. RY ( 7) H  3             0.00004
   54. RY ( 8) H  3             0.00004
   55. RY ( 9) H  3             0.00004
   56. RY (10) H  3             0.00003
   57. RY (11) H  3             0.00003
   58. RY (12) H  3             0.00002
   59. RY (13) H  3             0.00002
   60. RY ( 1) H  4             0.00119
   61. RY ( 2) H  4             0.00056
   62. RY ( 3) H  4             0.00050
   63. RY ( 4) H  4             0.00020
   64. RY ( 5) H  4             0.00008
   65. RY ( 6) H  4             0.00007
   66. RY ( 7) H  4             0.00004
   67. RY ( 8) H  4             0.00004
   68. RY ( 9) H  4             0.00004
   69. RY (10) H  4             0.00003
   70. RY (11) H  4             0.00003
   71. RY (12) H  4             0.00002
   72. RY (13) H  4             0.00002
          -------------------------------
                 Total Lewis    3.95651  ( 98.9128%)
           Valence non-Lewis    0.02128  (  0.5320%)
           Rydberg non-Lewis    0.02221  (  0.5552%)
          -------------------------------
               Total unit  1    4.00000  (100.0000%)
              Charge unit  1    0.50000

 $CHOOSE
  ALPHA
   LONE 1 1 END
   BOND S 1 2 S 1 3 S 1 4 END
  END
  BETA
   BOND S 1 2 S 1 3 S 1 4 END
  END
 $END

 NBO analysis completed in 0.11 CPU seconds (1 wall second)
 Maximum scratch memory used by NBO was 437459 words (3.34 MB)
Stopping NBO...Storing NBOs: CH3·.pmp2re.nbo

                                *** returned from   NBO  program ***


----------------------------------
MP2 DERIVATIVE INTEGRAL GENERATION
----------------------------------


Input Wavefunction Amplitudes       ... CH3·.mp2tbb.tmp
Input Correlated Electron Density   ... CH3·.pmp2re
Input Energy Weighted Density       ... CH3·.wmp2.tmp
Input SCF Electron Density          ... CH3·.scfp

One-Electron Terms    ...
                        ... One-Electron Terms done
Prescreening matrices              ... done

Batch handling in the gradient evaluation:
Memory available                      ... 3000.0 MB
Memory per occupied orbital in Q2     ...    0.4 MB
Memory per occupied orbital in Q3     ...    0.0 MB
Total memory requirement per |i>      ...    0.4 MB
Max. Number of orbitals possible      ...   7835
Number of orbitals treated per batch  ...      9
Number of batches to be done          ...      1
Batch   0: i=    0 ...     8

---------------------------------------
MP2 TOTAL ENERGY:      -39.750840926 Eh
---------------------------------------

-----------------------------------
NORM OF THE MP2 GRADIENT:  0.000000
-----------------------------------

-------------------------   --------------------
FINAL SINGLE POINT ENERGY       -39.750840926010
-------------------------   --------------------

                                *** OPTIMIZATION RUN DONE ***

                            ***************************************
                            *     ORCA property calculations      *
                            ***************************************

                                    ---------------------
                                    Active property flags
                                    ---------------------
   (+) Dipole Moment


------------------------------------------------------------------------------
                       ORCA ELECTRIC PROPERTIES CALCULATION
------------------------------------------------------------------------------

Dipole Moment Calculation                       ... on
Quadrupole Moment Calculation                   ... off
Polarizability Calculation                      ... off
GBWName                                         ... CH3·.gbw
Electron density file                           ... CH3·.scfp
The origin for moment calculation is the CENTER OF MASS  = ( 0.000000,  0.000000  0.000000)

-------------
DIPOLE MOMENT
-------------
                                X             Y             Z
Electronic contribution:     -0.00000       0.00000       0.00000
Nuclear contribution   :      0.00000      -0.00000      -0.00000
                        -----------------------------------------
Total Dipole Moment    :      0.00000      -0.00000      -0.00000
                        -----------------------------------------
Magnitude (a.u.)       :      0.00000
Magnitude (Debye)      :      0.00000



--------------------
Rotational spectrum 
--------------------
 
Rotational constants in cm-1:     9.722725     9.722723     4.861362 
Rotational constants in MHz : 291479.949399 291479.904020 145739.963355 

 Dipole components along the rotational axes: 
x,y,z [a.u.] :     0.000000     0.000000    -0.000000 
x,y,z [Debye]:     0.000000     0.000000    -0.000000 

 

                         *** MP2 UNRELAXED DENSITY ***

------------------------------------------------------------------------------
                       ORCA ELECTRIC PROPERTIES CALCULATION
------------------------------------------------------------------------------

Dipole Moment Calculation                       ... on
Quadrupole Moment Calculation                   ... off
Polarizability Calculation                      ... off
GBWName                                         ... CH3·.gbw
Electron density file                           ... CH3·.pmp2ur
The origin for moment calculation is the CENTER OF MASS  = ( 0.000000,  0.000000  0.000000)

-------------
DIPOLE MOMENT
-------------
                                X             Y             Z
Electronic contribution:     -0.00000       0.00000       0.00000
Nuclear contribution   :      0.00000      -0.00000      -0.00000
                        -----------------------------------------
Total Dipole Moment    :      0.00000      -0.00000      -0.00000
                        -----------------------------------------
Magnitude (a.u.)       :      0.00000
Magnitude (Debye)      :      0.00000



--------------------
Rotational spectrum 
--------------------
 
Rotational constants in cm-1:     9.722725     9.722723     4.861362 
Rotational constants in MHz : 291479.949399 291479.904020 145739.963355 

 Dipole components along the rotational axes: 
x,y,z [a.u.] :     0.000000     0.000000    -0.000000 
x,y,z [Debye]:     0.000000     0.000000    -0.000000 

 

                           *** MP2 RELAXED DENSITY ***

------------------------------------------------------------------------------
                       ORCA ELECTRIC PROPERTIES CALCULATION
------------------------------------------------------------------------------

Dipole Moment Calculation                       ... on
Quadrupole Moment Calculation                   ... off
Polarizability Calculation                      ... off
GBWName                                         ... CH3·.gbw
Electron density file                           ... CH3·.pmp2re
The origin for moment calculation is the CENTER OF MASS  = ( 0.000000,  0.000000  0.000000)

-------------
DIPOLE MOMENT
-------------
                                X             Y             Z
Electronic contribution:     -0.00000       0.00000       0.00000
Nuclear contribution   :      0.00000      -0.00000      -0.00000
                        -----------------------------------------
Total Dipole Moment    :      0.00000      -0.00000      -0.00000
                        -----------------------------------------
Magnitude (a.u.)       :      0.00000
Magnitude (Debye)      :      0.00000



--------------------
Rotational spectrum 
--------------------
 
Rotational constants in cm-1:     9.722725     9.722723     4.861362 
Rotational constants in MHz : 291479.949399 291479.904020 145739.963355 

 Dipole components along the rotational axes: 
x,y,z [a.u.] :     0.000000     0.000000    -0.000000 
x,y,z [Debye]:     0.000000     0.000000    -0.000000 

 
------------------------------------------------------------------------------
                         ORCA MP2 H E S S I A N CALCULATION
------------------------------------------------------------------------------

Calculating analytic MP2 second derivatives ... (>CH3·.last_mp2) done

-----------------------
VIBRATIONAL FREQUENCIES
-----------------------

Scaling factor for frequencies =  1.000000000  (already applied!)

   0:         0.00 cm**-1
   1:         0.00 cm**-1
   2:         0.00 cm**-1
   3:         0.00 cm**-1
   4:         0.00 cm**-1
   5:         0.00 cm**-1
   6:       501.84 cm**-1
   7:      1450.24 cm**-1
   8:      1450.28 cm**-1
   9:      3200.43 cm**-1
  10:      3371.48 cm**-1
  11:      3371.49 cm**-1


------------
NORMAL MODES
------------

These modes are the Cartesian displacements weighted by the diagonal matrix
M(i,i)=1/sqrt(m[i]) where m[i] is the mass of the displaced atom
Thus, these vectors are normalized but *not* orthogonal

                  0          1          2          3          4          5    
      0       0.000000   0.000000   0.000000   0.000000   0.000000   0.000000
      1       0.000000   0.000000   0.000000   0.000000   0.000000   0.000000
      2       0.000000   0.000000   0.000000   0.000000   0.000000   0.000000
      3       0.000000   0.000000   0.000000   0.000000   0.000000   0.000000
      4       0.000000   0.000000   0.000000   0.000000   0.000000   0.000000
      5       0.000000   0.000000   0.000000   0.000000   0.000000   0.000000
      6       0.000000   0.000000   0.000000   0.000000   0.000000   0.000000
      7       0.000000   0.000000   0.000000   0.000000   0.000000   0.000000
      8       0.000000   0.000000   0.000000   0.000000   0.000000   0.000000
      9       0.000000   0.000000   0.000000   0.000000   0.000000   0.000000
     10       0.000000   0.000000   0.000000   0.000000   0.000000   0.000000
     11       0.000000   0.000000   0.000000   0.000000   0.000000   0.000000
                  6          7          8          9         10         11    
      0      -0.000000   0.092458   0.000006  -0.000001   0.100275   0.000056
      1       0.000000  -0.000006   0.092458   0.000000   0.000056  -0.100275
      2       0.143847   0.000000  -0.000000  -0.000000  -0.000000   0.000000
      3       0.000000   0.075062   0.000005   0.577363  -0.812220  -0.000457
      4      -0.000000   0.000055  -0.809527   0.000000   0.000009  -0.015667
      5      -0.571346  -0.000000   0.000000   0.000000   0.000000  -0.000000
      6      -0.000000  -0.588352  -0.383077  -0.288674  -0.191113  -0.358598
      7       0.000000  -0.383030  -0.146113   0.499993   0.358157   0.605457
      8      -0.571346  -0.000000   0.000000   0.000000   0.000000  -0.000000
      9      -0.000000  -0.588404   0.382997  -0.288674  -0.191517   0.358382
     10      -0.000000   0.383050  -0.146061  -0.499993  -0.358837   0.605054
     11      -0.571346  -0.000000   0.000000   0.000000   0.000000  -0.000000


-----------
IR SPECTRUM
-----------

 Mode    freq (cm**-1)   T**2         TX         TY         TZ
-------------------------------------------------------------------
   6:       501.84   78.506239  ( -0.000000  -0.000000  -8.860375)
   7:      1450.24    2.889821  ( -1.699947   0.000115  -0.000000)
   8:      1450.28    2.890562  ( -0.000115  -1.700165   0.000000)
   9:      3200.43    0.000000  ( -0.000154   0.000000   0.000000)
  10:      3371.48    1.785950  (  1.336394   0.000751   0.000000)
  11:      3371.49    1.784657  (  0.000751  -1.335910  -0.000000)

The first frequency considered to be a vibration is 6
The total number of vibrations considered is 6


--------------------------
THERMOCHEMISTRY AT 298.15K
--------------------------

Temperature         ... 298.15 K
Pressure            ... 1.00 atm
Total Mass          ... 15.03 AMU

Throughout the following assumptions are being made:
  (1) The electronic state is orbitally nondegenerate
      but the spin degeneracy is treated
  (2) There are no thermally accessible electronically excited states
  (3) Hindered rotations indicated by low frequency modes are not
      treated as such but are treated as vibrations and this may
      cause some error
  (4) All equations used are the standard statistical mechanics
      equations for an ideal gas
  (5) All vibrations are strictly harmonic

freq.     501.84  E(vib)   ...       0.14 
freq.    1450.24  E(vib)   ...       0.00 
freq.    1450.28  E(vib)   ...       0.00 
freq.    3200.43  E(vib)   ...       0.00 
freq.    3371.48  E(vib)   ...       0.00 
freq.    3371.49  E(vib)   ...       0.00 

------------
INNER ENERGY
------------

The inner energy is: U= E(el) + E(ZPE) + E(vib) + E(rot) + E(trans)
    E(el)   - is the total energy from the electronic structure calculation
              = E(kin-el) + E(nuc-el) + E(el-el) + E(nuc-nuc)
    E(ZPE)  - the the zero temperature vibrational energy from the frequency calculation
    E(vib)  - the the finite temperature correction to E(ZPE) due to population
              of excited vibrational states
    E(rot)  - is the rotational thermal energy
    E(trans)- is the translational thermal energy

Summary of contributions to the inner energy U:
Electronic energy                ...    -39.75084093 Eh
Zero point energy                ...      0.03040387 Eh      19.08 kcal/mol
Thermal vibrational correction   ...      0.00023485 Eh       0.15 kcal/mol
Thermal rotational correction    ...      0.00141627 Eh       0.89 kcal/mol
Thermal translational correction ...      0.00141627 Eh       0.89 kcal/mol
-----------------------------------------------------------------------
Total thermal energy                    -39.71736966 Eh


Summary of corrections to the electronic energy:
(perhaps to be used in another calculation)
Total thermal correction                  0.00306740 Eh       1.92 kcal/mol
Non-thermal (ZPE) correction              0.03040387 Eh      19.08 kcal/mol
-----------------------------------------------------------------------
Total correction                          0.03347126 Eh      21.00 kcal/mol


--------
ENTHALPY
--------

The enthalpy is H = U + kB*T
                kB is Boltzmann's constant
Total free energy                 ...    -39.71736966 Eh 
Thermal Enthalpy correction       ...      0.00094421 Eh       0.59 kcal/mol
-----------------------------------------------------------------------
Total Enthalpy                    ...    -39.71642546 Eh


Note: Rotational entropy computed according to Herzberg 
Infrared and Raman Spectra, Chapter V,1, Van Nostrand Reinhold, 1945 
Point Group:  D3h, Symmetry Number:   6  
Rotational constants in cm-1:     9.722725     9.722723     4.861362 

Vibrational entropy computed according to the QRRHO of S. Grimme
Chem.Eur.J. 2012 18 9955


-------
ENTROPY
-------

The entropy contributions are T*S = T*(S(el)+S(vib)+S(rot)+S(trans))
     S(el)   - electronic entropy
     S(vib)  - vibrational entropy
     S(rot)  - rotational entropy
     S(trans)- translational entropy
The entropies will be listed as mutliplied by the temperature to get
units of energy

Electronic entropy                ...      0.00065446 Eh      0.41 kcal/mol
Vibrational entropy               ...      0.00032480 Eh      0.20 kcal/mol
Rotational entropy                ...      0.00492503 Eh      3.09 kcal/mol
Translational entropy             ...      0.01618771 Eh     10.16 kcal/mol
-----------------------------------------------------------------------
Final entropy term                ...      0.02209199 Eh     13.86 kcal/mol

In case the symmetry of your molecule has not been determined correctly
or in case you have a reason to use a different symmetry number we print 
out the resulting rotational entropy values for sn=1,12 :
 --------------------------------------------------------
|  sn= 1 | S(rot)=       0.00661678 Eh      4.15 kcal/mol|
|  sn= 2 | S(rot)=       0.00596232 Eh      3.74 kcal/mol|
|  sn= 3 | S(rot)=       0.00557949 Eh      3.50 kcal/mol|
|  sn= 4 | S(rot)=       0.00530786 Eh      3.33 kcal/mol|
|  sn= 5 | S(rot)=       0.00509718 Eh      3.20 kcal/mol|
|  sn= 6 | S(rot)=       0.00492503 Eh      3.09 kcal/mol|
|  sn= 7 | S(rot)=       0.00477949 Eh      3.00 kcal/mol|
|  sn= 8 | S(rot)=       0.00465341 Eh      2.92 kcal/mol|
|  sn= 9 | S(rot)=       0.00454220 Eh      2.85 kcal/mol|
|  sn=10 | S(rot)=       0.00444272 Eh      2.79 kcal/mol|
|  sn=11 | S(rot)=       0.00435273 Eh      2.73 kcal/mol|
|  sn=12 | S(rot)=       0.00427058 Eh      2.68 kcal/mol|
 --------------------------------------------------------


-------------------
GIBBS FREE ENERGY
-------------------

The Gibbs free energy is G = H - T*S

Total enthalpy                    ...    -39.71642546 Eh 
Total entropy correction          ...     -0.02209199 Eh    -13.86 kcal/mol
-----------------------------------------------------------------------
Final Gibbs free energy         ...    -39.73851745 Eh

For completeness - the Gibbs free energy minus the electronic energy
G-E(el)                           ...      0.01232348 Eh      7.73 kcal/mol


Timings for individual modules:

Sum of individual times         ...       59.864 sec (=   0.998 min)
GTO integral calculation        ...        2.374 sec (=   0.040 min)   4.0 %
SCF iterations                  ...        7.506 sec (=   0.125 min)  12.5 %
MP2 module                      ...       11.256 sec (=   0.188 min)  18.8 %
Geometry relaxation             ...        0.051 sec (=   0.001 min)   0.1 %
Analytical frequency calculation...       38.678 sec (=   0.645 min)  64.6 %
                             ****ORCA TERMINATED NORMALLY****
TOTAL RUN TIME: 0 days 0 hours 1 minutes 0 seconds 639 msec
