
                                 *****************
                                 * O   R   C   A *
                                 *****************

           --- An Ab Initio, DFT and Semiempirical electronic structure package ---

                  #######################################################
                  #                        -***-                        #
                  #          Department of theory and spectroscopy      #
                  #               Directorship: Frank Neese             #
                  #        Max Planck Institute fuer Kohlenforschung    #
                  #                Kaiser Wilhelm Platz 1               #
                  #                 D-45470 Muelheim/Ruhr               #
                  #                      Germany                        #
                  #                                                     #
                  #                  All rights reserved                #
                  #                        -***-                        #
                  #######################################################


                         Program Version 4.2.1 -  RELEASE  -


 With contributions from (in alphabetic order):
   Daniel Aravena         : Magnetic Suceptibility
   Michael Atanasov       : Ab Initio Ligand Field Theory (pilot matlab implementation)
   Alexander A. Auer      : GIAO ZORA, VPT2
   Ute Becker             : Parallelization
   Giovanni Bistoni       : ED, misc. LED, open-shell LED, HFLD
   Martin Brehm           : Molecular dynamics
   Dmytro Bykov           : SCF Hessian
   Vijay G. Chilkuri      : MRCI spin determinant printing, contributions to CSF-ICE
   Dipayan Datta          : RHF DLPNO-CCSD density
   Achintya Kumar Dutta   : EOM-CC, STEOM-CC
   Dmitry Ganyushin       : Spin-Orbit,Spin-Spin,Magnetic field MRCI
   Miquel Garcia          : C-PCM Hessian, Gaussian charge scheme
   Yang Guo               : DLPNO-NEVPT2, CIM, IAO-localization
   Andreas Hansen         : Spin unrestricted coupled pair/coupled cluster methods
   Benjamin Helmich-Paris : CASSCF linear response (MC-RPA)
   Lee Huntington         : MR-EOM, pCC
   Robert Izsak           : Overlap fitted RIJCOSX, COSX-SCS-MP3, EOM
   Christian Kollmar      : KDIIS, OOCD, Brueckner-CCSD(T), CCSD density
   Simone Kossmann        : Meta GGA functionals, TD-DFT gradient, OOMP2, MP2 Hessian
   Martin Krupicka        : AUTO-CI
   Lucas Lang             : DCDCAS
   Dagmar Lenk            : GEPOL surface, SMD
   Dimitrios Liakos       : Extrapolation schemes; Compound Job, initial MDCI parallelization
   Dimitrios Manganas     : Further ROCIS development; embedding schemes
   Dimitrios Pantazis     : SARC Basis sets
   Taras Petrenko         : DFT Hessian,TD-DFT gradient, ASA, ECA, R-Raman, ABS, FL, XAS/XES, NRVS
   Peter Pinski           : DLPNO-MP2, DLPNO-MP2 Gradient
   Christoph Reimann      : Effective Core Potentials
   Marius Retegan         : Local ZFS, SOC
   Christoph Riplinger    : Optimizer, TS searches, QM/MM, DLPNO-CCSD(T), (RO)-DLPNO pert. Triples
   Tobias Risthaus        : Range-separated hybrids, TD-DFT gradient, RPA, STAB
   Michael Roemelt        : Original ROCIS implementation
   Masaaki Saitow         : Open-shell DLPNO-CCSD energy and density
   Barbara Sandhoefer     : DKH picture change effects
   Avijit Sen             : IP-ROCIS
   Kantharuban Sivalingam : CASSCF convergence, NEVPT2, FIC-MRCI
   Bernardo de Souza      : ESD, SOC TD-DFT
   Georgi Stoychev        : AutoAux, RI-MP2 NMR
   Willem Van den Heuvel  : Paramagnetic NMR
   Boris Wezisla          : Elementary symmetry handling
   Frank Wennmohs         : Technical directorship


 We gratefully acknowledge several colleagues who have allowed us to
 interface, adapt or use parts of their codes:
   Stefan Grimme, W. Hujo, H. Kruse,             : VdW corrections, initial TS optimization,
                  C. Bannwarth                     DFT functionals, gCP, sTDA/sTD-DF
   Ed Valeev, F. Pavosevic, A. Kumar             : LibInt (2-el integral package), F12 methods
   Garnet Chan, S. Sharma, J. Yang, R. Olivares  : DMRG
   Ulf Ekstrom                                   : XCFun DFT Library
   Mihaly Kallay                                 : mrcc  (arbitrary order and MRCC methods)
   Andreas Klamt, Michael Diedenhofen            : otool_cosmo (COSMO solvation model)
   Jiri Pittner, Ondrej Demel                    : Mk-CCSD
   Frank Weinhold                                : gennbo (NPA and NBO analysis)
   Christopher J. Cramer and Donald G. Truhlar   : smd solvation model
   Lars Goerigk                                  : TD-DFT with DH, B97 family of functionals
   V. Asgeirsson, H. Jonsson                     : NEB implementation
   FAccTs GmbH                                   : IRC, NEB, NEB-TS, Multilevel, MM, QM/MM, CI optimization
   S Lehtola, MJT Oliveira, MAL Marques          : LibXC Library


 Your calculation uses the libint2 library for the computation of 2-el integrals
 For citations please refer to: http://libint.valeyev.net

 Your ORCA version has been built with support for libXC version: 4.2.3
 For citations please refer to: https://tddft.org/programs/libxc/

 This ORCA versions uses:
   CBLAS   interface :  Fast vector & matrix operations
   LAPACKE interface :  Fast linear algebra routines
   SCALAPACK package :  Parallel linear algebra routines


----- Orbital basis set information -----
Your calculation utilizes the basis: cc-pVTZ 
       H, B-Ne : Obtained from the ccRepo (grant-hill.group.shef.ac.uk/ccrepo) Feb. 2017
                 T. H. Dunning, Jr., J. Chem. Phys. 90, 1007 (1989)
            He : Obtained from the ccRepo (grant-hill.group.shef.ac.uk/ccrepo) Feb. 2017
                 D. E. Woon, T. H. Dunning, Jr., J. Chem. Phys. 100, 2975 (1994)
  Li-Be, Na-Mg : Obtained from the ccRepo (grant-hill.group.shef.ac.uk/ccrepo) Feb. 2017
                 B. P. Prascher, D. E. Woon, K. A. Peterson, T. H. Dunning, Jr., A. K. Wilson, Theor. Chem. Acc. 128, 69 (2011)
         Al-Ar : Obtained from the ccRepo (grant-hill.group.shef.ac.uk/ccrepo) Feb. 2017
                 D. E. Woon, T. H. Dunning, Jr., J. Chem. Phys. 98, 1358 (1993)
            Ca : Obtained from the Peterson Research Group Website (tyr0.chem.wsu.edu/~kipeters) Feb. 2017
                 J. Koput, K. A. Peterson, J. Phys. Chem. 106, 9595 (2002)
         Sc-Zn : Obtained from the ccRepo (grant-hill.group.shef.ac.uk/ccrepo) Feb. 2017
                 N. B. Balabanov, K. A. Peterson, J. Chem. Phys. 123, 064107 (2005)
                 N. B. Balabanov, K. A. Peterson, J. Chem. Phys. 125, 074110 (2006)
         Ga-Kr : Obtained from the ccRepo (grant-hill.group.shef.ac.uk/ccrepo) Feb. 2017
                 A. K. Wilson, D. E. Woon, K. A. Peterson, T. H. Dunning, Jr., J. Chem. Phys. 110, 7667 (1999)
             Y : Obtained from the ccRepo (grant-hill.group.shef.ac.uk/ccrepo) Feb. 2017
                 K. A. Peterson, D. Figgen, M. Dolg, H. Stoll, J. Chem. Phys. 126, 124101 (2007)
        Ag, Au : Obtained from the Peterson Research Group Website (tyr0.chem.wsu.edu/~kipeters) Feb. 2017
                 K. A. Peterson, C. Puzzarini, Theor. Chem. Acc. 114, 283 (2005)

================================================================================
                                        WARNINGS
                       Please study these warnings very carefully!
================================================================================


WARNING: No MP2 level density has been requested!
         To caclulate MP2 level properties use
         %mp2 Density relaxed end
         or
         %mp2 Density unrelaxed end

WARNING: Post HF methods need fully converged wavefunctions
  ===> : Setting SCFConvForced true
         You can overwrite this default with %scf ConvForced false 


INFO   : the flag for use of LIBINT has been found!

================================================================================
                                       INPUT FILE
================================================================================
NAME = Cl·.inp
|  1> ! UHF MP2 cc-pVTZ Freq NoFrozenCore TightSCF Grid4 FinalGrid5 PrintBasis PrintMOs NBO
|  2> %maxcore 3000
|  3> 
|  4> *xyz 0 2
|  5> Cl       0.000000000      0.000000000      0.000000000
|  6> *
|  7> 
|  8> %pal
|  9>  nprocs 6
| 10> end
| 11> 
| 12>                          ****END OF INPUT****
================================================================================

                       ****************************
                       * Single Point Calculation *
                       ****************************

---------------------------------
CARTESIAN COORDINATES (ANGSTROEM)
---------------------------------
  Cl     0.000000    0.000000    0.000000

----------------------------
CARTESIAN COORDINATES (A.U.)
----------------------------
  NO LB      ZA    FRAG     MASS         X           Y           Z
   0 Cl   17.0000    0    35.453    0.000000    0.000000    0.000000

--------------------------------
INTERNAL COORDINATES (ANGSTROEM)
--------------------------------
 Cl     0   0   0     0.000000000000     0.00000000     0.00000000

---------------------------
INTERNAL COORDINATES (A.U.)
---------------------------
 Cl     0   0   0     0.000000000000     0.00000000     0.00000000

---------------------
BASIS SET INFORMATION
---------------------
There are 1 groups of distinct atoms

 Group   1 Type Cl  : 41s16p2d1f contracted to 5s4p2d1f pattern {13131311/7711/11/1}

Atom   0Cl   basis set group =>   1

-------------------------
BASIS SET IN INPUT FORMAT
-------------------------

 # Basis set for element : Cl
 NewGTO Cl
 S 13 
   1  456100.0000000000      0.0000492942
   2   68330.0000000000      0.0003830071
   3   15550.0000000000      0.0020084250
   4    4405.0000000000      0.0083851001
   5    1439.0000000000      0.0294686133
   6     520.4000000000      0.0878274731
   7     203.1000000000      0.2114608968
   8      83.9600000000      0.3653430893
   9      36.2000000000      0.3408644903
  10      15.8300000000      0.1021271547
  11       6.3340000000      0.0031165716
  12       2.6940000000      0.0010574495
  13       0.4313000000      0.0001561271
 S 13 
   1  456100.0000000000     -0.0000147034
   2   68330.0000000000     -0.0001140508
   3   15550.0000000000     -0.0006007529
   4    4405.0000000000     -0.0025104062
   5    1439.0000000000     -0.0089928112
   6     520.4000000000     -0.0276027210
   7     203.1000000000     -0.0729687441
   8      83.9600000000     -0.1508295563
   9      36.2000000000     -0.2119006748
  10      15.8300000000     -0.0208012833
  11       6.3340000000      0.5312863055
  12       2.6940000000      0.5993208817
  13       0.4313000000     -0.0088780471
 S 13 
   1  456100.0000000000      0.0000064955
   2   68330.0000000000      0.0000503429
   3   15550.0000000000      0.0002655380
   4    4405.0000000000      0.0011083303
   5    1439.0000000000      0.0039838068
   6     520.4000000000      0.0122375442
   7     203.1000000000      0.0327244651
   8      83.9600000000      0.0686349823
   9      36.2000000000      0.1011327147
  10      15.8300000000      0.0093581476
  11       6.3340000000     -0.3204597407
  12       2.6940000000     -0.6298715001
  13       0.4313000000      1.1261538336
 S 1 
   1       0.9768000000      1.0000000000
 S 1 
   1       0.1625000000      1.0000000000
 P 7 
   1     663.3000000000      0.0024738409
   2     156.8000000000      0.0197690804
   3      49.9800000000      0.0910628980
   4      18.4200000000      0.2634052893
   5       7.2400000000      0.4495308290
   6       2.9220000000      0.3604399212
   7       0.3818000000     -0.0047164691
 P 7 
   1     663.3000000000     -0.0011177497
   2     156.8000000000     -0.0089030736
   3      49.9800000000     -0.0423241575
   4      18.4200000000     -0.1248048286
   5       7.2400000000     -0.2297219068
   6       2.9220000000     -0.1624390804
   7       0.3818000000      0.9678160112
 P 1 
   1       1.0220000000      1.0000000000
 P 1 
   1       0.1301000000      1.0000000000
 D 1 
   1       1.0460000000      1.0000000000
 D 1 
   1       0.3440000000      1.0000000000
 F 1 
   1       0.7060000000      1.0000000000
  end;


Checking for AutoStart:
The File: Cl·.gbw exists
Trying to determine its content:
     ... Fine, the file contains calculation information
     ... Fine, the calculation information was read
     ... Fine, the file contains a basis set
     ... Fine, the basis set was read
     ... Fine, the file contains a geometry
     ... Fine, the geometry was read
     ... Fine, the file contains a set of orbitals
     ... Fine, the orbitals can be read
     => possible old guess file was deleted
     => GBW file was renamed to GES file
     => GES file is set as startup file
     => Guess is set to MORead
     ... now leaving AutoStart



           ************************************************************
           *        Program running with 6 parallel MPI-processes     *
           *              working on a common directory               *
           ************************************************************
------------------------------------------------------------------------------
                           ORCA GTO INTEGRAL CALCULATION
------------------------------------------------------------------------------

                         BASIS SET STATISTICS AND STARTUP INFO

 # of primitive gaussian shells          ...   60
 # of primitive gaussian functions       ...  106
 # of contracted shells                  ...   12
 # of contracted basis functions         ...   34
 Highest angular momentum                ...    3
 Maximum contraction depth               ...   13
 Integral package used                   ... LIBINT
 Integral threshhold            Thresh   ...  2.500e-11
 Primitive cut-off              TCut     ...  2.500e-12


------------------------------ INTEGRAL EVALUATION ----------------------------


 * One electron integrals 
 Pre-screening matrix                    ... done
 Shell pair data                         ... done (   0.000 sec)



           ************************************************************
           *        Program running with 6 parallel MPI-processes     *
           *              working on a common directory               *
           ************************************************************
-------------------------------------------------------------------------------
                                 ORCA SCF
-------------------------------------------------------------------------------

------------
SCF SETTINGS
------------
Hamiltonian:
 Ab initio Hamiltonian  Method          .... Hartree-Fock(GTOs)


General Settings:
 Integral files         IntName         .... Cl·
 Hartree-Fock type      HFTyp           .... UHF
 Total Charge           Charge          ....    0
 Multiplicity           Mult            ....    2
 Number of Electrons    NEL             ....   17
 Basis Dimension        Dim             ....   34
 Nuclear Repulsion      ENuc            ....      0.0000000000 Eh

Convergence Acceleration:
 DIIS                   CNVDIIS         .... on
   Start iteration      DIISMaxIt       ....    12
   Startup error        DIISStart       ....  0.200000
   # of expansion vecs  DIISMaxEq       ....     5
   Bias factor          DIISBfac        ....   1.050
   Max. coefficient     DIISMaxC        ....  10.000
 Newton-Raphson         CNVNR           .... off
 SOSCF                  CNVSOSCF        .... off
 Level Shifting         CNVShift        .... on
   Level shift para.    LevelShift      ....    0.2500
   Turn off err/grad.   ShiftErr        ....    0.0010
 Zerner damping         CNVZerner       .... off
 Static damping         CNVDamp         .... on
   Fraction old density DampFac         ....    0.7000
   Max. Damping (<1)    DampMax         ....    0.9800
   Min. Damping (>=0)   DampMin         ....    0.0000
   Turn off err/grad.   DampErr         ....    0.1000
 Fernandez-Rico         CNVRico         .... off

SCF Procedure:
 Maximum # iterations   MaxIter         ....   125
 SCF integral mode      SCFMode         .... Direct
   Integral package                     .... LIBINT
 Reset frequency        DirectResetFreq ....    20
 Integral Threshold     Thresh          ....  2.500e-11 Eh
 Primitive CutOff       TCut            ....  2.500e-12 Eh

Convergence Tolerance:
 Convergence Check Mode ConvCheckMode   .... Total+1el-Energy
 Convergence forced     ConvForced      .... 1
 Energy Change          TolE            ....  1.000e-08 Eh
 1-El. energy change                    ....  1.000e-05 Eh
 DIIS Error             TolErr          ....  5.000e-07


Diagonalization of the overlap matrix:
Smallest eigenvalue                        ... 1.919e-02
Time for diagonalization                   ...    0.001 sec
Threshold for overlap eigenvalues          ... 1.000e-08
Number of eigenvalues below threshold      ... 0
Time for construction of square roots      ...    0.000 sec
Total time needed                          ...    0.002 sec

---------------------
INITIAL GUESS: MOREAD
---------------------
Guess MOs are being read from file: Cl·.ges
Input Geometry matches current geometry (good)
Atom 0: N(Shells)= 12 and 13 - projection required
Input basis set needs projection
NBasis(read)= 31
NBasis(calc)= 34
Basis set overlap was calculated
Using GuessMode=FMatrix for the initial guess
C*T matrix was formed
Effective Fockian was calculated
Effective Fockian was diagonalized
Initial density was built
C*T matrix was formed
Effective Fockian was calculated
Effective Fockian was diagonalized
Initial density was built
                      ------------------
                      INITIAL GUESS DONE (   0.0 sec)
                      ------------------
--------------
SCF ITERATIONS
--------------
ITER       Energy         Delta-E        Max-DP      RMS-DP      [F,P]     Damp
               ***  Starting incremental Fock matrix formation  ***
  0   -459.4824432125   0.000000000000 0.00892584  0.00041317  0.0313403 0.7000
  1   -459.4832394723  -0.000796259805 0.00721005  0.00033541  0.0233083 0.7000
                               ***Turning on DIIS***
  2   -459.4838388222  -0.000599349959 0.01797185  0.00084084  0.0173798 0.0000
  3   -459.4879013136  -0.004062491318 0.00238360  0.00013065  0.0026932 0.0000
  4   -459.4847899191   0.003111394489 0.00068912  0.00003410  0.0005067 0.0000
  5   -459.4851261293  -0.000336210225 0.00017841  0.00001062  0.0000848 0.0000
  6   -459.4854164613  -0.000290331979 0.00006926  0.00000458  0.0000173 0.0000
  7   -459.4854321591  -0.000015697835 0.00003464  0.00000237  0.0000047 0.0000
  8   -459.4854346975  -0.000002538424 0.00000902  0.00000062  0.0000012 0.0000
                            ***DIIS convergence achieved***

               *****************************************************
               *                     SUCCESS                       *
               *           SCF CONVERGED AFTER   9 CYCLES          *
               *****************************************************


----------------
TOTAL SCF ENERGY
----------------

Total Energy       :         -459.48543373 Eh          -12503.23430 eV

Components:
Nuclear Repulsion  :            0.00000000 Eh               0.00000 eV
Electronic Energy  :         -459.48543373 Eh          -12503.23430 eV
One Electron Energy:         -634.88787477 Eh          -17276.17738 eV
Two Electron Energy:          175.40244105 Eh            4772.94307 eV

Virial components:
Potential Energy   :         -918.97446967 Eh          -25006.56663 eV
Kinetic Energy     :          459.48903594 Eh           12503.33233 eV
Virial Ratio       :            1.99999216


---------------
SCF CONVERGENCE
---------------

  Last Energy change         ...    9.7092e-07  Tolerance :   1.0000e-08
  Last MAX-Density change    ...    5.9340e-06  Tolerance :   1.0000e-07
  Last RMS-Density change    ...    3.8150e-07  Tolerance :   5.0000e-09
  Last DIIS Error            ...    8.9520e-07  Tolerance :   5.0000e-07

             **** THE GBW FILE WAS UPDATED (Cl·.gbw) ****
             **** DENSITY FILE WAS UPDATED (Cl·.scfp) ****
             **** ENERGY FILE WAS UPDATED (Cl·.en.tmp) ****
----------------------
UHF SPIN CONTAMINATION
----------------------

Expectation value of <S**2>     :     0.759299
Ideal value S*(S+1) for S=0.5   :     0.750000
Deviation                       :     0.009299

             **** THE GBW FILE WAS UPDATED (Cl·.gbw) ****
             **** DENSITY FILE WAS UPDATED (Cl·.scfp) ****
----------------
ORBITAL ENERGIES
----------------
                 SPIN UP ORBITALS
  NO   OCC          E(Eh)            E(eV) 
   0   1.0000    -104.887645     -2854.1379 
   1   1.0000     -10.610754      -288.7333 
   2   1.0000      -8.096072      -220.3053 
   3   1.0000      -8.071549      -219.6380 
   4   1.0000      -8.071549      -219.6380 
   5   1.0000      -1.134799       -30.8795 
   6   1.0000      -0.580140       -15.7864 
   7   1.0000      -0.501458       -13.6454 
   8   1.0000      -0.501458       -13.6454 
   9   0.0000       0.446128        12.1397 
  10   0.0000       0.479639        13.0516 
  11   0.0000       0.479639        13.0516 
  12   0.0000       0.578263        15.7353 
  13   0.0000       0.584302        15.8997 
  14   0.0000       0.597165        16.2497 
  15   0.0000       0.597165        16.2497 
  16   0.0000       0.642727        17.4895 
  17   0.0000       0.642727        17.4895 
  18   0.0000       2.160795        58.7982 
  19   0.0000       2.173920        59.1554 
  20   0.0000       2.173920        59.1554 
  21   0.0000       2.216789        60.3219 
  22   0.0000       2.216789        60.3219 
  23   0.0000       2.323413        63.2233 
  24   0.0000       2.330925        63.4277 
  25   0.0000       2.330925        63.4277 
  26   0.0000       2.353415        64.0397 
  27   0.0000       2.353415        64.0397 
  28   0.0000       2.391993        65.0894 
  29   0.0000       2.391993        65.0894 
  30   0.0000       2.476400        67.3863 
  31   0.0000       2.529496        68.8311 
  32   0.0000       2.529496        68.8311 
  33   0.0000       4.466741       121.5462 

                 SPIN DOWN ORBITALS
  NO   OCC          E(Eh)            E(eV) 
   0   1.0000    -104.876585     -2853.8370 
   1   1.0000     -10.599542      -288.4282 
   2   1.0000      -8.065842      -219.4827 
   3   1.0000      -8.065842      -219.4827 
   4   1.0000      -8.047064      -218.9718 
   5   1.0000      -1.013465       -27.5778 
   6   1.0000      -0.479613       -13.0509 
   7   1.0000      -0.479613       -13.0509 
   8   0.0000      -0.034609        -0.9418 
   9   0.0000       0.485705        13.2167 
  10   0.0000       0.485705        13.2167 
  11   0.0000       0.522258        14.2114 
  12   0.0000       0.602782        16.4025 
  13   0.0000       0.646554        17.5936 
  14   0.0000       0.646554        17.5936 
  15   0.0000       0.681225        18.5371 
  16   0.0000       0.681225        18.5371 
  17   0.0000       0.694980        18.9114 
  18   0.0000       2.214750        60.2664 
  19   0.0000       2.216259        60.3075 
  20   0.0000       2.216259        60.3075 
  21   0.0000       2.220730        60.4291 
  22   0.0000       2.220730        60.4291 
  23   0.0000       2.385314        64.9077 
  24   0.0000       2.386294        64.9344 
  25   0.0000       2.386294        64.9344 
  26   0.0000       2.389037        65.0090 
  27   0.0000       2.389037        65.0090 
  28   0.0000       2.392914        65.1145 
  29   0.0000       2.392914        65.1145 
  30   0.0000       2.538310        69.0709 
  31   0.0000       2.538310        69.0709 
  32   0.0000       2.555538        69.5397 
  33   0.0000       4.488919       122.1497 
------------------
MOLECULAR ORBITALS
------------------
                      0         1         2         3         4         5   
                 -104.88764 -10.61075  -8.09607  -8.07155  -8.07155  -1.13480
                   1.00000   1.00000   1.00000   1.00000   1.00000   1.00000
                  --------  --------  --------  --------  --------  --------
  0Cl  1s         1.000072  0.000108 -0.000000 -0.000000 -0.000000  0.001651
  0Cl  2s         0.000104  0.941358 -0.000000 -0.000000 -0.000000  0.008776
  0Cl  3s         0.000041  0.001070 -0.000000 -0.000000  0.000000  0.655799
  0Cl  4s        -0.000455  0.078508  0.000000  0.000000 -0.000000  0.071519
  0Cl  5s        -0.000068  0.002164  0.000000  0.000000  0.000000  0.384340
  0Cl  1pz        0.000000  0.000000  0.017241  0.941926  0.242616 -0.000000
  0Cl  1px        0.000000 -0.000000 -0.963191  0.048781 -0.120818 -0.000000
  0Cl  1py        0.000000 -0.000000  0.129030  0.238287 -0.934305  0.000000
  0Cl  2pz        0.000000  0.000000 -0.000007 -0.000214 -0.000055 -0.000000
  0Cl  2px        0.000000 -0.000000  0.000413 -0.000011  0.000027  0.000000
  0Cl  2py        0.000000 -0.000000 -0.000055 -0.000054  0.000212  0.000000
  0Cl  3pz       -0.000000 -0.000000  0.001037  0.055011  0.014170  0.000000
  0Cl  3px       -0.000000  0.000000 -0.057923  0.002849 -0.007056  0.000000
  0Cl  3py       -0.000000  0.000000  0.007759  0.013917 -0.054566  0.000000
  0Cl  4pz       -0.000000 -0.000000  0.000029  0.001460  0.000376  0.000000
  0Cl  4px       -0.000000  0.000000 -0.001594  0.000076 -0.000187 -0.000000
  0Cl  4py       -0.000000  0.000000  0.000214  0.000369 -0.001448  0.000000
  0Cl  1dz2      -0.000000 -0.000623  0.000000  0.000000  0.000000 -0.010427
  0Cl  1dxz      -0.000000 -0.000038 -0.000000 -0.000000 -0.000000 -0.000636
  0Cl  1dyz       0.000000  0.000005  0.000000  0.000000  0.000000  0.000085
  0Cl  1dx2y2     0.000000  0.001042 -0.000000  0.000000 -0.000000  0.017435
  0Cl  1dxy      -0.000000 -0.000284  0.000000 -0.000000 -0.000000 -0.004757
  0Cl  2dz2       0.000000  0.000169 -0.000000 -0.000000  0.000000 -0.012630
  0Cl  2dxz       0.000000  0.000010  0.000000  0.000000  0.000000 -0.000770
  0Cl  2dyz      -0.000000 -0.000001  0.000000 -0.000000 -0.000000  0.000103
  0Cl  2dx2y2    -0.000001 -0.000282 -0.000000 -0.000000  0.000000  0.021118
  0Cl  2dxy       0.000000  0.000077  0.000000  0.000000 -0.000000 -0.005761
  0Cl  1f0       -0.000000  0.000000 -0.000014 -0.000246 -0.000063  0.000000
  0Cl  1f+1       0.000000  0.000000  0.000312 -0.000023  0.000008 -0.000000
  0Cl  1f-1      -0.000000  0.000000 -0.000042 -0.000023  0.000100 -0.000000
  0Cl  1f+2       0.000000  0.000000  0.000017  0.000306  0.000082  0.000000
  0Cl  1f-2       0.000000 -0.000000 -0.000005 -0.000087 -0.000011 -0.000000
  0Cl  1f+3      -0.000000 -0.000000  0.000375 -0.000045  0.000150 -0.000000
  0Cl  1f-3       0.000000 -0.000000 -0.000158 -0.000090  0.000360  0.000000
                      6         7         8         9        10        11   
                  -0.58014  -0.50146  -0.50146   0.44613   0.47964   0.47964
                   1.00000   1.00000   1.00000   0.00000   0.00000   0.00000
                  --------  --------  --------  --------  --------  --------
  0Cl  1s        -0.000000  0.000000 -0.000000 -0.000000 -0.000000  0.000000
  0Cl  2s        -0.000000  0.000000 -0.000000 -0.000000 -0.000000  0.000000
  0Cl  3s        -0.000000 -0.000000  0.000000 -0.000000 -0.000000  0.000000
  0Cl  4s         0.000000 -0.000000  0.000000  0.000000 -0.000000 -0.000000
  0Cl  5s         0.000000 -0.000000 -0.000000  0.000000  0.000000 -0.000000
  0Cl  1pz       -0.000211 -0.000326 -0.001524 -0.006810  0.392893  0.006881
  0Cl  1px        0.011813  0.000197 -0.000070  0.380429  0.007822 -0.052054
  0Cl  1py       -0.001583  0.001512 -0.000320 -0.050963  0.005895 -0.389492
  0Cl  2pz       -0.010944 -0.121853 -0.569421 -0.020332  1.175066  0.020579
  0Cl  2px        0.611404  0.073474 -0.026194  1.135896  0.023395 -0.155682
  0Cl  2py       -0.081904  0.564756 -0.119452 -0.152166  0.017632 -1.164894
  0Cl  3pz       -0.004688 -0.054921 -0.256646 -0.000840  0.045018  0.000788
  0Cl  3px        0.261891  0.033116 -0.011806  0.046927  0.000896 -0.005964
  0Cl  3py       -0.035083  0.254543 -0.053839 -0.006286  0.000676 -0.044629
  0Cl  4pz       -0.005330 -0.071601 -0.334591  0.024644 -1.383057 -0.024222
  0Cl  4px        0.297784  0.043173 -0.015392 -1.376769 -0.027536  0.183238
  0Cl  4py       -0.039891  0.331849 -0.070190  0.184433 -0.020753  1.371085
  0Cl  1dz2      -0.000000 -0.000000 -0.000000  0.000000  0.000000  0.000000
  0Cl  1dxz       0.000000 -0.000000 -0.000000 -0.000000  0.000000 -0.000000
  0Cl  1dyz       0.000000 -0.000000 -0.000000  0.000000 -0.000000  0.000000
  0Cl  1dx2y2     0.000000 -0.000000  0.000000  0.000000  0.000000  0.000000
  0Cl  1dxy       0.000000  0.000000 -0.000000  0.000000 -0.000000 -0.000000
  0Cl  2dz2       0.000000 -0.000000  0.000000  0.000000 -0.000000  0.000000
  0Cl  2dxz       0.000000 -0.000000 -0.000000 -0.000000 -0.000000  0.000000
  0Cl  2dyz       0.000000 -0.000000 -0.000000  0.000000 -0.000000 -0.000000
  0Cl  2dx2y2     0.000000 -0.000000  0.000000  0.000000 -0.000000  0.000000
  0Cl  2dxy       0.000000 -0.000000 -0.000000  0.000000  0.000000 -0.000000
  0Cl  1f0        0.000490  0.001962  0.009167  0.000226 -0.004720 -0.000083
  0Cl  1f+1      -0.011159 -0.000342  0.000831 -0.005154 -0.000378  0.000249
  0Cl  1f-1       0.001495 -0.003731  0.000697  0.000690  0.000017  0.001911
  0Cl  1f+2      -0.000610 -0.002556 -0.011401 -0.000282  0.005882  0.000160
  0Cl  1f-2       0.000166  0.000261  0.003204  0.000077 -0.001609  0.000181
  0Cl  1f+3      -0.013408 -0.005595  0.001445 -0.006192 -0.000173  0.002905
  0Cl  1f-3       0.005661 -0.013394  0.002761  0.002614 -0.000069  0.006886
                     12        13        14        15        16        17   
                   0.57826   0.58430   0.59717   0.59717   0.64273   0.64273
                   0.00000   0.00000   0.00000   0.00000   0.00000   0.00000
                  --------  --------  --------  --------  --------  --------
  0Cl  1s        -0.164628  0.022373 -0.000000 -0.000000 -0.000000  0.000000
  0Cl  2s        -1.051719  0.139426 -0.000000 -0.000000 -0.000000  0.000000
  0Cl  3s        -1.874651  0.210559 -0.000000 -0.000000 -0.000000  0.000000
  0Cl  4s        -0.021626 -0.012841 -0.000000 -0.000000 -0.000000  0.000000
  0Cl  5s         1.948136 -0.253849  0.000000  0.000000  0.000000 -0.000000
  0Cl  1pz       -0.000000  0.000000  0.000000 -0.000000 -0.000000 -0.000000
  0Cl  1px        0.000000 -0.000000  0.000000 -0.000000  0.000000 -0.000000
  0Cl  1py        0.000000  0.000000  0.000000 -0.000000 -0.000000  0.000000
  0Cl  2pz       -0.000000  0.000000  0.000000 -0.000000 -0.000000 -0.000000
  0Cl  2px        0.000000 -0.000000  0.000000 -0.000000  0.000000  0.000000
  0Cl  2py        0.000000  0.000000  0.000000 -0.000000 -0.000000  0.000000
  0Cl  3pz        0.000000  0.000000  0.000000  0.000000  0.000000 -0.000000
  0Cl  3px       -0.000000  0.000000  0.000000 -0.000000 -0.000000  0.000000
  0Cl  3py       -0.000000 -0.000000  0.000000  0.000000 -0.000000  0.000000
  0Cl  4pz        0.000000 -0.000000 -0.000000  0.000000  0.000000  0.000000
  0Cl  4px       -0.000000  0.000000 -0.000000  0.000000 -0.000000 -0.000000
  0Cl  4py       -0.000000 -0.000000 -0.000000  0.000000  0.000000 -0.000000
  0Cl  1dz2       0.002696 -0.090344 -0.001542  0.005219 -0.137915  0.047840
  0Cl  1dxz       0.000164 -0.005507  0.050117 -0.168162 -0.010136 -0.020176
  0Cl  1dyz      -0.000022  0.000738 -0.003673  0.023425 -0.054385 -0.157995
  0Cl  1dx2y2    -0.004508  0.151059 -0.043849 -0.016115 -0.077124  0.025920
  0Cl  1dxy       0.001230 -0.041211 -0.164109 -0.047622  0.020025 -0.010000
  0Cl  2dz2      -0.062006 -0.436287 -0.007695  0.026044 -0.728047  0.252547
  0Cl  2dxz      -0.003779 -0.026593  0.250103 -0.839188 -0.053508 -0.106510
  0Cl  2dyz       0.000506  0.003562 -0.018331  0.116901 -0.287099 -0.834051
  0Cl  2dx2y2     0.103677  0.729487 -0.218822 -0.080422 -0.407135  0.136829
  0Cl  2dxy      -0.028285 -0.199017 -0.818961 -0.237653  0.105710 -0.052792
  0Cl  1f0        0.000000 -0.000000 -0.000000  0.000000  0.000000 -0.000000
  0Cl  1f+1      -0.000000  0.000000 -0.000000 -0.000000  0.000000  0.000000
  0Cl  1f-1      -0.000000 -0.000000  0.000000 -0.000000 -0.000000  0.000000
  0Cl  1f+2       0.000000  0.000000  0.000000 -0.000000 -0.000000  0.000000
  0Cl  1f-2      -0.000000  0.000000 -0.000000  0.000000 -0.000000 -0.000000
  0Cl  1f+3       0.000000 -0.000000  0.000000 -0.000000 -0.000000 -0.000000
  0Cl  1f-3       0.000000  0.000000 -0.000000 -0.000000 -0.000000 -0.000000
                     18        19        20        21        22        23   
                   2.16079   2.17392   2.17392   2.21679   2.21679   2.32341
                   0.00000   0.00000   0.00000   0.00000   0.00000   0.00000
                  --------  --------  --------  --------  --------  --------
  0Cl  1s        -0.007469 -0.000000 -0.000000  0.000000  0.000000 -0.000000
  0Cl  2s        -0.044223 -0.000000 -0.000000  0.000000  0.000000 -0.000000
  0Cl  3s        -0.065468 -0.000000 -0.000000  0.000000  0.000000  0.000000
  0Cl  4s         0.016533  0.000000  0.000000 -0.000000 -0.000000  0.000000
  0Cl  5s         0.045282  0.000000  0.000000 -0.000000 -0.000000 -0.000000
  0Cl  1pz       -0.000000  0.000000  0.000000 -0.000000  0.000000 -0.001327
  0Cl  1px        0.000000  0.000000  0.000000 -0.000000  0.000000  0.074145
  0Cl  1py        0.000000  0.000000 -0.000000 -0.000000 -0.000000 -0.009933
  0Cl  2pz       -0.000000  0.000000  0.000000 -0.000000  0.000000 -0.001466
  0Cl  2px        0.000000  0.000000  0.000000 -0.000000  0.000000  0.081900
  0Cl  2py        0.000000  0.000000 -0.000000 -0.000000 -0.000000 -0.010971
  0Cl  3pz        0.000000  0.000000 -0.000000  0.000000 -0.000000  0.001810
  0Cl  3px       -0.000000 -0.000000 -0.000000  0.000000 -0.000000 -0.101093
  0Cl  3py       -0.000000 -0.000000  0.000000  0.000000  0.000000  0.013543
  0Cl  4pz        0.000000  0.000000 -0.000000  0.000000 -0.000000  0.000542
  0Cl  4px       -0.000000 -0.000000 -0.000000  0.000000 -0.000000 -0.030278
  0Cl  4py       -0.000000 -0.000000  0.000000  0.000000  0.000000  0.004056
  0Cl  1dz2      -0.616167 -0.028376  0.025147  0.795228  0.715270  0.000000
  0Cl  1dxz      -0.037556  0.913027 -0.813013 -0.093532  0.136463  0.000000
  0Cl  1dyz       0.005031 -0.136960  0.092380 -0.820902  0.908317  0.000000
  0Cl  1dx2y2     1.030251  0.231224  0.229074  0.439358  0.402940  0.000000
  0Cl  1dxy      -0.281071  0.785297  0.894822 -0.135056 -0.093040 -0.000000
  0Cl  2dz2       0.439981  0.020216 -0.017915 -0.562053 -0.505540 -0.000000
  0Cl  2dxz       0.026818 -0.650474  0.579220  0.066107 -0.096450 -0.000000
  0Cl  2dyz      -0.003593  0.097576 -0.065815  0.580199 -0.641983 -0.000000
  0Cl  2dx2y2    -0.735663 -0.164733 -0.163201 -0.310531 -0.284791 -0.000000
  0Cl  2dxy       0.200702 -0.559474 -0.637504  0.095455  0.065759  0.000000
  0Cl  1f0       -0.000000  0.000000 -0.000000  0.000000 -0.000000  0.026555
  0Cl  1f+1       0.000000  0.000000 -0.000000  0.000000  0.000000 -0.605012
  0Cl  1f-1      -0.000000 -0.000000 -0.000000 -0.000000  0.000000  0.081048
  0Cl  1f+2      -0.000000 -0.000000 -0.000000 -0.000000 -0.000000 -0.033080
  0Cl  1f-2      -0.000000 -0.000000  0.000000 -0.000000  0.000000  0.009025
  0Cl  1f+3       0.000000 -0.000000 -0.000000 -0.000000 -0.000000 -0.726904
  0Cl  1f-3       0.000000 -0.000000  0.000000 -0.000000 -0.000000  0.306905
                     24        25        26        27        28        29   
                   2.33093   2.33093   2.35341   2.35341   2.39199   2.39199
                   0.00000   0.00000   0.00000   0.00000   0.00000   0.00000
                  --------  --------  --------  --------  --------  --------
  0Cl  1s        -0.000000  0.000000 -0.000000  0.000000  0.000000 -0.000000
  0Cl  2s        -0.000000  0.000000 -0.000000  0.000000  0.000000 -0.000000
  0Cl  3s        -0.000000  0.000000 -0.000000  0.000000  0.000000 -0.000000
  0Cl  4s         0.000000  0.000000 -0.000000 -0.000000  0.000000  0.000000
  0Cl  5s         0.000000 -0.000000  0.000000 -0.000000  0.000000  0.000000
  0Cl  1pz        0.040637  0.021656 -0.000000 -0.000000  0.000000 -0.000000
  0Cl  1px       -0.002161  0.005777  0.000000 -0.000000  0.000000 -0.000000
  0Cl  1py       -0.021563  0.040232 -0.000000 -0.000000 -0.000000 -0.000000
  0Cl  2pz        0.041555  0.022146 -0.000000 -0.000000  0.000000 -0.000000
  0Cl  2px       -0.002210  0.005908  0.000000 -0.000000  0.000000 -0.000000
  0Cl  2py       -0.022051  0.041142 -0.000000 -0.000000 -0.000000 -0.000000
  0Cl  3pz       -0.057608 -0.030701  0.000000  0.000000 -0.000000  0.000000
  0Cl  3px        0.003064 -0.008190 -0.000000  0.000000 -0.000000  0.000000
  0Cl  3py        0.030569 -0.057035  0.000000  0.000000  0.000000  0.000000
  0Cl  4pz       -0.015456 -0.008237  0.000000  0.000000 -0.000000  0.000000
  0Cl  4px        0.000822 -0.002197 -0.000000  0.000000 -0.000000  0.000000
  0Cl  4py        0.008202 -0.015303  0.000000  0.000000  0.000000  0.000000
  0Cl  1dz2       0.000000 -0.000000 -0.000000 -0.000000 -0.000000 -0.000000
  0Cl  1dxz       0.000000 -0.000000  0.000000 -0.000000 -0.000000 -0.000000
  0Cl  1dyz      -0.000000 -0.000000 -0.000000  0.000000 -0.000000  0.000000
  0Cl  1dx2y2     0.000000 -0.000000 -0.000000 -0.000000  0.000000  0.000000
  0Cl  1dxy       0.000000  0.000000  0.000000 -0.000000  0.000000  0.000000
  0Cl  2dz2      -0.000000  0.000000  0.000000  0.000000  0.000000  0.000000
  0Cl  2dxz      -0.000000  0.000000 -0.000000  0.000000  0.000000  0.000000
  0Cl  2dyz       0.000000  0.000000  0.000000 -0.000000  0.000000 -0.000000
  0Cl  2dx2y2    -0.000000  0.000000  0.000000  0.000000 -0.000000 -0.000000
  0Cl  2dxy      -0.000000 -0.000000 -0.000000  0.000000 -0.000000 -0.000000
  0Cl  1f0       -0.539137 -0.287317 -0.033762 -0.006270 -0.229218  0.756220
  0Cl  1f+1      -0.027046 -0.051943  0.768871  0.146564  0.118056  0.053566
  0Cl  1f-1       0.121986 -0.215145 -0.108164  0.008184  0.918783  0.276111
  0Cl  1f+2       0.675375  0.351563  0.056428 -0.257051 -0.165928  0.567127
  0Cl  1f-2      -0.170592 -0.121548  0.173735 -0.948355  0.066816 -0.148191
  0Cl  1f+3       0.163001 -0.339475 -0.556298 -0.094710 -0.089592 -0.039964
  0Cl  1f-3       0.424998 -0.783298  0.230569  0.063169 -0.222120 -0.061919
                     30        31        32        33   
                   2.47640   2.52950   2.52950   4.46674
                   0.00000   0.00000   0.00000   0.00000
                  --------  --------  --------  --------
  0Cl  1s        -0.000000  0.000000  0.000000 -0.803029
  0Cl  2s        -0.000000  0.000000  0.000000 -4.219217
  0Cl  3s        -0.000000 -0.000000  0.000000 -3.569409
  0Cl  4s         0.000000 -0.000000 -0.000000  3.742401
  0Cl  5s         0.000000 -0.000000 -0.000000  1.410583
  0Cl  1pz        0.027815 -1.349005 -0.795620 -0.000000
  0Cl  1px       -1.553921 -0.129376  0.165152  0.000000
  0Cl  1py        0.208165 -0.785522  1.339146  0.000000
  0Cl  2pz        0.036630 -1.773870 -1.046198 -0.000000
  0Cl  2px       -2.046396 -0.170123  0.217166  0.000000
  0Cl  2py        0.274137 -1.032919  1.760906  0.000000
  0Cl  3pz       -0.034130  1.658705  0.978275  0.000000
  0Cl  3px        1.906725  0.159078 -0.203067 -0.000000
  0Cl  3py       -0.255427  0.965859 -1.646582 -0.000000
  0Cl  4pz       -0.013003  0.625356  0.368824 -0.000000
  0Cl  4px        0.726458  0.059975 -0.076559  0.000000
  0Cl  4py       -0.097317  0.364143 -0.620785 -0.000000
  0Cl  1dz2       0.000000 -0.000000  0.000000  0.002640
  0Cl  1dxz      -0.000000  0.000000  0.000000  0.000161
  0Cl  1dyz       0.000000  0.000000  0.000000 -0.000022
  0Cl  1dx2y2     0.000000 -0.000000 -0.000000 -0.004414
  0Cl  1dxy       0.000000  0.000000  0.000000  0.001204
  0Cl  2dz2      -0.000000  0.000000 -0.000000 -0.003561
  0Cl  2dxz       0.000000 -0.000000 -0.000000 -0.000217
  0Cl  2dyz      -0.000000 -0.000000 -0.000000  0.000029
  0Cl  2dx2y2    -0.000000  0.000000  0.000000  0.005954
  0Cl  2dxy      -0.000000 -0.000000 -0.000000 -0.001624
  0Cl  1f0        0.001335 -0.016636 -0.009811  0.000000
  0Cl  1f+1      -0.030408 -0.001847  0.000126  0.000000
  0Cl  1f-1       0.004074 -0.003794  0.006836  0.000000
  0Cl  1f+2      -0.001663  0.020614  0.012428 -0.000000
  0Cl  1f-2       0.000454 -0.006090 -0.002600  0.000000
  0Cl  1f+3      -0.036535 -0.006473  0.009992 -0.000000
  0Cl  1f-3       0.015425 -0.014130  0.024374 -0.000000

                      0         1         2         3         4         5   
                 -104.87658 -10.59954  -8.06584  -8.06584  -8.04706  -1.01346
                   1.00000   1.00000   1.00000   1.00000   1.00000   1.00000
                  --------  --------  --------  --------  --------  --------
  0Cl  1s        -1.000043  0.000114 -0.000000 -0.000000 -0.000000  0.001561
  0Cl  2s         0.000100 -0.939857 -0.000000  0.000000 -0.000000  0.008471
  0Cl  3s         0.000039  0.001063 -0.000000 -0.000000 -0.000000 -0.631514
  0Cl  4s         0.000304 -0.079604 -0.000000 -0.000000  0.000000 -0.079503
  0Cl  5s         0.000035 -0.002487  0.000000  0.000000  0.000000 -0.404179
  0Cl  1pz       -0.000000 -0.000000 -0.767379  0.597396 -0.017186 -0.000000
  0Cl  1px       -0.000000  0.000000  0.065838  0.112409  0.960131 -0.000000
  0Cl  1py        0.000000  0.000000  0.594008  0.759297 -0.128620  0.000000
  0Cl  2pz       -0.000000 -0.000000  0.000441 -0.000343  0.000064 -0.000000
  0Cl  2px       -0.000000  0.000000 -0.000038 -0.000065 -0.003557 -0.000000
  0Cl  2py        0.000000 -0.000000 -0.000341 -0.000436  0.000477  0.000000
  0Cl  3pz        0.000000  0.000000 -0.044943  0.034988 -0.001114  0.000000
  0Cl  3px        0.000000 -0.000000  0.003856  0.006584  0.062222  0.000000
  0Cl  3py       -0.000000  0.000000  0.034789  0.044470 -0.008335  0.000000
  0Cl  4pz        0.000000  0.000000 -0.001264  0.000984 -0.000045  0.000000
  0Cl  4px        0.000000  0.000000  0.000108  0.000185  0.002516  0.000000
  0Cl  4py       -0.000000  0.000000  0.000978  0.001250 -0.000337  0.000000
  0Cl  1dz2       0.000010  0.000106  0.000000  0.000000  0.000000 -0.010234
  0Cl  1dxz       0.000001  0.000006  0.000000 -0.000000  0.000000 -0.000624
  0Cl  1dyz      -0.000000 -0.000001 -0.000000  0.000000 -0.000000  0.000084
  0Cl  1dx2y2    -0.000016 -0.000177 -0.000000  0.000000  0.000000  0.017112
  0Cl  1dxy       0.000004  0.000048  0.000000 -0.000000 -0.000000 -0.004668
  0Cl  2dz2       0.000001 -0.000300  0.000000 -0.000000 -0.000000 -0.017400
  0Cl  2dxz       0.000000 -0.000018 -0.000000 -0.000000 -0.000000 -0.001061
  0Cl  2dyz      -0.000000  0.000002 -0.000000  0.000000  0.000000  0.000142
  0Cl  2dx2y2    -0.000001  0.000502  0.000000 -0.000000  0.000000  0.029093
  0Cl  2dxy       0.000000 -0.000137 -0.000000  0.000000  0.000000 -0.007937
  0Cl  1f0       -0.000000 -0.000000 -0.000051  0.000039 -0.000003 -0.000000
  0Cl  1f+1       0.000000  0.000000 -0.000002  0.000006  0.000076  0.000000
  0Cl  1f-1      -0.000000  0.000000  0.000016  0.000020 -0.000010  0.000000
  0Cl  1f+2      -0.000000  0.000000  0.000064 -0.000049  0.000004 -0.000000
  0Cl  1f-2       0.000000 -0.000000 -0.000015  0.000016 -0.000001  0.000000
  0Cl  1f+3      -0.000000 -0.000000  0.000023  0.000032  0.000092 -0.000000
  0Cl  1f-3       0.000000 -0.000000  0.000058  0.000073 -0.000039 -0.000000
                      6         7         8         9        10        11   
                  -0.47961  -0.47961  -0.03461   0.48570   0.48570   0.52226
                   1.00000   1.00000   0.00000   0.00000   0.00000   0.00000
                  --------  --------  --------  --------  --------  --------
  0Cl  1s        -0.000000 -0.000000  0.000000  0.000000 -0.000000  0.000000
  0Cl  2s        -0.000000 -0.000000 -0.000000  0.000000 -0.000000  0.000000
  0Cl  3s         0.000000 -0.000000 -0.000000  0.000000 -0.000000  0.000000
  0Cl  4s         0.000000 -0.000000 -0.000000  0.000000  0.000000 -0.000000
  0Cl  5s         0.000000 -0.000000  0.000000 -0.000000  0.000000 -0.000000
  0Cl  1pz       -0.001612 -0.001367  0.000739  0.206431  0.337417  0.007390
  0Cl  1px       -0.000210  0.000190 -0.041302 -0.041178  0.033346 -0.412834
  0Cl  1py       -0.001351  0.001601  0.005533 -0.334968  0.203841  0.055304
  0Cl  2pz        0.434897  0.368877 -0.007163  0.618358  1.010720  0.023044
  0Cl  2px        0.056633 -0.051266  0.400184 -0.123346  0.099888 -1.287388
  0Cl  2py        0.364644 -0.431983 -0.053609 -1.003386  0.610598  0.172460
  0Cl  3pz        0.199419  0.169146 -0.003861  0.023353  0.038171  0.000925
  0Cl  3px        0.025969 -0.023508  0.215679 -0.004658  0.003772 -0.051669
  0Cl  3py        0.167205 -0.198083 -0.028893 -0.037894  0.023060  0.006922
  0Cl  4pz        0.272133  0.230822 -0.010033 -0.720553 -1.177762 -0.023359
  0Cl  4px        0.035437 -0.032079  0.560524  0.143731 -0.116396  1.305007
  0Cl  4py        0.228173 -0.270310 -0.075088  1.169215 -0.711512 -0.174820
  0Cl  1dz2       0.000000  0.000000  0.000000 -0.000000 -0.000000 -0.000000
  0Cl  1dxz      -0.000000  0.000000 -0.000000  0.000000 -0.000000 -0.000000
  0Cl  1dyz      -0.000000 -0.000000  0.000000  0.000000 -0.000000 -0.000000
  0Cl  1dx2y2     0.000000 -0.000000  0.000000 -0.000000 -0.000000 -0.000000
  0Cl  1dxy      -0.000000 -0.000000 -0.000000  0.000000 -0.000000 -0.000000
  0Cl  2dz2      -0.000000 -0.000000 -0.000000 -0.000000  0.000000  0.000000
  0Cl  2dxz      -0.000000  0.000000 -0.000000  0.000000  0.000000 -0.000000
  0Cl  2dyz      -0.000000 -0.000000 -0.000000  0.000000  0.000000 -0.000000
  0Cl  2dx2y2     0.000000 -0.000000 -0.000000 -0.000000  0.000000  0.000000
  0Cl  2dxy      -0.000000 -0.000000 -0.000000  0.000000  0.000000  0.000000
  0Cl  1f0        0.001600  0.001357 -0.000102  0.000154  0.000251  0.000030
  0Cl  1f+1       0.000200  0.000021  0.002315 -0.000001  0.000028 -0.000678
  0Cl  1f-1       0.000532 -0.000662 -0.000310 -0.000103  0.000060  0.000091
  0Cl  1f+2      -0.001977 -0.001710  0.000127 -0.000195 -0.000311 -0.000037
  0Cl  1f-2       0.000604  0.000391 -0.000035  0.000041  0.000092  0.000010
  0Cl  1f+3       0.000877 -0.000950  0.002782 -0.000151  0.000101 -0.000815
  0Cl  1f-3       0.001962 -0.002348 -0.001175 -0.000368  0.000222  0.000344
                     12        13        14        15        16        17   
                   0.60278   0.64655   0.64655   0.68122   0.68122   0.69498
                   0.00000   0.00000   0.00000   0.00000   0.00000   0.00000
                  --------  --------  --------  --------  --------  --------
  0Cl  1s        -0.168024 -0.000000 -0.000000 -0.000000  0.000000 -0.007624
  0Cl  2s        -1.070897 -0.000000 -0.000000 -0.000000  0.000000 -0.050027
  0Cl  3s        -1.897902 -0.000000 -0.000000 -0.000000  0.000000 -0.123146
  0Cl  4s        -0.010666 -0.000000 -0.000000 -0.000000  0.000000 -0.007978
  0Cl  5s         1.963633  0.000000  0.000000  0.000000 -0.000000  0.077935
  0Cl  1pz       -0.000000 -0.000000 -0.000000  0.000000 -0.000000 -0.000000
  0Cl  1px       -0.000000  0.000000  0.000000 -0.000000  0.000000  0.000000
  0Cl  1py       -0.000000  0.000000  0.000000 -0.000000  0.000000  0.000000
  0Cl  2pz       -0.000000 -0.000000 -0.000000  0.000000 -0.000000 -0.000000
  0Cl  2px       -0.000000  0.000000  0.000000 -0.000000  0.000000  0.000000
  0Cl  2py       -0.000000  0.000000  0.000000 -0.000000  0.000000  0.000000
  0Cl  3pz        0.000000 -0.000000 -0.000000  0.000000 -0.000000  0.000000
  0Cl  3px       -0.000000  0.000000  0.000000 -0.000000  0.000000 -0.000000
  0Cl  3py       -0.000000  0.000000  0.000000 -0.000000  0.000000 -0.000000
  0Cl  4pz        0.000000  0.000000  0.000000 -0.000000  0.000000  0.000000
  0Cl  4px        0.000000 -0.000000 -0.000000  0.000000 -0.000000 -0.000000
  0Cl  4py        0.000000 -0.000000 -0.000000  0.000000 -0.000000 -0.000000
  0Cl  1dz2      -0.003342 -0.115823 -0.086464 -0.004443 -0.001605  0.073997
  0Cl  1dxz      -0.000204  0.010907 -0.019516  0.143371  0.051403  0.004510
  0Cl  1dyz       0.000027  0.099287 -0.132342 -0.018271 -0.009474 -0.000604
  0Cl  1dx2y2     0.005588 -0.064087 -0.048815 -0.011273  0.038951 -0.123726
  0Cl  1dxy      -0.001525  0.019320  0.010858 -0.051064  0.139254  0.033755
  0Cl  2dz2      -0.022982 -0.618329 -0.461595 -0.026018 -0.009398  0.450555
  0Cl  2dxz      -0.001401  0.058226 -0.104187  0.839652  0.301043  0.027462
  0Cl  2dyz       0.000188  0.530050 -0.706519 -0.107005 -0.055486 -0.003679
  0Cl  2dx2y2     0.038428 -0.342133 -0.260602 -0.066018  0.228118 -0.753344
  0Cl  2dxy      -0.010484  0.103143  0.057965 -0.299058  0.815539  0.205526
  0Cl  1f0        0.000000  0.000000 -0.000000  0.000000  0.000000  0.000000
  0Cl  1f+1      -0.000000 -0.000000  0.000000 -0.000000 -0.000000  0.000000
  0Cl  1f-1      -0.000000  0.000000  0.000000  0.000000 -0.000000 -0.000000
  0Cl  1f+2       0.000000  0.000000 -0.000000 -0.000000  0.000000 -0.000000
  0Cl  1f-2      -0.000000  0.000000  0.000000  0.000000  0.000000 -0.000000
  0Cl  1f+3       0.000000  0.000000 -0.000000  0.000000  0.000000 -0.000000
  0Cl  1f-3       0.000000 -0.000000  0.000000 -0.000000 -0.000000 -0.000000
                     18        19        20        21        22        23   
                   2.21475   2.21626   2.21626   2.22073   2.22073   2.38531
                   0.00000   0.00000   0.00000   0.00000   0.00000   0.00000
                  --------  --------  --------  --------  --------  --------
  0Cl  1s         0.000578 -0.000000  0.000000  0.000000  0.000000 -0.000000
  0Cl  2s         0.003294 -0.000000  0.000000  0.000000  0.000000 -0.000000
  0Cl  3s        -0.003610  0.000000 -0.000000 -0.000000 -0.000000 -0.000000
  0Cl  4s        -0.002885  0.000000 -0.000000 -0.000000 -0.000000  0.000000
  0Cl  5s        -0.006333  0.000000 -0.000000  0.000000 -0.000000  0.000000
  0Cl  1pz        0.000000 -0.000000 -0.000000 -0.000000  0.000000 -0.000731
  0Cl  1px       -0.000000 -0.000000 -0.000000 -0.000000 -0.000000  0.040845
  0Cl  1py       -0.000000 -0.000000  0.000000 -0.000000  0.000000 -0.005472
  0Cl  2pz        0.000000 -0.000000 -0.000000 -0.000000  0.000000 -0.000992
  0Cl  2px       -0.000000 -0.000000 -0.000000 -0.000000 -0.000000  0.055431
  0Cl  2py       -0.000000  0.000000  0.000000 -0.000000  0.000000 -0.007426
  0Cl  3pz       -0.000000  0.000000  0.000000  0.000000 -0.000000  0.000879
  0Cl  3px        0.000000  0.000000  0.000000  0.000000  0.000000 -0.049086
  0Cl  3py        0.000000  0.000000 -0.000000  0.000000 -0.000000  0.006576
  0Cl  4pz       -0.000000  0.000000  0.000000  0.000000 -0.000000  0.000317
  0Cl  4px        0.000000  0.000000  0.000000  0.000000  0.000000 -0.017691
  0Cl  4py        0.000000 -0.000000  0.000000 -0.000000 -0.000000  0.002370
  0Cl  1dz2       0.618349  0.029538  0.023923  0.215025 -1.047941  0.000000
  0Cl  1dxz       0.037689 -0.954270 -0.769136  0.165057  0.011694 -0.000000
  0Cl  1dyz      -0.005049  0.113897  0.120243  1.198948  0.248980  0.000000
  0Cl  1dx2y2    -1.033900  0.188490 -0.266364  0.125494 -0.582904  0.000000
  0Cl  1dxy       0.282066  0.755693 -0.923865 -0.011981  0.163593 -0.000000
  0Cl  2dz2      -0.429087 -0.020588 -0.016674 -0.151739  0.739514 -0.000000
  0Cl  2dxz      -0.026154  0.665114  0.536078 -0.116478 -0.008252  0.000000
  0Cl  2dyz       0.003504 -0.079385 -0.083808 -0.846078 -0.175701 -0.000000
  0Cl  2dx2y2     0.717448 -0.131375  0.185652 -0.088559  0.411346 -0.000000
  0Cl  2dxy      -0.195732 -0.526709  0.643922  0.008455 -0.115445  0.000000
  0Cl  1f0       -0.000000 -0.000000 -0.000000  0.000000 -0.000000  0.026585
  0Cl  1f+1      -0.000000  0.000000 -0.000000  0.000000 -0.000000 -0.605689
  0Cl  1f-1      -0.000000  0.000000 -0.000000  0.000000  0.000000  0.081139
  0Cl  1f+2       0.000000 -0.000000  0.000000 -0.000000 -0.000000 -0.033117
  0Cl  1f-2      -0.000000  0.000000 -0.000000  0.000000  0.000000  0.009035
  0Cl  1f+3      -0.000000  0.000000 -0.000000  0.000000  0.000000 -0.727718
  0Cl  1f-3       0.000000  0.000000 -0.000000 -0.000000 -0.000000  0.307249
                     24        25        26        27        28        29   
                   2.38629   2.38629   2.38904   2.38904   2.39291   2.39291
                   0.00000   0.00000   0.00000   0.00000   0.00000   0.00000
                  --------  --------  --------  --------  --------  --------
  0Cl  1s         0.000000 -0.000000  0.000000 -0.000000  0.000000  0.000000
  0Cl  2s         0.000000 -0.000000  0.000000 -0.000000  0.000000  0.000000
  0Cl  3s         0.000000 -0.000000  0.000000 -0.000000  0.000000  0.000000
  0Cl  4s        -0.000000  0.000000  0.000000  0.000000  0.000000  0.000000
  0Cl  5s        -0.000000  0.000000 -0.000000  0.000000 -0.000000 -0.000000
  0Cl  1pz        0.015163  0.033645 -0.000000  0.000000  0.000000 -0.000000
  0Cl  1px       -0.004201  0.002605 -0.000000  0.000000 -0.000000  0.000000
  0Cl  1py       -0.033388  0.014952 -0.000000  0.000000 -0.000000 -0.000000
  0Cl  2pz        0.020806  0.046165 -0.000000  0.000000  0.000000 -0.000000
  0Cl  2px       -0.005765  0.003575 -0.000000  0.000000 -0.000000  0.000000
  0Cl  2py       -0.045813  0.020516 -0.000000  0.000000 -0.000000 -0.000000
  0Cl  3pz       -0.018130 -0.040229  0.000000 -0.000000 -0.000000  0.000000
  0Cl  3px        0.005023 -0.003115  0.000000 -0.000000  0.000000 -0.000000
  0Cl  3py        0.039922 -0.017878  0.000000 -0.000000  0.000000  0.000000
  0Cl  4pz       -0.006726 -0.014924  0.000000 -0.000000 -0.000000  0.000000
  0Cl  4px        0.001864 -0.001156  0.000000 -0.000000  0.000000 -0.000000
  0Cl  4py        0.014810 -0.006632  0.000000 -0.000000  0.000000 -0.000000
  0Cl  1dz2      -0.000000  0.000000  0.000000  0.000000 -0.000000  0.000000
  0Cl  1dxz       0.000000  0.000000 -0.000000  0.000000  0.000000  0.000000
  0Cl  1dyz       0.000000  0.000000 -0.000000  0.000000 -0.000000  0.000000
  0Cl  1dx2y2    -0.000000  0.000000  0.000000 -0.000000 -0.000000  0.000000
  0Cl  1dxy      -0.000000  0.000000 -0.000000  0.000000 -0.000000  0.000000
  0Cl  2dz2       0.000000 -0.000000 -0.000000 -0.000000  0.000000 -0.000000
  0Cl  2dxz      -0.000000 -0.000000  0.000000 -0.000000 -0.000000 -0.000000
  0Cl  2dyz      -0.000000 -0.000000 -0.000000 -0.000000  0.000000 -0.000000
  0Cl  2dx2y2     0.000000 -0.000000 -0.000000  0.000000  0.000000 -0.000000
  0Cl  2dxy       0.000000 -0.000000  0.000000 -0.000000  0.000000 -0.000000
  0Cl  1f0       -0.251105 -0.557172  0.025417 -0.023091 -0.725632  0.312839
  0Cl  1f+1       0.010355 -0.057661 -0.581843  0.523549 -0.066508 -0.111280
  0Cl  1f-1       0.228146 -0.095721  0.058919 -0.091077 -0.377722 -0.881887
  0Cl  1f+2       0.319669  0.691351  0.170540  0.200438 -0.544859  0.228677
  0Cl  1f-2      -0.060718 -0.200553  0.650026  0.712059  0.139733 -0.083063
  0Cl  1f+3       0.336651 -0.169066  0.411954 -0.385657  0.049790  0.084527
  0Cl  1f-3       0.815488 -0.360198 -0.189785  0.145376  0.086515  0.213744
                     30        31        32        33   
                   2.53831   2.53831   2.55554   4.48892
                   0.00000   0.00000   0.00000   0.00000
                  --------  --------  --------  --------
  0Cl  1s         0.000000  0.000000 -0.000000 -0.802672
  0Cl  2s         0.000000  0.000000 -0.000000 -4.216965
  0Cl  3s         0.000000  0.000000 -0.000000 -3.566184
  0Cl  4s        -0.000000 -0.000000 -0.000000  3.742313
  0Cl  5s        -0.000000 -0.000000  0.000000  1.404938
  0Cl  1pz        1.413302 -0.674126  0.027714  0.000000
  0Cl  1px       -0.064669 -0.199534 -1.548261 -0.000000
  0Cl  1py       -0.671591 -1.399421  0.207407 -0.000000
  0Cl  2pz        1.856766 -0.885652  0.035969  0.000000
  0Cl  2px       -0.084961 -0.262144 -2.009458 -0.000000
  0Cl  2py       -0.882323 -1.838530  0.269189 -0.000000
  0Cl  3pz       -1.738764  0.829367 -0.034265 -0.000000
  0Cl  3px        0.079562  0.245484  1.914288  0.000000
  0Cl  3py        0.826249  1.721687 -0.256440  0.000000
  0Cl  4pz       -0.653357  0.311643 -0.012597 -0.000000
  0Cl  4px        0.029896  0.092243  0.703760  0.000000
  0Cl  4py        0.310471  0.646941 -0.094276  0.000000
  0Cl  1dz2       0.000000 -0.000000  0.000000  0.000410
  0Cl  1dxz      -0.000000  0.000000  0.000000  0.000025
  0Cl  1dyz       0.000000 -0.000000 -0.000000 -0.000003
  0Cl  1dx2y2     0.000000 -0.000000  0.000000 -0.000685
  0Cl  1dxy      -0.000000  0.000000  0.000000  0.000187
  0Cl  2dz2      -0.000000  0.000000 -0.000000  0.000188
  0Cl  2dxz       0.000000 -0.000000 -0.000000  0.000011
  0Cl  2dyz      -0.000000  0.000000  0.000000 -0.000002
  0Cl  2dx2y2    -0.000000  0.000000 -0.000000 -0.000315
  0Cl  2dxy       0.000000 -0.000000 -0.000000  0.000086
  0Cl  1f0        0.012900 -0.006153  0.000694  0.000000
  0Cl  1f+1       0.000686 -0.001186 -0.015813  0.000000
  0Cl  1f-1      -0.002627 -0.005155  0.002118  0.000000
  0Cl  1f+2      -0.016151  0.007512 -0.000865 -0.000000
  0Cl  1f-2       0.004114 -0.002663  0.000236 -0.000000
  0Cl  1f+3      -0.003456 -0.008104 -0.018998  0.000000
  0Cl  1f-3      -0.009116 -0.018749  0.008021 -0.000000



                    ********************************
                    * MULLIKEN POPULATION ANALYSIS *
                    ********************************

--------------------------------------------
MULLIKEN ATOMIC CHARGES AND SPIN POPULATIONS
--------------------------------------------
   0 Cl:    0.000000    1.000000
Sum of atomic charges         :    0.0000000
Sum of atomic spin populations:    1.0000000

-----------------------------------------------------
MULLIKEN REDUCED ORBITAL CHARGES AND SPIN POPULATIONS
-----------------------------------------------------
CHARGE
  0 Cls       :     5.995807  s :     5.995807
      pz      :     3.999438  p :    10.999166
      px      :     3.017600
      py      :     3.982128
      dz2     :     0.001046  d :     0.004193
      dxz     :     0.000004
      dyz     :     0.000000
      dx2y2   :     0.002925
      dxy     :     0.000218
      f0      :     0.000093  f :     0.000834
      f+1     :     0.000125
      f-1     :     0.000017
      f+2     :     0.000144
      f-2     :     0.000011
      f+3     :     0.000215
      f-3     :     0.000229

SPIN
  0 Cls       :     0.000779  s :     0.000779
      pz      :     0.000091  p :     0.999213
      px      :     0.981724
      py      :     0.017398
      dz2     :    -0.000194  d :    -0.000779
      dxz     :    -0.000001
      dyz     :    -0.000000
      dx2y2   :    -0.000543
      dxy     :    -0.000040
      f0      :     0.000084  f :     0.000787
      f+1     :     0.000125
      f-1     :     0.000016
      f+2     :     0.000130
      f-2     :     0.000010
      f+3     :     0.000212
      f-3     :     0.000210


                     *******************************
                     * LOEWDIN POPULATION ANALYSIS *
                     *******************************

-------------------------------------------
LOEWDIN ATOMIC CHARGES AND SPIN POPULATIONS
-------------------------------------------
   0 Cl:    0.000000    1.000000

----------------------------------------------------
LOEWDIN REDUCED ORBITAL CHARGES AND SPIN POPULATIONS
----------------------------------------------------
CHARGE
  0 Cls       :     5.995807  s :     5.995807
      pz      :     3.999438  p :    10.999166
      px      :     3.017600
      py      :     3.982128
      dz2     :     0.001046  d :     0.004193
      dxz     :     0.000004
      dyz     :     0.000000
      dx2y2   :     0.002925
      dxy     :     0.000218
      f0      :     0.000093  f :     0.000834
      f+1     :     0.000125
      f-1     :     0.000017
      f+2     :     0.000144
      f-2     :     0.000011
      f+3     :     0.000215
      f-3     :     0.000229

SPIN
  0 Cls       :     0.000779  s :     0.000779
      pz      :     0.000091  p :     0.999213
      px      :     0.981724
      py      :     0.017398
      dz2     :    -0.000194  d :    -0.000779
      dxz     :    -0.000001
      dyz     :    -0.000000
      dx2y2   :    -0.000543
      dxy     :    -0.000040
      f0      :     0.000084  f :     0.000787
      f+1     :     0.000125
      f-1     :     0.000016
      f+2     :     0.000130
      f-2     :     0.000010
      f+3     :     0.000212
      f-3     :     0.000210


                      *****************************
                      * MAYER POPULATION ANALYSIS *
                      *****************************

  NA   - Mulliken gross atomic population
  ZA   - Total nuclear charge
  QA   - Mulliken gross atomic charge
  VA   - Mayer's total valence
  BVA  - Mayer's bonded valence
  FA   - Mayer's free valence

  ATOM       NA         ZA         QA         VA         BVA        FA
  0 Cl    17.0000    17.0000     0.0000     1.0186     0.0000     1.0186

  Mayer bond orders larger than 0.100000


Now starting NBO....

 *********************************** NBO 7.0 ***********************************
             N A T U R A L   A T O M I C   O R B I T A L   A N D
          N A T U R A L   B O N D   O R B I T A L   A N A L Y S I S
 *********************** Giovanni  F. Caramori (I101916) ***********************
  (c) Copyright 1996-2020 Board of Regents of the University of Wisconsin System
      on behalf of the Theoretical Chemistry Institute.  All rights reserved.

          Cite this program [NBO 7.0.8 (11-Feb-2020)] as:

          NBO 7.0.  E. D. Glendening, J. K. Badenhoop, A. E. Reed,
          J. E. Carpenter, J. A. Bohmann, C. M. Morales, P. Karafiloglou,
          C. R. Landis, and F. Weinhold, Theoretical Chemistry Institute,
          University of Wisconsin, Madison, WI (2018)

       /NPA    / : Natural Population Analysis
       /NBO    / : Natural Bond Orbital Analysis
       /AONBO  / : Checkpoint the AO to NBO transformation
       /ARCHIVE/ : Write the archive file to lfn47

 Job title: ORCA Job: Cl·


 NATURAL POPULATIONS:  Natural atomic orbital occupancies

  NAO Atom No lang   Type(AO)    Occupancy     Spin
 -----------------------------------------------------
   1   Cl  1  s      Cor( 1s)     2.00000     0.00000
   2   Cl  1  s      Cor( 2s)     2.00000     0.00000
   3   Cl  1  s      Val( 3s)     1.99577     0.00078
   4   Cl  1  s      Ryd( 4s)     0.00004     0.00000
   5   Cl  1  s      Ryd( 5s)     0.00000     0.00000
   6   Cl  1  px     Cor( 2p)     1.99999     0.00001
   7   Cl  1  px     Val( 3p)     1.01680     0.98093
   8   Cl  1  px     Ryd( 4p)     0.00080     0.00079
   9   Cl  1  px     Ryd( 5p)     0.00000     0.00000
  10   Cl  1  py     Cor( 2p)     2.00000     0.00000
  11   Cl  1  py     Val( 3p)     1.98196     0.01753
  12   Cl  1  py     Ryd( 4p)     0.00017    -0.00014
  13   Cl  1  py     Ryd( 5p)     0.00000     0.00000
  14   Cl  1  pz     Cor( 2p)     2.00000     0.00000
  15   Cl  1  pz     Val( 3p)     1.99928     0.00024
  16   Cl  1  pz     Ryd( 4p)     0.00016    -0.00015
  17   Cl  1  pz     Ryd( 5p)     0.00000     0.00000
  18   Cl  1  dxy    Ryd( 3d)     0.00022    -0.00004
  19   Cl  1  dxy    Ryd( 4d)     0.00000     0.00000
  20   Cl  1  dxz    Ryd( 3d)     0.00000     0.00000
  21   Cl  1  dxz    Ryd( 4d)     0.00000     0.00000
  22   Cl  1  dyz    Ryd( 3d)     0.00000     0.00000
  23   Cl  1  dyz    Ryd( 4d)     0.00000     0.00000
  24   Cl  1  dx2y2  Ryd( 3d)     0.00292    -0.00054
  25   Cl  1  dx2y2  Ryd( 4d)     0.00001     0.00000
  26   Cl  1  dz2    Ryd( 3d)     0.00104    -0.00019
  27   Cl  1  dz2    Ryd( 4d)     0.00000     0.00000
  28   Cl  1  f(0)   Ryd( 4f)     0.00009     0.00008
  29   Cl  1  f(c1)  Ryd( 4f)     0.00013     0.00013
  30   Cl  1  f(s1)  Ryd( 4f)     0.00002     0.00002
  31   Cl  1  f(c2)  Ryd( 4f)     0.00014     0.00013
  32   Cl  1  f(s2)  Ryd( 4f)     0.00001     0.00001
  33   Cl  1  f(c3)  Ryd( 4f)     0.00022     0.00021
  34   Cl  1  f(s3)  Ryd( 4f)     0.00023     0.00021


 Summary of Natural Population Analysis:

                                     Natural Population                 Natural
             Natural    ---------------------------------------------    Spin
  Atom No    Charge        Core      Valence    Rydberg      Total      Density
 -------------------------------------------------------------------------------
   Cl  1    0.00000      9.99999     6.99381    0.00620    17.00000     1.00000
 ===============================================================================
 * Total *  0.00000      9.99999     6.99381    0.00620    17.00000     1.00000

                                 Natural Population
 ---------------------------------------------------------
   Core                       9.99999 ( 99.9999% of   10)
   Valence                    6.99381 ( 99.9115% of    7)
   Natural Minimal Basis     16.99380 ( 99.9635% of   17)
   Natural Rydberg Basis      0.00620 (  0.0365% of   17)
 ---------------------------------------------------------

    Atom No         Natural Electron Configuration
 ----------------------------------------------------------------------------
     Cl  1      [core]3s( 2.00)3p( 5.00)


 ***************************************************
 *******         Alpha spin orbitals         *******
 ***************************************************


 NATURAL POPULATIONS:  Natural atomic orbital occupancies

  NAO Atom No lang   Type(AO)    Occupancy      Energy
 -------------------------------------------------------
   1   Cl  1  s      Cor( 1s)     1.00000    -104.86370
   2   Cl  1  s      Cor( 2s)     1.00000     -10.63305
   3   Cl  1  s      Val( 3s)     0.99827      -1.13327
   4   Cl  1  s      Ryd( 4s)     0.00002       0.81057
   5   Cl  1  s      Ryd( 5s)     0.00000       4.23515
   6   Cl  1  px     Cor( 2p)     1.00000      -8.09562
   7   Cl  1  px     Val( 3p)     0.99887      -0.57695
   8   Cl  1  px     Ryd( 4p)     0.00080       0.44631
   9   Cl  1  px     Ryd( 5p)     0.00000       2.47673
  10   Cl  1  py     Cor( 2p)     1.00000      -8.07195
  11   Cl  1  py     Val( 3p)     0.99975      -0.50218
  12   Cl  1  py     Ryd( 4p)     0.00002       0.47967
  13   Cl  1  py     Ryd( 5p)     0.00000       2.52782
  14   Cl  1  pz     Cor( 2p)     1.00000      -8.07153
  15   Cl  1  pz     Val( 3p)     0.99976      -0.50084
  16   Cl  1  pz     Ryd( 4p)     0.00000       0.48027
  17   Cl  1  pz     Ryd( 5p)     0.00000       2.52874
  18   Cl  1  dxy    Ryd( 3d)     0.00009       0.67672
  19   Cl  1  dxy    Ryd( 4d)     0.00000       2.09437
  20   Cl  1  dxz    Ryd( 3d)     0.00000       0.67762
  21   Cl  1  dxz    Ryd( 4d)     0.00000       2.09503
  22   Cl  1  dyz    Ryd( 3d)     0.00000       0.72609
  23   Cl  1  dyz    Ryd( 4d)     0.00000       2.13184
  24   Cl  1  dx2y2  Ryd( 3d)     0.00119       0.67638
  25   Cl  1  dx2y2  Ryd( 4d)     0.00000       2.09446
  26   Cl  1  dz2    Ryd( 3d)     0.00042       0.71009
  27   Cl  1  dz2    Ryd( 4d)     0.00000       2.11982
  28   Cl  1  f(0)   Ryd( 4f)     0.00009       2.36886
  29   Cl  1  f(c1)  Ryd( 4f)     0.00013       2.34270
  30   Cl  1  f(s1)  Ryd( 4f)     0.00002       2.38731
  31   Cl  1  f(c2)  Ryd( 4f)     0.00014       2.35346
  32   Cl  1  f(s2)  Ryd( 4f)     0.00001       2.35342
  33   Cl  1  f(c3)  Ryd( 4f)     0.00021       2.33422
  34   Cl  1  f(s3)  Ryd( 4f)     0.00022       2.33422


 Summary of Natural Population Analysis:

                                     Natural Population
             Natural    ---------------------------------------------
  Atom No    Charge        Core      Valence    Rydberg      Total
 --------------------------------------------------------------------
   Cl  1   -0.50000      5.00000     3.99665    0.00335     9.00000
 ====================================================================
 * Total * -0.50000      5.00000     3.99665    0.00335     9.00000

                                 Natural Population
 ---------------------------------------------------------
   Core                       5.00000 (100.0000% of    5)
   Valence                    3.99665 ( 99.9162% of    4)
   Natural Minimal Basis      8.99665 ( 99.9627% of    9)
   Natural Rydberg Basis      0.00335 (  0.0373% of    9)
 ---------------------------------------------------------

    Atom No         Natural Electron Configuration
 ----------------------------------------------------------------------------
     Cl  1      [core]3s( 1.00)3p( 3.00)


 NATURAL BOND ORBITAL ANALYSIS, alpha spin orbitals:

                            Occupancies       Lewis Structure    Low   High
         Max    Occ     -------------------  -----------------   occ   occ
  Cycle  Ctr   Thresh    Lewis   non-Lewis     CR  BD  nC  LP    (L)   (NL)
 ============================================================================
    1     1     0.50     9.00000   0.00000      5   0   0   4     0      0
 ----------------------------------------------------------------------------

 Structure accepted: No low occupancy Lewis orbitals

 -------------------------------------------------------
   Core                      5.00000 (100.000% of   5)
   Valence Lewis             4.00000 (100.000% of   4)
  ==================      =============================
   Total Lewis               9.00000 (100.000% of   9)
  -----------------------------------------------------
   Valence non-Lewis         0.00000 (  0.000% of   9)
   Rydberg non-Lewis         0.00000 (  0.000% of   9)
  ==================      =============================
   Total non-Lewis           0.00000 (  0.000% of   9)
 -------------------------------------------------------


     (Occupancy)   Bond orbital / Coefficients / Hybrids
 ------------------ Lewis ------------------------------------------------------
   1. (1.00000) CR ( 1)Cl  1            s(100.00%)
                                         1.0000  0.0000  0.0000  0.0000  0.0000
                                         0.0000  0.0000  0.0000  0.0000  0.0000
                                         0.0000  0.0000  0.0000  0.0000  0.0000
                                         0.0000  0.0000  0.0000  0.0000  0.0000
                                         0.0000  0.0000  0.0000  0.0000  0.0000
                                         0.0000  0.0000  0.0000  0.0000  0.0000
                                         0.0000  0.0000  0.0000  0.0000
   2. (1.00000) CR ( 2)Cl  1            s(100.00%)
                                         0.0000  1.0000  0.0000  0.0000  0.0000
                                         0.0000  0.0000  0.0000  0.0000  0.0000
                                         0.0000  0.0000  0.0000  0.0000  0.0000
                                         0.0000  0.0000  0.0000  0.0000  0.0000
                                         0.0000  0.0000  0.0000  0.0000  0.0000
                                         0.0000  0.0000  0.0000  0.0000  0.0000
                                         0.0000  0.0000  0.0000  0.0000
   3. (1.00000) CR ( 3)Cl  1            s(  0.00%)p 1.00(100.00%)
                                         0.0000  0.0000  0.0000  0.0000  0.0000
                                         1.0000  0.0000  0.0000  0.0000  0.0000
                                         0.0000  0.0000  0.0000  0.0000  0.0000
                                         0.0000  0.0000  0.0000  0.0000  0.0000
                                         0.0000  0.0000  0.0000  0.0000  0.0000
                                         0.0000  0.0000  0.0000  0.0000  0.0000
                                         0.0000  0.0000  0.0000  0.0000
   4. (1.00000) CR ( 4)Cl  1            s(  0.00%)p 1.00(100.00%)
                                         0.0000  0.0000  0.0000  0.0000  0.0000
                                         0.0000  0.0000  0.0000  0.0000  1.0000
                                         0.0000  0.0000  0.0000  0.0000  0.0000
                                         0.0000  0.0000  0.0000  0.0000  0.0000
                                         0.0000  0.0000  0.0000  0.0000  0.0000
                                         0.0000  0.0000  0.0000  0.0000  0.0000
                                         0.0000  0.0000  0.0000  0.0000
   5. (1.00000) CR ( 5)Cl  1            s(  0.00%)p 1.00(100.00%)
                                         0.0000  0.0000  0.0000  0.0000  0.0000
                                         0.0000  0.0000  0.0000  0.0000  0.0000
                                         0.0000  0.0000  0.0000  1.0000  0.0000
                                         0.0000  0.0000  0.0000  0.0000  0.0000
                                         0.0000  0.0000  0.0000  0.0000  0.0000
                                         0.0000  0.0000  0.0000  0.0000  0.0000
                                         0.0000  0.0000  0.0000  0.0000
   6. (1.00000) LP ( 1)Cl  1            s( 99.83%)p 0.00(  0.00%)d 0.00(  0.17%)
                                         0.0000  0.0000  0.9991  0.0044  0.0000
                                         0.0000  0.0000  0.0000  0.0000  0.0000
                                         0.0000  0.0000  0.0000  0.0000  0.0000
                                         0.0000  0.0000 -0.0094 -0.0005 -0.0013
                                        -0.0001  0.0002  0.0000  0.0345  0.0017
                                        -0.0206 -0.0010  0.0000  0.0000  0.0000
                                         0.0000  0.0000  0.0000  0.0000
   7. (1.00000) LP ( 2)Cl  1            s(  0.00%)p 1.00( 99.97%)d 0.00(  0.00%)
                                                  f 0.00(  0.03%)
                                         0.0000  0.0000  0.0000  0.0000  0.0000
                                         0.0000  0.9994 -0.0279  0.0001  0.0000
                                         0.0000  0.0040  0.0000  0.0000  0.0000
                                         0.0005  0.0000  0.0000  0.0000  0.0000
                                         0.0000  0.0000  0.0000  0.0000  0.0000
                                         0.0000  0.0000  0.0003 -0.0111  0.0010
                                        -0.0004  0.0001 -0.0141  0.0038
   8. (1.00000) LP ( 3)Cl  1            s(  0.00%)p 1.00( 99.98%)d 0.00(  0.00%)
                                                  f 0.00(  0.02%)
                                         0.0000  0.0000  0.0000  0.0000  0.0000
                                         0.0000  0.0001  0.0040  0.0000  0.0000
                                         0.9999  0.0012 -0.0001  0.0000  0.0000
                                        -0.0001  0.0000  0.0000  0.0000  0.0000
                                         0.0000  0.0000  0.0000  0.0000  0.0000
                                         0.0000  0.0000  0.0000  0.0010 -0.0040
                                        -0.0001 -0.0004 -0.0039 -0.0143
   9. (1.00000) LP ( 4)Cl  1            s(  0.00%)p 1.00( 99.98%)d 0.00(  0.00%)
                                                  f 0.00(  0.02%)
                                         0.0000  0.0000  0.0000  0.0000  0.0000
                                         0.0000  0.0000  0.0005  0.0000  0.0000
                                         0.0000 -0.0001  0.0000  0.0000  0.9999
                                         0.0017 -0.0001  0.0000  0.0000  0.0000
                                         0.0000  0.0000  0.0000  0.0000  0.0000
                                         0.0000  0.0000 -0.0094 -0.0005  0.0001
                                         0.0117 -0.0032  0.0000  0.0000
 ---------------- non-Lewis ----------------------------------------------------
  10. (0.00000) RY ( 1)Cl  1            s( 98.33%)p 0.00(  0.00%)d 0.02(  1.67%)
  11. (0.00000) RY ( 2)Cl  1            s( 83.73%)p 0.00(  0.00%)d 0.19( 16.27%)
  12. (0.00000) RY ( 3)Cl  1            s(  0.00%)p 1.00( 53.40%)d 0.00(  0.00%)
                                                  f 0.87( 46.60%)
  13. (0.00000) RY ( 4)Cl  1            s(  0.00%)p 1.00( 98.59%)d 0.00(  0.00%)
                                                  f 0.01(  1.41%)
  14. (0.00000) RY ( 5)Cl  1            s(  0.00%)p 1.00( 99.73%)d 0.00(  0.00%)
                                                  f 0.00(  0.27%)
  15. (0.00000) RY ( 6)Cl  1            s(  0.00%)p 1.00( 69.90%)d 0.00(  0.00%)
                                                  f 0.43( 30.10%)
  16. (0.00000) RY ( 7)Cl  1            s(  0.00%)p 1.00(100.00%)d 0.00(  0.00%)
                                                  f 0.00(  0.00%)
  17. (0.00000) RY ( 8)Cl  1            s(  0.00%)p 1.00( 69.90%)d 0.00(  0.00%)
                                                  f 0.43( 30.10%)
  18. (0.00000) RY ( 9)Cl  1            s(  0.78%)p 0.00(  0.00%)d99.99( 99.22%)
  19. (0.00000) RY (10)Cl  1            s(  0.11%)p 0.00(  0.00%)d99.99( 99.89%)
  20. (0.00000) RY (11)Cl  1            s(  0.01%)p 0.00(  0.00%)d99.99( 99.99%)
  21. (0.00000) RY (12)Cl  1            s(  0.00%)p 0.00(  0.00%)d 1.00(100.00%)
  22. (0.00000) RY (13)Cl  1            s(  0.00%)p 0.00(  0.00%)d 1.00(100.00%)
  23. (0.00000) RY (14)Cl  1            s(  0.00%)p 0.00(  0.00%)d 1.00(100.00%)
  24. (0.00000) RY (15)Cl  1            s( 10.29%)p 0.00(  0.00%)d 8.72( 89.71%)
  25. (0.00000) RY (16)Cl  1            s(  3.38%)p 0.00(  0.00%)d28.57( 96.62%)
  26. (0.00000) RY (17)Cl  1            s(  3.04%)p 0.00(  0.00%)d31.89( 96.96%)
  27. (0.00000) RY (18)Cl  1            s(  0.49%)p 0.00(  0.00%)d99.99( 99.51%)
  28. (0.00000) RY (19)Cl  1            s(  0.00%)p 1.00( 13.91%)d 0.00(  0.00%)
                                                  f 6.19( 86.09%)
  29. (0.00000) RY (20)Cl  1            s(  0.00%)p 1.00( 25.49%)d 0.00(  0.00%)
                                                  f 2.92( 74.51%)
  30. (0.00000) RY (21)Cl  1            s(  0.00%)p 1.00(  2.66%)d 0.00(  0.00%)
                                                  f36.57( 97.34%)
  31. (0.00000) RY (22)Cl  1            s(  0.00%)p 1.00( 15.29%)d 0.00(  0.00%)
                                                  f 5.54( 84.71%)
  32. (0.00000) RY (23)Cl  1            s(  0.00%)p 1.00(  0.94%)d 0.00(  0.00%)
                                                  f99.99( 99.06%)
  33. (0.00000) RY (24)Cl  1            s(  0.00%)p 1.00( 23.67%)d 0.00(  0.00%)
                                                  f 3.22( 76.33%)
  34. (0.00000) RY (25)Cl  1            s(  0.00%)p 1.00( 26.61%)d 0.00(  0.00%)
                                                  f 2.76( 73.39%)


 NHO DIRECTIONALITY AND BOND BENDING (deviation from line of nuclear centers at
                                      the position of maximum hybrid amplitude)

         [Thresholds for printing:  angular deviation  >  1.0 degree]
                                    p- or d-character  > 25.0%
                                    orbital occupancy  >  0.10e

                        Line of Centers        Hybrid 1             Hybrid 2
                        ---------------  -------------------  ------------------
           NBO            Theta   Phi    Theta   Phi    Dev   Theta   Phi    Dev
 ===============================================================================
   7. LP ( 2)Cl  1          --     --     89.9  180.5   --      --     --    --
   8. LP ( 3)Cl  1          --     --     90.0  269.6   --      --     --    --
   9. LP ( 4)Cl  1          --     --      0.1  172.4   --      --     --    --


[...]
  23. (0.00000) RY (14)Cl  1            s(  0.00%)p 0.00(  0.00%)d 1.00(100.00%)
  24. (0.00000) RY (15)Cl  1            s(  0.13%)p 0.00(  0.00%)d99.99( 99.87%)
  25. (0.00000) RY (16)Cl  1            s( 13.23%)p 0.00(  0.00%)d 6.56( 86.77%)
  26. (0.00000) RY (17)Cl  1            s(  0.25%)p 0.00(  0.00%)d99.99( 99.75%)
  27. (0.00000) RY (18)Cl  1            s(  0.36%)p 0.00(  0.00%)d99.99( 99.64%)
  28. (0.00000) RY (19)Cl  1            s(  0.00%)p 1.00(  1.18%)d 0.00(  0.00%)
                                                  f83.47( 98.82%)
  29. (0.00000) RY (20)Cl  1            s(  0.00%)p 1.00(  0.11%)d 0.00(  0.00%)
                                                  f99.99( 99.89%)
  30. (0.00000) RY (21)Cl  1            s(  0.00%)p 1.00(  0.20%)d 0.00(  0.00%)
                                                  f99.99( 99.80%)
  31. (0.00000) RY (22)Cl  1            s(  0.00%)p 1.00(  1.78%)d 0.00(  0.00%)
                                                  f55.04( 98.22%)
  32. (0.00000) RY (23)Cl  1            s(  0.00%)p 1.00(  0.13%)d 0.00(  0.00%)
                                                  f99.99( 99.87%)
  33. (0.00000) RY (24)Cl  1            s(  0.00%)p 1.00(  0.60%)d 0.00(  0.00%)
                                                  f99.99( 99.40%)
  34. (0.00000) RY (25)Cl  1            s(  0.00%)p 1.00(  2.48%)d 0.00(  0.00%)
                                                  f39.28( 97.52%)


 NHO DIRECTIONALITY AND BOND BENDING (deviation from line of nuclear centers at
                                      the position of maximum hybrid amplitude)

         [Thresholds for printing:  angular deviation  >  1.0 degree]
                                    p- or d-character  > 25.0%
                                    orbital occupancy  >  0.10e

                        Line of Centers        Hybrid 1             Hybrid 2
                        ---------------  -------------------  ------------------
           NBO            Theta   Phi    Theta   Phi    Dev   Theta   Phi    Dev
 ===============================================================================
   7. LP ( 2)Cl  1          --     --     90.0  262.4   --      --     --    --
   8. LP ( 3)Cl  1          --     --      1.0  352.4   --      --     --    --


 SECOND ORDER PERTURBATION THEORY ANALYSIS OF FOCK MATRIX IN NBO BASIS

     Threshold for printing:   0.25 kcal/mol
                                                          E(2) E(NL)-E(L) F(L,NL)
      Donor (L) NBO              Acceptor (NL) NBO      kcal/mol   a.u.    a.u.
 ===============================================================================

 within unit  1
       None above threshold


 NATURAL BOND ORBITALS (Summary):

                                                     Principal Delocalizations
           NBO                 Occupancy    Energy   (geminal,vicinal,remote)
 ===============================================================================
 Molecular unit  1  (Cl)
 ------ Lewis --------------------------------------
    1. CR ( 1)Cl  1             1.00000  -104.85282
    2. CR ( 2)Cl  1             1.00000   -10.62192
    3. CR ( 3)Cl  1             0.99999    -8.04734
    4. CR ( 4)Cl  1             1.00000    -8.06548
    5. CR ( 5)Cl  1             1.00000    -8.06580
    6. LP ( 1)Cl  1             1.00000    -1.01485
    7. LP ( 2)Cl  1             1.00000    -0.47964
    8. LP ( 3)Cl  1             1.00000    -0.47964
 ------ non-Lewis ----------------------------------
    9. LV ( 1)Cl  1             0.00000    -0.01856
   10. RY ( 1)Cl  1             0.00001     2.27614
   11. RY ( 2)Cl  1             0.00000     1.93784
   12. RY ( 3)Cl  1             0.00000     3.01996
   13. RY ( 4)Cl  1             0.00000     0.79051
   14. RY ( 5)Cl  1             0.00000     1.08654
   15. RY ( 6)Cl  1             0.00000     1.94747
   16. RY ( 7)Cl  1             0.00000     1.09167
   17. RY ( 8)Cl  1             0.00000     1.94747
   18. RY ( 9)Cl  1             0.00000     1.18537
   19. RY (10)Cl  1             0.00000     1.54211
   20. RY (11)Cl  1             0.00000     0.77153
   21. RY (12)Cl  1             0.00000     2.12540
   22. RY (13)Cl  1             0.00000     0.73250
   23. RY (14)Cl  1             0.00000     2.13532
   24. RY (15)Cl  1             0.00000     0.87535
   25. RY (16)Cl  1             0.00000     2.33293
   26. RY (17)Cl  1             0.00000     0.86396
   27. RY (18)Cl  1             0.00000     2.00868
   28. RY (19)Cl  1             0.00000     2.38458
   29. RY (20)Cl  1             0.00000     2.38775
   30. RY (21)Cl  1             0.00000     2.39146
   31. RY (22)Cl  1             0.00000     2.38010
   32. RY (23)Cl  1             0.00000     2.38837
   33. RY (24)Cl  1             0.00000     2.38456
   34. RY (25)Cl  1             0.00000     2.37490
          -------------------------------
                 Total Lewis    7.99999  ( 99.9999%)
           Valence non-Lewis    0.00000  (  0.0000%)
           Rydberg non-Lewis    0.00001  (  0.0001%)
          -------------------------------
               Total unit  1    8.00000  (100.0000%)
              Charge unit  1    0.50000

 $CHOOSE
  ALPHA
   LONE 1 4 END
  END
  BETA
   LONE 1 3 END
  END
 $END

 NBO analysis completed in 0.07 CPU seconds (0 wall seconds)
 Maximum scratch memory used by NBO was 442271 words (3.37 MB)
Stopping NBO...Storing NBOs: Cl·.nbo

                                *** returned from  NBO  program ***

-------
TIMINGS
-------

Total SCF time: 0 days 0 hours 0 min 2 sec 

Total time                  ....       2.700 sec
Sum of individual times     ....       2.465 sec  ( 91.3%)

Fock matrix formation       ....       2.346 sec  ( 86.9%)
Diagonalization             ....       0.007 sec  (  0.3%)
Density matrix formation    ....       0.001 sec  (  0.0%)
Population analysis         ....       0.106 sec  (  3.9%)
Initial guess               ....       0.003 sec  (  0.1%)
Orbital Transformation      ....       0.000 sec  (  0.0%)
Orbital Orthonormalization  ....       0.000 sec  (  0.0%)
DIIS solution               ....       0.003 sec  (  0.1%)


           ************************************************************
           *        Program running with 6 parallel MPI-processes     *
           *              working on a common directory               *
           ************************************************************

------------------------------------------------------------------------------
                                ORCA  MP2 
------------------------------------------------------------------------------


----------
MP2 ENERGY (disk based algorithm)
----------

Dimension of the basis                    ...   34
Memory devoted to MP2                     ... 3000 MB   
Data format for buffers                   ... DOUBLE
Compression type for matrix containers    ... UNCOMPRESSED

-------------------------------
PARTIAL EXCHANGE TRANSFORMATION
-------------------------------

Transformation type                        ... two-operators
Generation of integrals (i,mue|j,nue)      ... ON
Generation of integrals (mue,kappa|nue,tau)... OFF
Generation of integrals (i,mue|a,nue)      ... OFF
Dimension of the basis                     ...   34
Number of internal alpha-MOs               ...    9 (   0-   8)
Number of internal beta-MOs                ...    8 (   0-   7)
Pair cutoff                                ... 2.500e-12 Eh
Number of AO pairs in the trafo            ...  595
Total Number of distinct AO pairs          ...  595
Memory devoted for trafo                   ... 3000.0 MB 
Max. Number of MO pairs treated together   ... 340152      
Number Format for Storage                  ... Double (8 Byte)
Integral package used                      ... LIBINT

Starting integral evaluation:
    ... done with AO integral generation
Closing buffer AOK[aa] ( 0.00 GB; CompressionRatio= 1.60)
Closing buffer AOK[bb] ( 0.00 GB; CompressionRatio= 1.55)
Closing buffer AOK[ab] ( 0.00 GB; CompressionRatio= 1.55)
Closing buffer AOK[ba] ( 0.00 GB; CompressionRatio= 1.59)
Collecting buffer AOK 
Number of alpha/alpha MO pairs in trafo    ...   45
Number of beta /beta  MO pairs in trafo    ...   36
Number of alpha/ beta MO pairs in trafo    ...   72
------------------------
SORTING OF (i,mue|j,nue)
------------------------

SORTING OF ALPHA/ALPHA PAIRS
IBATCH = 1 of  1
Closing buffer KAO[aa] ( 0.00 GB; CompressionRatio= 1.00)
Collecting buffer KAO 
SORTING OF BETA /BETA  PAIRS
IBATCH = 1 of  1
Closing buffer KAO[bb] ( 0.00 GB; CompressionRatio= 1.00)
Collecting buffer KAO 
SORTING OF ALPHA/BETA  PAIRS
IBATCH = 1 of  1
Closing buffer KAO[ab] ( 0.00 GB; CompressionRatio= 0.998704103672)
Collecting buffer KAO[ab] 
N(AO-Batches) Done                         ...      1152 
N(AO-Batches) Skipped                      ...         0 
N(IJ)-pairs Skipped                        ...         0 
TOTAL TIME for half transformation         ...     0.536 sec
AO-integral generation                     ...     0.338 sec
Half transformation                        ...     0.005 sec
K-integral sorting                         ...     0.011 sec

Finished integral transformation - now doing MP2 part

OPERATOR COMBINATION   0   0: ij=(  0..  8,  0..  8)
Process 4:   Internal MO   8
Process 1:   Internal MO   2
Process 2:   Internal MO   5
Process 1:   Internal MO   2
Process 4:   Internal MO   8
OPERATOR COMBINATION   0   1: ij=(  0..  8,  0..  7)
Process 2:   Internal MO   5
Process 1:   Internal MO   2
OPERATOR COMBINATION   1   1: ij=(  0..  7,  0..  7)
Process 2:   Internal MO   5

Correlation energy components
 E2 and T2 for alpha/alpha pairs :     -0.029877578 Eh 
 E2 and T2 for beta/beta   pairs :     -0.016604267 Eh 
 E2 and T2 for alpha/beta  pairs :     -0.143798463 Eh 

-----------------------------------------------
 MP2 CORRELATION ENERGY   :     -0.190280307 Eh
-----------------------------------------------


-------
TIMINGS
-------
Total time                :    0.638 sec
Integral trafo            :    0.537 sec ( 84.1%)
K(i,j)                    :    0.000 sec (  0.1%)
T(i,j)                    :    0.000 sec (  0.0%)

---------------------------------------
MP2 TOTAL ENERGY:     -459.675714034 Eh
---------------------------------------

-------------------------   --------------------
FINAL SINGLE POINT ENERGY      -459.675714034092
-------------------------   --------------------


                            ***************************************
                            *     ORCA property calculations      *
                            ***************************************


  WARNING: The energy has been calculated at the MP2 level but the densities
           used in the property calculations are still SCF densities
           MP2 response densities have not been calculated 
           use %mp2 Density relaxed end
           or  %mp2 Density unrelaxed end

                                    ---------------------
                                    Active property flags
                                    ---------------------
   (+) Dipole Moment


------------------------------------------------------------------------------
                       ORCA ELECTRIC PROPERTIES CALCULATION
------------------------------------------------------------------------------

Dipole Moment Calculation                       ... on
Quadrupole Moment Calculation                   ... off
Polarizability Calculation                      ... off
GBWName                                         ... Cl·.gbw
Electron density file                           ... Cl·.scfp
The origin for moment calculation is the CENTER OF MASS  = ( 0.000000,  0.000000  0.000000)

-------------
DIPOLE MOMENT
-------------
                                X             Y             Z
Electronic contribution:     -0.00000      -0.00000       0.00000
Nuclear contribution   :      0.00000       0.00000       0.00000
                        -----------------------------------------
Total Dipole Moment    :     -0.00000      -0.00000       0.00000
                        -----------------------------------------
Magnitude (a.u.)       :      0.00000
Magnitude (Debye)      :      0.00000



--------------------
Rotational spectrum 
--------------------
 
Rotational constants in cm-1:     0.000000     0.000000     0.000000 
Rotational constants in MHz :     0.000000     0.000000     0.000000 

 Dipole components along the rotational axes: 
x,y,z [a.u.] :    -0.000000    -0.000000     0.000000 
x,y,z [Debye]:    -0.000000    -0.000000     0.000000 

 
------------------------------------------------------------------------------
                         ORCA MP2 H E S S I A N CALCULATION
------------------------------------------------------------------------------

Calculating analytic MP2 second derivatives ... (>Cl·.last_mp2) done
Warning: T+R mode no 3 is zero 
Warning: T+R mode no 4 is zero 
Warning: T+R mode no 5 is zero 
WARNING     : the number of degrees of freedom found cannot be correct
CONSEQUENCE : will not project translation and rotation

-----------------------
VIBRATIONAL FREQUENCIES
-----------------------

Scaling factor for frequencies =  1.000000000  (already applied!)

   0:         0.00 cm**-1
   1:         0.00 cm**-1
   2:         0.00 cm**-1


------------
NORMAL MODES
------------

These modes are the Cartesian displacements weighted by the diagonal matrix
M(i,i)=1/sqrt(m[i]) where m[i] is the mass of the displaced atom
Thus, these vectors are normalized but *not* orthogonal

                   0          1          2    
      0      -0.000004   0.000190  -1.000000
      1       0.000225   1.000000   0.000190
      2       1.000000  -0.000225  -0.000004


-----------
IR SPECTRUM
-----------

 Mode    freq (cm**-1)   T**2         TX         TY         TZ
-------------------------------------------------------------------

The first frequency considered to be a vibration is 0
The total number of vibrations considered is 3


--------------------------
THERMOCHEMISTRY AT 298.15K
--------------------------

Temperature         ... 298.15 K
Pressure            ... 1.00 atm
Total Mass          ... 35.45 AMU
The molecule is recognized as being linear

Throughout the following assumptions are being made:
  (1) The electronic state is orbitally nondegenerate
      but the spin degeneracy is treated
  (2) There are no thermally accessible electronically excited states
  (3) Hindered rotations indicated by low frequency modes are not
      treated as such but are treated as vibrations and this may
      cause some error
  (4) All equations used are the standard statistical mechanics
      equations for an ideal gas
  (5) All vibrations are strictly harmonic

freq.       0.00  E(vib)   ...       0.59 
freq.       0.00  E(vib)   ...       0.59 
freq.       0.00  E(vib)   ...       0.59 

------------
INNER ENERGY
------------

The inner energy is: U= E(el) + E(ZPE) + E(vib) + E(rot) + E(trans)
    E(el)   - is the total energy from the electronic structure calculation
              = E(kin-el) + E(nuc-el) + E(el-el) + E(nuc-nuc)
    E(ZPE)  - the the zero temperature vibrational energy from the frequency calculation
    E(vib)  - the the finite temperature correction to E(ZPE) due to population
              of excited vibrational states
    E(rot)  - is the rotational thermal energy
    E(trans)- is the translational thermal energy

Summary of contributions to the inner energy U:
Electronic energy                ...   -459.67571403 Eh
Zero point energy                ...      0.00000002 Eh       0.00 kcal/mol
Thermal vibrational correction   ...      0.00283260 Eh       1.78 kcal/mol
Thermal rotational correction    ...      0.00000000 Eh       0.00 kcal/mol
Thermal translational correction ...      0.00141627 Eh       0.89 kcal/mol
-----------------------------------------------------------------------
Total thermal energy                   -459.67146514 Eh


Summary of corrections to the electronic energy:
(perhaps to be used in another calculation)
Total thermal correction                  0.00424888 Eh       2.67 kcal/mol
Non-thermal (ZPE) correction              0.00000002 Eh       0.00 kcal/mol
-----------------------------------------------------------------------
Total correction                          0.00424890 Eh       2.67 kcal/mol


--------
ENTHALPY
--------

The enthalpy is H = U + kB*T
                kB is Boltzmann's constant
Total free energy                 ...   -459.67146514 Eh 
Thermal Enthalpy correction       ...      0.00094421 Eh       0.59 kcal/mol
-----------------------------------------------------------------------
Total Enthalpy                    ...   -459.67052093 Eh


Note: Rotational entropy computed according to Herzberg 
Infrared and Raman Spectra, Chapter V,1, Van Nostrand Reinhold, 1945 
Point Group:  Kh, Symmetry Number:   1  
Rotational constants in cm-1:     0.000000     0.000000     0.000000 

Vibrational entropy computed according to the QRRHO of S. Grimme
Chem.Eur.J. 2012 18 9955


-------
ENTROPY
-------

The entropy contributions are T*S = T*(S(el)+S(vib)+S(rot)+S(trans))
     S(el)   - electronic entropy
     S(vib)  - vibrational entropy
     S(rot)  - rotational entropy
     S(trans)- translational entropy
The entropies will be listed as mutliplied by the temperature to get
units of energy

Electronic entropy                ...      0.00065446 Eh      0.41 kcal/mol
Vibrational entropy               ...            -inf Eh      -inf kcal/mol
Rotational entropy                ...      0.00000000 Eh      0.00 kcal/mol
Translational entropy             ...      0.01740262 Eh     10.92 kcal/mol
-----------------------------------------------------------------------
Final entropy term                ...            -inf Eh      -inf kcal/mol

In case the symmetry of your molecule has not been determined correctly
or in case you have a reason to use a different symmetry number we print 
out the resulting rotational entropy values for sn=1,12 :
 --------------------------------------------------------
|  sn= 1 | S(rot)=             -inf Eh      -inf kcal/mol|
|  sn= 2 | S(rot)=             -inf Eh      -inf kcal/mol|
|  sn= 3 | S(rot)=             -inf Eh      -inf kcal/mol|
|  sn= 4 | S(rot)=             -inf Eh      -inf kcal/mol|
|  sn= 5 | S(rot)=             -inf Eh      -inf kcal/mol|
|  sn= 6 | S(rot)=             -inf Eh      -inf kcal/mol|
|  sn= 7 | S(rot)=             -inf Eh      -inf kcal/mol|
|  sn= 8 | S(rot)=             -inf Eh      -inf kcal/mol|
|  sn= 9 | S(rot)=             -inf Eh      -inf kcal/mol|
|  sn=10 | S(rot)=             -inf Eh      -inf kcal/mol|
|  sn=11 | S(rot)=             -inf Eh      -inf kcal/mol|
|  sn=12 | S(rot)=             -inf Eh      -inf kcal/mol|
 --------------------------------------------------------


-------------------
GIBBS FREE ENERGY
-------------------

The Gibbs free energy is G = H - T*S

Total enthalpy                    ...   -459.67052093 Eh 
Total entropy correction          ...             inf Eh       inf kcal/mol
-----------------------------------------------------------------------
Final Gibbs free energy         ...             inf Eh

For completeness - the Gibbs free energy minus the electronic energy
G-E(el)                           ...             inf Eh       inf kcal/mol


Timings for individual modules:

Sum of individual times         ...       14.220 sec (=   0.237 min)
GTO integral calculation        ...        0.805 sec (=   0.013 min)   5.7 %
SCF iterations                  ...        3.155 sec (=   0.053 min)  22.2 %
MP2 module                      ...        1.136 sec (=   0.019 min)   8.0 %
Analytical frequency calculation...        9.124 sec (=   0.152 min)  64.2 %
                             ****ORCA TERMINATED NORMALLY****
TOTAL RUN TIME: 0 days 0 hours 0 minutes 14 seconds 798 msec
