
                                 *****************
                                 * O   R   C   A *
                                 *****************

           --- An Ab Initio, DFT and Semiempirical electronic structure package ---

                  #######################################################
                  #                        -***-                        #
                  #          Department of theory and spectroscopy      #
                  #               Directorship: Frank Neese             #
                  #        Max Planck Institute fuer Kohlenforschung    #
                  #                Kaiser Wilhelm Platz 1               #
                  #                 D-45470 Muelheim/Ruhr               #
                  #                      Germany                        #
                  #                                                     #
                  #                  All rights reserved                #
                  #                        -***-                        #
                  #######################################################


                         Program Version 4.2.1 -  RELEASE  -


 With contributions from (in alphabetic order):
   Daniel Aravena         : Magnetic Suceptibility
   Michael Atanasov       : Ab Initio Ligand Field Theory (pilot matlab implementation)
   Alexander A. Auer      : GIAO ZORA, VPT2
   Ute Becker             : Parallelization
   Giovanni Bistoni       : ED, misc. LED, open-shell LED, HFLD
   Martin Brehm           : Molecular dynamics
   Dmytro Bykov           : SCF Hessian
   Vijay G. Chilkuri      : MRCI spin determinant printing, contributions to CSF-ICE
   Dipayan Datta          : RHF DLPNO-CCSD density
   Achintya Kumar Dutta   : EOM-CC, STEOM-CC
   Dmitry Ganyushin       : Spin-Orbit,Spin-Spin,Magnetic field MRCI
   Miquel Garcia          : C-PCM Hessian, Gaussian charge scheme
   Yang Guo               : DLPNO-NEVPT2, CIM, IAO-localization
   Andreas Hansen         : Spin unrestricted coupled pair/coupled cluster methods
   Benjamin Helmich-Paris : CASSCF linear response (MC-RPA)
   Lee Huntington         : MR-EOM, pCC
   Robert Izsak           : Overlap fitted RIJCOSX, COSX-SCS-MP3, EOM
   Christian Kollmar      : KDIIS, OOCD, Brueckner-CCSD(T), CCSD density
   Simone Kossmann        : Meta GGA functionals, TD-DFT gradient, OOMP2, MP2 Hessian
   Martin Krupicka        : AUTO-CI
   Lucas Lang             : DCDCAS
   Dagmar Lenk            : GEPOL surface, SMD
   Dimitrios Liakos       : Extrapolation schemes; Compound Job, initial MDCI parallelization
   Dimitrios Manganas     : Further ROCIS development; embedding schemes
   Dimitrios Pantazis     : SARC Basis sets
   Taras Petrenko         : DFT Hessian,TD-DFT gradient, ASA, ECA, R-Raman, ABS, FL, XAS/XES, NRVS
   Peter Pinski           : DLPNO-MP2, DLPNO-MP2 Gradient
   Christoph Reimann      : Effective Core Potentials
   Marius Retegan         : Local ZFS, SOC
   Christoph Riplinger    : Optimizer, TS searches, QM/MM, DLPNO-CCSD(T), (RO)-DLPNO pert. Triples
   Tobias Risthaus        : Range-separated hybrids, TD-DFT gradient, RPA, STAB
   Michael Roemelt        : Original ROCIS implementation
   Masaaki Saitow         : Open-shell DLPNO-CCSD energy and density
   Barbara Sandhoefer     : DKH picture change effects
   Avijit Sen             : IP-ROCIS
   Kantharuban Sivalingam : CASSCF convergence, NEVPT2, FIC-MRCI
   Bernardo de Souza      : ESD, SOC TD-DFT
   Georgi Stoychev        : AutoAux, RI-MP2 NMR
   Willem Van den Heuvel  : Paramagnetic NMR
   Boris Wezisla          : Elementary symmetry handling
   Frank Wennmohs         : Technical directorship


 We gratefully acknowledge several colleagues who have allowed us to
 interface, adapt or use parts of their codes:
   Stefan Grimme, W. Hujo, H. Kruse,             : VdW corrections, initial TS optimization,
                  C. Bannwarth                     DFT functionals, gCP, sTDA/sTD-DF
   Ed Valeev, F. Pavosevic, A. Kumar             : LibInt (2-el integral package), F12 methods
   Garnet Chan, S. Sharma, J. Yang, R. Olivares  : DMRG
   Ulf Ekstrom                                   : XCFun DFT Library
   Mihaly Kallay                                 : mrcc  (arbitrary order and MRCC methods)
   Andreas Klamt, Michael Diedenhofen            : otool_cosmo (COSMO solvation model)
   Jiri Pittner, Ondrej Demel                    : Mk-CCSD
   Frank Weinhold                                : gennbo (NPA and NBO analysis)
   Christopher J. Cramer and Donald G. Truhlar   : smd solvation model
   Lars Goerigk                                  : TD-DFT with DH, B97 family of functionals
   V. Asgeirsson, H. Jonsson                     : NEB implementation
   FAccTs GmbH                                   : IRC, NEB, NEB-TS, Multilevel, MM, QM/MM, CI optimization
   S Lehtola, MJT Oliveira, MAL Marques          : LibXC Library


 Your calculation uses the libint2 library for the computation of 2-el integrals
 For citations please refer to: http://libint.valeyev.net

 Your ORCA version has been built with support for libXC version: 4.2.3
 For citations please refer to: https://tddft.org/programs/libxc/

 This ORCA versions uses:
   CBLAS   interface :  Fast vector & matrix operations
   LAPACKE interface :  Fast linear algebra routines
   SCALAPACK package :  Parallel linear algebra routines


----- Orbital basis set information -----
Your calculation utilizes the basis: cc-pVTZ 
       H, B-Ne : Obtained from the ccRepo (grant-hill.group.shef.ac.uk/ccrepo) Feb. 2017
                 T. H. Dunning, Jr., J. Chem. Phys. 90, 1007 (1989)
            He : Obtained from the ccRepo (grant-hill.group.shef.ac.uk/ccrepo) Feb. 2017
                 D. E. Woon, T. H. Dunning, Jr., J. Chem. Phys. 100, 2975 (1994)
  Li-Be, Na-Mg : Obtained from the ccRepo (grant-hill.group.shef.ac.uk/ccrepo) Feb. 2017
                 B. P. Prascher, D. E. Woon, K. A. Peterson, T. H. Dunning, Jr., A. K. Wilson, Theor. Chem. Acc. 128, 69 (2011)
         Al-Ar : Obtained from the ccRepo (grant-hill.group.shef.ac.uk/ccrepo) Feb. 2017
                 D. E. Woon, T. H. Dunning, Jr., J. Chem. Phys. 98, 1358 (1993)
            Ca : Obtained from the Peterson Research Group Website (tyr0.chem.wsu.edu/~kipeters) Feb. 2017
                 J. Koput, K. A. Peterson, J. Phys. Chem. 106, 9595 (2002)
         Sc-Zn : Obtained from the ccRepo (grant-hill.group.shef.ac.uk/ccrepo) Feb. 2017
                 N. B. Balabanov, K. A. Peterson, J. Chem. Phys. 123, 064107 (2005)
                 N. B. Balabanov, K. A. Peterson, J. Chem. Phys. 125, 074110 (2006)
         Ga-Kr : Obtained from the ccRepo (grant-hill.group.shef.ac.uk/ccrepo) Feb. 2017
                 A. K. Wilson, D. E. Woon, K. A. Peterson, T. H. Dunning, Jr., J. Chem. Phys. 110, 7667 (1999)
             Y : Obtained from the ccRepo (grant-hill.group.shef.ac.uk/ccrepo) Feb. 2017
                 K. A. Peterson, D. Figgen, M. Dolg, H. Stoll, J. Chem. Phys. 126, 124101 (2007)
        Ag, Au : Obtained from the Peterson Research Group Website (tyr0.chem.wsu.edu/~kipeters) Feb. 2017
                 K. A. Peterson, C. Puzzarini, Theor. Chem. Acc. 114, 283 (2005)

================================================================================
                                        WARNINGS
                       Please study these warnings very carefully!
================================================================================


WARNING: Geometry Optimization
  ===> : Switching off AutoStart
         For restart on a previous wavefunction, please use MOREAD

WARNING: Post HF methods need fully converged wavefunctions
  ===> : Setting SCFConvForced true
         You can overwrite this default with %scf ConvForced false 


INFO   : the flag for use of LIBINT has been found!

================================================================================
                                       INPUT FILE
================================================================================
NAME = H3CHCl‡.inp
|  1> ! UHF MP2 cc-pVTZ OptTS Freq IRC NoFrozenCore TightOpt TightSCF Grid4 FinalGrid5 PrintBasis PrintMOs NBO
|  2> %maxcore 2000
|  3> 
|  4> *xyz 0 2
|  5>   C   0.00005468831664     -0.00000559580161      1.93601537537498
|  6>   H   -1.05703454181289      0.00008075588911      2.15573343429073
|  7>   H   0.52858240498983     -0.91548317740192      2.15572708662685
|  8>   H   -0.00006407152077     -0.00019733782514      0.59605671160218
|  9>   H   0.52867354777137      0.91548262611360      2.15546221644432
| 10>   Cl  -0.00021002774417      0.00012272902596     -0.85470582433906
| 11> *
| 12> 
| 13> %pal
| 14>  nprocs 6
| 15> end
| 16> 
| 17> %geom
| 18>  inhess read
| 19>  inhessname "freq.hess"
| 20>  ts_mode
| 21>   {B 0 3}
| 22>  end
| 23>  ts_active_atoms
| 24>   {0 3 5}
| 25>  end
| 26>  modify_internal
| 27>   {B 0 3 A}
| 28>   {B 3 5 A}
| 29>  end
| 30> end
| 31> 
| 32> %irc
| 33>  maxiter 1000
| 34>  de_init_displ 0.25
| 35> end
| 36> 
| 37>                          ****END OF INPUT****
================================================================================

                       *****************************
                       * Geometry Optimization Run *
                       *****************************

Geometry optimization settings:
Update method            Update   .... Bofill
Choice of coordinates    CoordSys .... Z-matrix Internals
Initial Hessian          InHess   .... Read

Convergence Tolerances:
Energy Change            TolE     ....  1.0000e-06 Eh
Max. Gradient            TolMAXG  ....  1.0000e-04 Eh/bohr
RMS Gradient             TolRMSG  ....  3.0000e-05 Eh/bohr
Max. Displacement        TolMAXD  ....  1.0000e-03 bohr
RMS Displacement         TolRMSD  ....  6.0000e-04 bohr
Strict Convergence                ....  False
------------------------------------------------------------------------------
                        ORCA OPTIMIZATION COORDINATE SETUP
------------------------------------------------------------------------------

The optimization will be done in new redundant internal coordinates
Making redundant internal coordinates   ...  (new redundants) Bond   3,  0 is already included
Bond   5,  3 is already included
done
Following TS mode number                ...    internal coordinate number:  3
TS-active-atoms for coordinate setup... 0 3 5 
Evaluating the initial hessian          ... (Reading Exact Hessian)...  
InHessName: freq.hess	The file <freq.hess> is opened as a .hess file
done
done
Diagonalizing the Hessian               .... done
Dimension of the hessian                .... 14
Lowest eigenvalues of the non projected Hessian:
 -0.035347917 -0.000000000  0.000000000  0.001952145  0.024667520
done
Evaluating the coordinates              ...  done
Calculating the B-matrix                .... done
Calculating the G-matrix                .... done
Diagonalizing the G-matrix              .... done
The first mode is                       ....    2
The number of degrees of freedom        ....   12

    -----------------------------------------------------------------
                    Redundant Internal Coordinates


    -----------------------------------------------------------------
         Definition                    Initial Value    d2E/dq (diagonal element)
    -----------------------------------------------------------------
      1. B(H   1,C   0)                  1.0797         0.374696   
      2. B(H   2,C   0)                  1.0797         0.374700   
      3. B(H   3,C   0)                  1.3400        -0.016179   
      4. B(H   4,C   0)                  1.0797         0.374692   
      5. B(Cl  5,C   0)                  2.7907         0.037489   
      6. B(Cl  5,H   3)                  1.4508         0.016407   
      7. A(H   1,C   0,H   2)          115.9721         0.084578   
      8. A(H   1,C   0,H   4)          115.9719         0.084579   
      9. A(H   1,C   0,H   3)          101.7368         0.063730   
     10. A(H   2,C   0,H   4)          115.9721         0.084581   
     11. A(H   3,C   0,H   4)          101.7368         0.063712   
     12. A(H   2,C   0,H   3)          101.7369         0.063748   
     13. L(C   0,H   3,Cl  5,H   1, 1) 179.9993         0.025076   
     14. L(C   0,H   3,Cl  5,H   1, 2) 179.9629         0.001974   
    -----------------------------------------------------------------

Number of atoms                         .... 6
Number of degrees of freedom            .... 14

         *************************************************************
         *                GEOMETRY OPTIMIZATION CYCLE   1            *
         *************************************************************
---------------------------------
CARTESIAN COORDINATES (ANGSTROEM)
---------------------------------
  C      0.000055   -0.000006    1.936015
  H     -1.057035    0.000081    2.155733
  H      0.528582   -0.915483    2.155727
  H     -0.000064   -0.000197    0.596057
  H      0.528674    0.915483    2.155462
  Cl    -0.000210    0.000123   -0.854706

----------------------------
CARTESIAN COORDINATES (A.U.)
----------------------------
  NO LB      ZA    FRAG     MASS         X           Y           Z
   0 C     6.0000    0    12.011    0.000103   -0.000011    3.658539
   1 H     1.0000    0     1.008   -1.997506    0.000153    4.073746
   2 H     1.0000    0     1.008    0.998876   -1.730012    4.073734
   3 H     1.0000    0     1.008   -0.000121   -0.000373    1.126384
   4 H     1.0000    0     1.008    0.999048    1.730011    4.073233
   5 Cl   17.0000    0    35.453   -0.000397    0.000232   -1.615160

--------------------------------
INTERNAL COORDINATES (ANGSTROEM)
--------------------------------
 C      0   0   0     0.000000000000     0.00000000     0.00000000
 H      1   0   0     1.079682209414     0.00000000     0.00000000
 H      1   2   0     1.079682354105   115.97211770     0.00000000
 H      1   2   3     1.339958682754   101.73677494   109.40892566
 H      1   2   3     1.079682128727   115.97192867   218.81759741
 Cl     4   1   2     1.450762578590   179.97914936    88.11096460

---------------------------
INTERNAL COORDINATES (A.U.)
---------------------------
 C      0   0   0     0.000000000000     0.00000000     0.00000000
 H      1   0   0     2.040303687460     0.00000000     0.00000000
 H      1   2   0     2.040303960886   115.97211770     0.00000000
 H      1   2   3     2.532154941176   101.73677494   109.40892566
 H      1   2   3     2.040303534983   115.97192867   218.81759741
 Cl     4   1   2     2.741543958876   179.97914936    88.11096460

---------------------
BASIS SET INFORMATION
---------------------
There are 3 groups of distinct atoms

 Group   1 Type C   : 18s5p2d1f contracted to 4s3p2d1f pattern {8811/311/11/1}
 Group   2 Type H   : 5s2p1d contracted to 3s2p1d pattern {311/11/1}
 Group   3 Type Cl  : 41s16p2d1f contracted to 5s4p2d1f pattern {13131311/7711/11/1}

Atom   0C    basis set group =>   1
Atom   1H    basis set group =>   2
Atom   2H    basis set group =>   2
Atom   3H    basis set group =>   2
Atom   4H    basis set group =>   2
Atom   5Cl   basis set group =>   3

-------------------------
BASIS SET IN INPUT FORMAT
-------------------------

 # Basis set for element : H 
 NewGTO H 
 S 3 
   1      33.8700000000      0.0254948632
   2       5.0950000000      0.1903627659
   3       1.1590000000      0.8521620222
 S 1 
   1       0.3258000000      1.0000000000
 S 1 
   1       0.1027000000      1.0000000000
 P 1 
   1       1.4070000000      1.0000000000
 P 1 
   1       0.3880000000      1.0000000000
 D 1 
   1       1.0570000000      1.0000000000
  end;

 # Basis set for element : C 
 NewGTO C 
 S 8 
   1    8236.0000000000      0.0005424302
   2    1235.0000000000      0.0041964279
   3     280.8000000000      0.0215409141
   4      79.2700000000      0.0836149496
   5      25.5900000000      0.2398716189
   6       8.9970000000      0.4437518201
   7       3.3190000000      0.3535796965
   8       0.3643000000     -0.0091763661
 S 8 
   1    8236.0000000000     -0.0001963922
   2    1235.0000000000     -0.0015259503
   3     280.8000000000     -0.0078904490
   4      79.2700000000     -0.0315148705
   5      25.5900000000     -0.0969100083
   6       8.9970000000     -0.2205415263
   7       3.3190000000     -0.2960691129
   8       0.3643000000      1.0405034329
 S 1 
   1       0.9059000000      1.0000000000
 S 1 
   1       0.1285000000      1.0000000000
 P 3 
   1      18.7100000000      0.0394263872
   2       4.1330000000      0.2440889849
   3       1.2000000000      0.8154920089
 P 1 
   1       0.3827000000      1.0000000000
 P 1 
   1       0.1209000000      1.0000000000
 D 1 
   1       1.0970000000      1.0000000000
 D 1 
   1       0.3180000000      1.0000000000
 F 1 
   1       0.7610000000      1.0000000000
  end;

 # Basis set for element : Cl
 NewGTO Cl
 S 13 
   1  456100.0000000000      0.0000492942
   2   68330.0000000000      0.0003830071
   3   15550.0000000000      0.0020084250
   4    4405.0000000000      0.0083851001
   5    1439.0000000000      0.0294686133
   6     520.4000000000      0.0878274731
   7     203.1000000000      0.2114608968
   8      83.9600000000      0.3653430893
   9      36.2000000000      0.3408644903
  10      15.8300000000      0.1021271547
  11       6.3340000000      0.0031165716
  12       2.6940000000      0.0010574495
  13       0.4313000000      0.0001561271
 S 13 
   1  456100.0000000000     -0.0000147034
   2   68330.0000000000     -0.0001140508
   3   15550.0000000000     -0.0006007529
   4    4405.0000000000     -0.0025104062
   5    1439.0000000000     -0.0089928112
   6     520.4000000000     -0.0276027210
   7     203.1000000000     -0.0729687441
   8      83.9600000000     -0.1508295563
   9      36.2000000000     -0.2119006748
  10      15.8300000000     -0.0208012833
  11       6.3340000000      0.5312863055
  12       2.6940000000      0.5993208817
  13       0.4313000000     -0.0088780471
 S 13 
   1  456100.0000000000      0.0000064955
   2   68330.0000000000      0.0000503429
   3   15550.0000000000      0.0002655380
   4    4405.0000000000      0.0011083303
   5    1439.0000000000      0.0039838068
   6     520.4000000000      0.0122375442
   7     203.1000000000      0.0327244651
   8      83.9600000000      0.0686349823
   9      36.2000000000      0.1011327147
  10      15.8300000000      0.0093581476
  11       6.3340000000     -0.3204597407
  12       2.6940000000     -0.6298715001
  13       0.4313000000      1.1261538336
 S 1 
   1       0.9768000000      1.0000000000
 S 1 
   1       0.1625000000      1.0000000000
 P 7 
   1     663.3000000000      0.0024738409
   2     156.8000000000      0.0197690804
   3      49.9800000000      0.0910628980
   4      18.4200000000      0.2634052893
   5       7.2400000000      0.4495308290
   6       2.9220000000      0.3604399212
   7       0.3818000000     -0.0047164691
 P 7 
   1     663.3000000000     -0.0011177497
   2     156.8000000000     -0.0089030736
   3      49.9800000000     -0.0423241575
   4      18.4200000000     -0.1248048286
   5       7.2400000000     -0.2297219068
   6       2.9220000000     -0.1624390804
   7       0.3818000000      0.9678160112
 P 1 
   1       1.0220000000      1.0000000000
 P 1 
   1       0.1301000000      1.0000000000
 D 1 
   1       1.0460000000      1.0000000000
 D 1 
   1       0.3440000000      1.0000000000
 F 1 
   1       0.7060000000      1.0000000000
  end;



           ************************************************************
           *        Program running with 6 parallel MPI-processes     *
           *              working on a common directory               *
           ************************************************************
------------------------------------------------------------------------------
                           ORCA GTO INTEGRAL CALCULATION
------------------------------------------------------------------------------

                         BASIS SET STATISTICS AND STARTUP INFO

 # of primitive gaussian shells          ...  118
 # of primitive gaussian functions       ...  220
 # of contracted shells                  ...   46
 # of contracted basis functions         ...  120
 Highest angular momentum                ...    3
 Maximum contraction depth               ...   13
 Integral package used                   ... LIBINT
 Integral threshhold            Thresh   ...  2.500e-11
 Primitive cut-off              TCut     ...  2.500e-12


------------------------------ INTEGRAL EVALUATION ----------------------------


 * One electron integrals 
 Pre-screening matrix                    ... done
 Shell pair data                         ... done (   0.001 sec)



           ************************************************************
           *        Program running with 6 parallel MPI-processes     *
           *              working on a common directory               *
           ************************************************************
-------------------------------------------------------------------------------
                                 ORCA SCF
-------------------------------------------------------------------------------

------------
SCF SETTINGS
------------
Hamiltonian:
 Ab initio Hamiltonian  Method          .... Hartree-Fock(GTOs)


General Settings:
 Integral files         IntName         .... H3CHCl‡
 Hartree-Fock type      HFTyp           .... UHF
 Total Charge           Charge          ....    0
 Multiplicity           Mult            ....    2
 Number of Electrons    NEL             ....   27
 Basis Dimension        Dim             ....  120
 Nuclear Repulsion      ENuc            ....     46.9022527593 Eh

Convergence Acceleration:
 DIIS                   CNVDIIS         .... on
   Start iteration      DIISMaxIt       ....    12
   Startup error        DIISStart       ....  0.200000
   # of expansion vecs  DIISMaxEq       ....     5
   Bias factor          DIISBfac        ....   1.050
   Max. coefficient     DIISMaxC        ....  10.000
 Newton-Raphson         CNVNR           .... off
 SOSCF                  CNVSOSCF        .... off
 Level Shifting         CNVShift        .... on
   Level shift para.    LevelShift      ....    0.2500
   Turn off err/grad.   ShiftErr        ....    0.0010
 Zerner damping         CNVZerner       .... off
 Static damping         CNVDamp         .... on
   Fraction old density DampFac         ....    0.7000
   Max. Damping (<1)    DampMax         ....    0.9800
   Min. Damping (>=0)   DampMin         ....    0.0000
   Turn off err/grad.   DampErr         ....    0.1000
 Fernandez-Rico         CNVRico         .... off

SCF Procedure:
 Maximum # iterations   MaxIter         ....   125
 SCF integral mode      SCFMode         .... Direct
   Integral package                     .... LIBINT
 Reset frequency        DirectResetFreq ....    20
 Integral Threshold     Thresh          ....  2.500e-11 Eh
 Primitive CutOff       TCut            ....  2.500e-12 Eh

Convergence Tolerance:
 Convergence Check Mode ConvCheckMode   .... Total+1el-Energy
 Convergence forced     ConvForced      .... 1
 Energy Change          TolE            ....  1.000e-08 Eh
 1-El. energy change                    ....  1.000e-05 Eh
 DIIS Error             TolErr          ....  5.000e-07


Diagonalization of the overlap matrix:
Smallest eigenvalue                        ... 1.634e-03
Time for diagonalization                   ...    0.003 sec
Threshold for overlap eigenvalues          ... 1.000e-08
Number of eigenvalues below threshold      ... 0
Time for construction of square roots      ...    0.002 sec
Total time needed                          ...    0.006 sec

-------------------
DFT GRID GENERATION
-------------------

General Integration Accuracy     IntAcc      ...  4.670
Radial Grid Type                 RadialGrid  ... Gauss-Chebyshev
Angular Grid (max. acc.)         AngularGrid ... Lebedev-302
Angular grid pruning method      GridPruning ... 3 (G Style)
Weight generation scheme         WeightScheme... Becke
Basis function cutoff            BFCut       ...    1.0000e-11
Integration weight cutoff        WCut        ...    1.0000e-14
Grids for H and He will be reduced by one unit

# of grid points (after initial pruning)     ...  26526 (   0.0 sec)
# of grid points (after weights+screening)   ...  25707 (   0.0 sec)
nearest neighbour list constructed           ...    0.0 sec
Grid point re-assignment to atoms done       ...    0.0 sec
Grid point division into batches done        ...    0.1 sec
Reduced shell lists constructed in    0.1 sec

Total number of grid points                  ...    25707
Total number of batches                      ...      405
Average number of points per batch           ...       63
Average number of grid points per atom       ...     4284
Average number of shells per batch           ...    35.48 (77.13%)
Average number of basis functions per batch  ...    90.64 (75.53%)
Average number of large shells per batch     ...    29.94 (84.40%)
Average number of large basis fcns per batch ...    76.14 (84.01%)
Maximum spatial batch extension              ...  12.96, 20.64, 16.14 au
Average spatial batch extension              ...   0.52,  0.59,  0.58 au

Time for grid setup =    0.148 sec

------------------------------
INITIAL GUESS: MODEL POTENTIAL
------------------------------
Loading Hartree-Fock densities                     ... done
Calculating cut-offs                               ... done
Setting up the integral package                    ... done
Initializing the effective Hamiltonian             ... done
Starting the Coulomb interaction                   ... done (   0.0 sec)
Reading the grid                                   ... done
Mapping shells                                     ... done
Starting the XC term evaluation                    ... done (   0.0 sec)
Transforming the Hamiltonian                       ... done (   0.0 sec)
Diagonalizing the Hamiltonian                      ... done (   0.0 sec)
Back transforming the eigenvectors                 ... done (   0.0 sec)
Now organizing SCF variables                       ... done
                      ------------------
                      INITIAL GUESS DONE (   0.3 sec)
                      ------------------
--------------
SCF ITERATIONS
--------------
ITER       Energy         Delta-E        Max-DP      RMS-DP      [F,P]     Damp
               ***  Starting incremental Fock matrix formation  ***
  0   -499.5624707135   0.000000000000 0.02429740  0.00045267  0.2204602 0.7000
  1   -499.5944625456  -0.031991832129 0.01756617  0.00034765  0.1417174 0.7000
                               ***Turning on DIIS***
  2   -499.6151279515  -0.020665405857 0.04158619  0.00080018  0.0897604 0.0000
  3   -499.5547025134   0.060425438051 0.01022280  0.00020530  0.0353891 0.0000
  4   -499.6614520277  -0.106749514217 0.00612213  0.00012879  0.0068907 0.0000
  5   -499.6518255227   0.009626504932 0.00478206  0.00009437  0.0047609 0.0000
  6   -499.6645837274  -0.012758204658 0.00253722  0.00005564  0.0031330 0.0000
  7   -499.6624244650   0.002159262403 0.00149742  0.00003260  0.0018077 0.0000
  8   -499.6632313750  -0.000806910027 0.00071642  0.00001821  0.0010182 0.0000
  9   -499.6631495984   0.000081776639 0.00078793  0.00001531  0.0005463 0.0000
 10   -499.6632289877  -0.000079389363 0.00042682  0.00000645  0.0001490 0.0000
 11   -499.6635085157  -0.000279527978 0.00020368  0.00000272  0.0000634 0.0000
 12   -499.6636337525  -0.000125236822 0.00008749  0.00000147  0.0000266 0.0000
 13   -499.6636424272  -0.000008674706 0.00001733  0.00000060  0.0000111 0.0000
 14   -499.6636729842  -0.000030556963 0.00001020  0.00000030  0.0000033 0.0000
 15   -499.6636692171   0.000003767074 0.00000309  0.00000010  0.0000011 0.0000
                            ***DIIS convergence achieved***

               *****************************************************
               *                     SUCCESS                       *
               *           SCF CONVERGED AFTER  16 CYCLES          *
               *****************************************************


----------------
TOTAL SCF ENERGY
----------------

Total Energy       :         -499.66367223 Eh          -13596.53976 eV

Components:
Nuclear Repulsion  :           46.90225276 Eh            1276.27518 eV
Electronic Energy  :         -546.56592499 Eh          -14872.81494 eV
One Electron Energy:         -781.91102887 Eh          -21276.88079 eV
Two Electron Energy:          235.34510388 Eh            6404.06585 eV

Virial components:
Potential Energy   :         -999.35943791 Eh          -27193.95282 eV
Kinetic Energy     :          499.69576568 Eh           13597.41306 eV
Virial Ratio       :            1.99993577


---------------
SCF CONVERGENCE
---------------

  Last Energy change         ...   -3.0118e-06  Tolerance :   1.0000e-08
  Last MAX-Density change    ...    1.4292e-06  Tolerance :   1.0000e-07
  Last RMS-Density change    ...    4.0582e-08  Tolerance :   5.0000e-09
  Last DIIS Error            ...    2.6803e-07  Tolerance :   5.0000e-07

             **** THE GBW FILE WAS UPDATED (H3CHCl‡.gbw) ****
             **** DENSITY FILE WAS UPDATED (H3CHCl‡.scfp) ****
             **** ENERGY FILE WAS UPDATED (H3CHCl‡.en.tmp) ****
----------------------
UHF SPIN CONTAMINATION
----------------------

Expectation value of <S**2>     :     0.785767
Ideal value S*(S+1) for S=0.5   :     0.750000
Deviation                       :     0.035767

             **** THE GBW FILE WAS UPDATED (H3CHCl‡.gbw) ****
             **** DENSITY FILE WAS UPDATED (H3CHCl‡.scfp) ****
----------------
ORBITAL ENERGIES
----------------
                 SPIN UP ORBITALS
  NO   OCC          E(Eh)            E(eV) 
   0   1.0000    -104.819717     -2852.2895 
   1   1.0000     -11.279061      -306.9189 
   2   1.0000     -10.545178      -286.9489 
   3   1.0000      -8.021546      -218.2774 
   4   1.0000      -8.008208      -217.9144 
   5   1.0000      -8.008208      -217.9144 
   6   1.0000      -1.100928       -29.9578 
   7   1.0000      -1.000335       -27.2205 
   8   1.0000      -0.645350       -17.5609 
   9   1.0000      -0.616525       -16.7765 
  10   1.0000      -0.616524       -16.7765 
  11   1.0000      -0.452546       -12.3144 
  12   1.0000      -0.452546       -12.3144 
  13   1.0000      -0.417894       -11.3715 
  14   0.0000       0.132064         3.5936 
  15   0.0000       0.201266         5.4767 
  16   0.0000       0.201269         5.4768 
  17   0.0000       0.278379         7.5751 
  18   0.0000       0.319507         8.6942 
  19   0.0000       0.337206         9.1758 
  20   0.0000       0.337206         9.1758 
  21   0.0000       0.438578        11.9343 
  22   0.0000       0.514153        13.9908 
  23   0.0000       0.514707        14.0059 
  24   0.0000       0.514717        14.0062 
  25   0.0000       0.566394        15.4124 
  26   0.0000       0.566398        15.4125 
  27   0.0000       0.596967        16.2443 
  28   0.0000       0.614405        16.7188 
  29   0.0000       0.614406        16.7188 
  30   0.0000       0.685310        18.6482 
  31   0.0000       0.685311        18.6483 
  32   0.0000       0.757453        20.6113 
  33   0.0000       0.757470        20.6118 
  34   0.0000       0.789357        21.4795 
  35   0.0000       0.908604        24.7244 
  36   0.0000       1.015438        27.6315 
  37   0.0000       1.078963        29.3601 
  38   0.0000       1.118193        30.4276 
  39   0.0000       1.118196        30.4277 
  40   0.0000       1.120975        30.5033 
  41   0.0000       1.121005        30.5041 
  42   0.0000       1.225152        33.3381 
  43   0.0000       1.344566        36.5875 
  44   0.0000       1.368532        37.2397 
  45   0.0000       1.368579        37.2409 
  46   0.0000       1.470840        40.0236 
  47   0.0000       1.470841        40.0236 
  48   0.0000       1.559972        42.4490 
  49   0.0000       1.559988        42.4494 
  50   0.0000       1.749394        47.6034 
  51   0.0000       1.940792        52.8116 
  52   0.0000       2.248647        61.1888 
  53   0.0000       2.248649        61.1888 
  54   0.0000       2.262106        61.5550 
  55   0.0000       2.262109        61.5551 
  56   0.0000       2.287414        62.2437 
  57   0.0000       2.333145        63.4881 
  58   0.0000       2.333154        63.4884 
  59   0.0000       2.392514        65.1036 
  60   0.0000       2.392524        65.1039 
  61   0.0000       2.434887        66.2566 
  62   0.0000       2.434933        66.2579 
  63   0.0000       2.503740        68.1302 
  64   0.0000       2.550357        69.3987 
  65   0.0000       2.586863        70.3921 
  66   0.0000       2.586871        70.3923 
  67   0.0000       2.677359        72.8546 
  68   0.0000       2.677413        72.8561 
  69   0.0000       2.688804        73.1661 
  70   0.0000       2.905494        79.0625 
  71   0.0000       2.905508        79.0629 
  72   0.0000       3.073366        83.6305 
  73   0.0000       3.109855        84.6235 
  74   0.0000       3.117404        84.8289 
  75   0.0000       3.117443        84.8299 
  76   0.0000       3.154343        85.8340 
  77   0.0000       3.154445        85.8368 
  78   0.0000       3.251761        88.4849 
  79   0.0000       3.354531        91.2814 
  80   0.0000       3.354542        91.2817 
  81   0.0000       3.503675        95.3398 
  82   0.0000       3.594084        97.8000 
  83   0.0000       3.594149        97.8018 
  84   0.0000       3.675019       100.0024 
  85   0.0000       3.728347       101.4535 
  86   0.0000       3.728455       101.4564 
  87   0.0000       3.754647       102.1692 
  88   0.0000       3.767897       102.5297 
  89   0.0000       3.768034       102.5334 
  90   0.0000       3.820431       103.9592 
  91   0.0000       3.986101       108.4673 
  92   0.0000       3.986163       108.4690 
  93   0.0000       4.070336       110.7595 
  94   0.0000       4.182754       113.8185 
  95   0.0000       4.182755       113.8185 
  96   0.0000       4.220088       114.8344 
  97   0.0000       4.280227       116.4709 
  98   0.0000       4.280228       116.4709 
  99   0.0000       4.388628       119.4206 
 100   0.0000       4.417859       120.2161 
 101   0.0000       4.417880       120.2166 
 102   0.0000       4.846580       131.8822 
 103   0.0000       4.846586       131.8823 
 104   0.0000       4.867559       132.4530 
 105   0.0000       5.055270       137.5609 
 106   0.0000       5.236086       142.4811 
 107   0.0000       5.236120       142.4821 
 108   0.0000       5.299838       144.2159 
 109   0.0000       5.375429       146.2729 
 110   0.0000       5.375456       146.2736 
 111   0.0000       5.406801       147.1265 
 112   0.0000       5.406821       147.1271 
 113   0.0000       5.803209       157.9133 
 114   0.0000       5.963762       162.2822 
 115   0.0000       6.010915       163.5653 
 116   0.0000       6.078006       165.3909 
 117   0.0000       6.078007       165.3910 
 118   0.0000       6.420288       174.7049 
 119   0.0000      13.752674       374.2293 

                 SPIN DOWN ORBITALS
  NO   OCC          E(Eh)            E(eV) 
   0   1.0000    -104.813463     -2852.1193 
   1   1.0000     -11.260942      -306.4258 
   2   1.0000     -10.538698      -286.7726 
   3   1.0000      -8.004711      -217.8192 
   4   1.0000      -8.004711      -217.8192 
   5   1.0000      -7.995488      -217.5683 
   6   1.0000      -1.047035       -28.4913 
   7   1.0000      -0.929427       -25.2910 
   8   1.0000      -0.604917       -16.4606 
   9   1.0000      -0.604916       -16.4606 
  10   1.0000      -0.548642       -14.9293 
  11   1.0000      -0.441655       -12.0180 
  12   1.0000      -0.441655       -12.0180 
  13   0.0000       0.018578         0.5055 
  14   0.0000       0.139921         3.8075 
  15   0.0000       0.205777         5.5995 
  16   0.0000       0.205780         5.5996 
  17   0.0000       0.299061         8.1379 
  18   0.0000       0.335293         9.1238 
  19   0.0000       0.337356         9.1799 
  20   0.0000       0.337356         9.1799 
  21   0.0000       0.480207        13.0671 
  22   0.0000       0.521261        14.1842 
  23   0.0000       0.521273        14.1846 
  24   0.0000       0.584300        15.8996 
  25   0.0000       0.587279        15.9807 
  26   0.0000       0.587282        15.9808 
  27   0.0000       0.613952        16.7065 
  28   0.0000       0.626303        17.0426 
  29   0.0000       0.626303        17.0426 
  30   0.0000       0.687577        18.7099 
  31   0.0000       0.687578        18.7100 
  32   0.0000       0.785418        21.3723 
  33   0.0000       0.785437        21.3728 
  34   0.0000       0.795715        21.6525 
  35   0.0000       0.945938        25.7403 
  36   0.0000       1.013590        27.5812 
  37   0.0000       1.102428        29.9986 
  38   0.0000       1.123067        30.5602 
  39   0.0000       1.123070        30.5603 
  40   0.0000       1.131271        30.7835 
  41   0.0000       1.131303        30.7843 
  42   0.0000       1.251386        34.0519 
  43   0.0000       1.367446        37.2101 
  44   0.0000       1.374265        37.3957 
  45   0.0000       1.374314        37.3970 
  46   0.0000       1.480857        40.2962 
  47   0.0000       1.480859        40.2962 
  48   0.0000       1.566692        42.6318 
  49   0.0000       1.566707        42.6323 
  50   0.0000       1.766982        48.0820 
  51   0.0000       1.969098        53.5819 
  52   0.0000       2.264303        61.6148 
  53   0.0000       2.264304        61.6149 
  54   0.0000       2.272880        61.8482 
  55   0.0000       2.272884        61.8483 
  56   0.0000       2.319512        63.1171 
  57   0.0000       2.349911        63.9443 
  58   0.0000       2.349918        63.9445 
  59   0.0000       2.409992        65.5792 
  60   0.0000       2.410004        65.5795 
  61   0.0000       2.435656        66.2776 
  62   0.0000       2.435696        66.2787 
  63   0.0000       2.523264        68.6615 
  64   0.0000       2.559399        69.6448 
  65   0.0000       2.592320        70.5406 
  66   0.0000       2.592327        70.5408 
  67   0.0000       2.691854        73.2491 
  68   0.0000       2.691906        73.2505 
  69   0.0000       2.717275        73.9408 
  70   0.0000       2.922868        79.5353 
  71   0.0000       2.922887        79.5358 
  72   0.0000       3.097580        84.2895 
  73   0.0000       3.111705        84.6738 
  74   0.0000       3.127215        85.0959 
  75   0.0000       3.127251        85.0968 
  76   0.0000       3.178239        86.4843 
  77   0.0000       3.178348        86.4873 
  78   0.0000       3.276158        89.1488 
  79   0.0000       3.378264        91.9272 
  80   0.0000       3.378280        91.9277 
  81   0.0000       3.505795        95.3975 
  82   0.0000       3.594444        97.8098 
  83   0.0000       3.594511        97.8116 
  84   0.0000       3.691229       100.4434 
  85   0.0000       3.731286       101.5335 
  86   0.0000       3.731389       101.5363 
  87   0.0000       3.772684       102.6599 
  88   0.0000       3.772811       102.6634 
  89   0.0000       3.778620       102.8215 
  90   0.0000       3.841813       104.5410 
  91   0.0000       3.986344       108.4739 
  92   0.0000       3.986408       108.4757 
  93   0.0000       4.072240       110.8113 
  94   0.0000       4.183191       113.8304 
  95   0.0000       4.183192       113.8304 
  96   0.0000       4.218708       114.7969 
  97   0.0000       4.274169       116.3061 
  98   0.0000       4.274170       116.3061 
  99   0.0000       4.391012       119.4855 
 100   0.0000       4.420414       120.2856 
 101   0.0000       4.420433       120.2861 
 102   0.0000       4.852959       132.0557 
 103   0.0000       4.852964       132.0559 
 104   0.0000       4.873137       132.6048 
 105   0.0000       5.062680       137.7625 
 106   0.0000       5.241608       142.6314 
 107   0.0000       5.241643       142.6324 
 108   0.0000       5.306980       144.4103 
 109   0.0000       5.385721       146.5529 
 110   0.0000       5.385745       146.5536 
 111   0.0000       5.411030       147.2416 
 112   0.0000       5.411053       147.2422 
 113   0.0000       5.812635       158.1698 
 114   0.0000       5.976223       162.6213 
 115   0.0000       6.015468       163.6892 
 116   0.0000       6.082797       165.5213 
 117   0.0000       6.082798       165.5213 
 118   0.0000       6.432491       175.0370 
 119   0.0000      13.765246       374.5714 
------------------
MOLECULAR ORBITALS
------------------
                      0         1         2         3         4         5   
                 -104.81972 -11.27906 -10.54518  -8.02155  -8.00821  -8.00821
                   1.00000   1.00000   1.00000   1.00000   1.00000   1.00000
                  --------  --------  --------  --------  --------  --------
  0C   1s        -0.000005  0.977691  0.000117 -0.000315  0.000000 -0.000000
  0C   2s        -0.000008  0.001058  0.000183 -0.000589  0.000000  0.000000
  0C   3s         0.000006  0.042218 -0.000088  0.000122  0.000000  0.000000
  0C   4s        -0.000041  0.006222  0.001171  0.002080 -0.000001 -0.000000
  0C   1pz       -0.000005 -0.000225  0.000054 -0.000055 -0.000000 -0.000000
  0C   1px       -0.000000 -0.000000  0.000000 -0.000000 -0.000019  0.000019
  0C   1py       -0.000000 -0.000000  0.000000 -0.000000  0.000019  0.000018
  0C   2pz        0.000045  0.000239 -0.000458  0.001237  0.000001  0.000001
  0C   2px        0.000000  0.000000 -0.000000  0.000000  0.000062 -0.000064
  0C   2py        0.000000  0.000000 -0.000000 -0.000000 -0.000064 -0.000061
  0C   3pz        0.000034 -0.000392 -0.000673 -0.000854  0.000001  0.000001
  0C   3px        0.000000 -0.000000 -0.000000 -0.000000  0.000283 -0.000295
  0C   3py        0.000000 -0.000000 -0.000000 -0.000001 -0.000295 -0.000283
  0C   1dz2      -0.000002  0.000260  0.000049 -0.000234 -0.000000 -0.000000
  0C   1dxz      -0.000000  0.000000  0.000000 -0.000000  0.000025 -0.000027
  0C   1dyz       0.000000  0.000000 -0.000000 -0.000000 -0.000027 -0.000025
  0C   1dx2y2    -0.000000 -0.000000  0.000000 -0.000000  0.000011 -0.000011
  0C   1dxy      -0.000000 -0.000000  0.000000 -0.000000  0.000011  0.000011
  0C   2dz2      -0.000024 -0.000155  0.000309 -0.000343 -0.000000 -0.000000
  0C   2dxz      -0.000000 -0.000000  0.000000 -0.000000 -0.000184  0.000192
  0C   2dyz      -0.000000 -0.000000  0.000000 -0.000001  0.000192  0.000184
  0C   2dx2y2     0.000000  0.000000 -0.000000 -0.000000 -0.000068  0.000070
  0C   2dxy       0.000000 -0.000000 -0.000000 -0.000000 -0.000071 -0.000067
  0C   1f0        0.000001 -0.000464 -0.000095  0.000076  0.000000  0.000000
  0C   1f+1       0.000000 -0.000000 -0.000000  0.000000  0.000031 -0.000032
  0C   1f-1       0.000000 -0.000000 -0.000000  0.000000 -0.000032 -0.000031
  0C   1f+2      -0.000000  0.000000  0.000000  0.000000  0.000012 -0.000013
  0C   1f-2      -0.000000 -0.000000  0.000000 -0.000000  0.000013  0.000012
  0C   1f+3      -0.000000  0.000641  0.000008  0.000040  0.000000  0.000000
  0C   1f-3       0.000000 -0.000000 -0.000000 -0.000000 -0.000000  0.000000
  1H   1s         0.000001  0.000171  0.000006  0.000067 -0.000016  0.000017
  1H   2s        -0.000010 -0.000576 -0.000038 -0.000675  0.000138 -0.000144
  1H   3s        -0.000008 -0.000702  0.000123  0.000110  0.000040 -0.000042
  1H   1pz       -0.000001  0.000043  0.000002  0.000003 -0.000014  0.000014
  1H   1px        0.000000 -0.000287 -0.000012 -0.000005  0.000006 -0.000006
  1H   1py        0.000000  0.000000 -0.000000 -0.000000 -0.000015 -0.000014
  1H   2pz        0.000001  0.000048 -0.000010  0.000006 -0.000045  0.000047
  1H   2px       -0.000007 -0.000242  0.000020 -0.000232 -0.000025  0.000026
  1H   2py       -0.000000  0.000000  0.000000  0.000000  0.000029  0.000028
  1H   1dz2       0.000001  0.000095  0.000002  0.000029  0.000009 -0.000010
  1H   1dxz      -0.000000  0.000044 -0.000006 -0.000004 -0.000011  0.000011
  1H   1dyz       0.000000 -0.000000 -0.000000  0.000000 -0.000010 -0.000009
  1H   1dx2y2    -0.000001 -0.000225 -0.000002 -0.000026 -0.000005  0.000005
  1H   1dxy       0.000000  0.000000 -0.000000  0.000000 -0.000005 -0.000005
  2H   1s         0.000001  0.000171  0.000006  0.000067  0.000023  0.000006
  2H   2s        -0.000010 -0.000576 -0.000038 -0.000676 -0.000195 -0.000048
  2H   3s        -0.000008 -0.000702  0.000123  0.000110 -0.000057 -0.000014
  2H   1pz       -0.000001  0.000043  0.000002  0.000003  0.000019  0.000005
  2H   1px       -0.000000  0.000144  0.000006  0.000003  0.000008 -0.000016
  2H   1py        0.000000 -0.000249 -0.000010 -0.000005 -0.000004 -0.000012
  2H   2pz        0.000001  0.000048 -0.000010  0.000006  0.000063  0.000015
  2H   2px        0.000003  0.000121 -0.000010  0.000116 -0.000026  0.000030
  2H   2py       -0.000006 -0.000210  0.000017 -0.000201  0.000025  0.000027
  2H   1dz2       0.000001  0.000095  0.000002  0.000029 -0.000013 -0.000003
  2H   1dxz       0.000000 -0.000022  0.000003  0.000002 -0.000005 -0.000013
  2H   1dyz      -0.000000  0.000038 -0.000005 -0.000003  0.000015 -0.000003
  2H   1dx2y2     0.000000  0.000113  0.000001  0.000013 -0.000005  0.000005
  2H   1dxy       0.000001  0.000195  0.000002  0.000023 -0.000005 -0.000005
  3H   1s         0.000002  0.000336  0.000156 -0.000214 -0.000000 -0.000000
  3H   2s        -0.000018 -0.000694 -0.000169 -0.001057  0.000001  0.000001
  3H   3s         0.000094 -0.001350 -0.002034 -0.002174  0.000001  0.000001
  3H   1pz       -0.000003 -0.000070 -0.000037 -0.000147 -0.000000 -0.000000
  3H   1px       -0.000000 -0.000000 -0.000000 -0.000000  0.000011 -0.000012
  3H   1py       -0.000000 -0.000000  0.000000  0.000000 -0.000012 -0.000011
  3H   2pz        0.000098  0.000381 -0.000916  0.002468  0.000001  0.000001
  3H   2px        0.000000  0.000000 -0.000000  0.000000 -0.000224  0.000233
  3H   2py       -0.000000 -0.000000  0.000000 -0.000001  0.000233  0.000224
  3H   1dz2      -0.000006 -0.000415 -0.000162  0.000392  0.000000  0.000000
  3H   1dxz      -0.000000 -0.000000 -0.000000  0.000000 -0.000019  0.000020
  3H   1dyz       0.000000 -0.000000  0.000000 -0.000000  0.000020  0.000019
  3H   1dx2y2    -0.000000 -0.000000  0.000000  0.000000  0.000003 -0.000003
  3H   1dxy      -0.000000 -0.000000  0.000000  0.000000  0.000003  0.000003
  4H   1s         0.000001  0.000171  0.000006  0.000067 -0.000006 -0.000022
  4H   2s        -0.000010 -0.000576 -0.000038 -0.000674  0.000056  0.000192
  4H   3s        -0.000008 -0.000702  0.000124  0.000110  0.000016  0.000055
  4H   1pz       -0.000001  0.000043  0.000002  0.000003 -0.000006 -0.000019
  4H   1px       -0.000000  0.000144  0.000006  0.000003  0.000016 -0.000009
  4H   1py       -0.000000  0.000249  0.000010  0.000005 -0.000012 -0.000004
  4H   2pz        0.000001  0.000048 -0.000010  0.000006 -0.000018 -0.000062
  4H   2px        0.000003  0.000121 -0.000010  0.000116 -0.000029  0.000027
  4H   2py        0.000006  0.000210 -0.000018  0.000200  0.000028  0.000024
  4H   1dz2       0.000001  0.000095  0.000002  0.000029  0.000004  0.000013
  4H   1dxz       0.000000 -0.000022  0.000003  0.000002  0.000013  0.000004
  4H   1dyz       0.000000 -0.000038  0.000005  0.000003 -0.000003  0.000015
  4H   1dx2y2     0.000000  0.000113  0.000001  0.000013 -0.000005  0.000005
  4H   1dxy      -0.000001 -0.000195 -0.000002 -0.000023 -0.000005 -0.000005
  5Cl  1s         1.000079  0.000015 -0.000114  0.000036  0.000000  0.000000
  5Cl  2s         0.000137  0.000064  0.940093  0.003438  0.000000  0.000000
  5Cl  3s         0.000099  0.000062 -0.000234 -0.000521  0.000000  0.000000
  5Cl  4s        -0.000473 -0.000129  0.079354 -0.000173 -0.000000 -0.000000
  5Cl  5s        -0.000094  0.000729  0.003333  0.002593 -0.000000 -0.000000
  5Cl  1pz        0.000082  0.000231  0.003113 -0.970919  0.000183  0.000042
  5Cl  1px        0.000000  0.000000  0.000000 -0.000096 -0.672966  0.701930
  5Cl  1py       -0.000000 -0.000000 -0.000001  0.000161  0.701930  0.672966
  5Cl  2pz        0.000088  0.000447 -0.000582  0.002277  0.000000  0.000000
  5Cl  2px        0.000000  0.000000 -0.000000  0.000000  0.000408 -0.000426
  5Cl  2py       -0.000000 -0.000000  0.000000 -0.000000 -0.000426 -0.000408
  5Cl  3pz       -0.000045 -0.000109  0.000723 -0.059151  0.000011  0.000002
  5Cl  3px       -0.000000 -0.000000  0.000000 -0.000006 -0.039733  0.041443
  5Cl  3py        0.000000  0.000000 -0.000000  0.000010  0.041443  0.039733
  5Cl  4pz       -0.000024  0.000140  0.000494 -0.000846  0.000000 -0.000000
  5Cl  4px       -0.000000  0.000000  0.000000 -0.000000 -0.001129  0.001178
  5Cl  4py        0.000000 -0.000000 -0.000000 -0.000000  0.001178  0.001129
  5Cl  1dz2       0.000002  0.000072  0.000791 -0.000634  0.000000  0.000000
  5Cl  1dxz       0.000000  0.000000  0.000000 -0.000000 -0.000314  0.000328
  5Cl  1dyz      -0.000000  0.000000 -0.000000  0.000000  0.000328  0.000314
  5Cl  1dx2y2    -0.000000 -0.000000 -0.000000  0.000000  0.000000 -0.000000
  5Cl  1dxy      -0.000000 -0.000000 -0.000000  0.000000  0.000000  0.000000
  5Cl  2dz2       0.000031  0.000183 -0.000429  0.001192 -0.000000 -0.000000
  5Cl  2dxz       0.000000  0.000000 -0.000000  0.000000  0.000152 -0.000158
  5Cl  2dyz      -0.000000 -0.000000  0.000000 -0.000000 -0.000158 -0.000152
  5Cl  2dx2y2     0.000000  0.000000 -0.000000 -0.000000 -0.000001  0.000001
  5Cl  2dxy       0.000000  0.000000 -0.000000 -0.000000 -0.000001 -0.000001
  5Cl  1f0        0.000012  0.000122 -0.000049 -0.000144  0.000000  0.000000
  5Cl  1f+1       0.000000  0.000000 -0.000000 -0.000000 -0.000149  0.000156
  5Cl  1f-1      -0.000000 -0.000000  0.000000  0.000000  0.000156  0.000149
  5Cl  1f+2       0.000000  0.000000 -0.000000 -0.000000 -0.000000  0.000000
  5Cl  1f-2       0.000000  0.000000 -0.000000 -0.000000 -0.000000 -0.000000
  5Cl  1f+3       0.000000  0.000001 -0.000000 -0.000000  0.000000  0.000000
  5Cl  1f-3      -0.000000 -0.000000  0.000000  0.000000 -0.000000  0.000000
                      6         7         8         9        10        11   
                  -1.10093  -1.00033  -0.64535  -0.61652  -0.61652  -0.45255
                   1.00000   1.00000   1.00000   1.00000   1.00000   1.00000
                  --------  --------  --------  --------  --------  --------
  0C   1s         0.004017 -0.011185  0.003344 -0.000000 -0.000000  0.000000
  0C   2s        -0.140748  0.449334 -0.055183  0.000007  0.000006 -0.000001
  0C   3s        -0.028919  0.093016 -0.010990  0.000002  0.000001 -0.000000
  0C   4s        -0.043929  0.194863 -0.006540 -0.000002 -0.000002 -0.000025
  0C   1pz        0.019296 -0.003289 -0.162722  0.000004 -0.000027  0.000016
  0C   1px        0.000002 -0.000000 -0.000016 -0.167859  0.181791 -0.013579
  0C   1py        0.000001 -0.000001  0.000002  0.181790  0.167860  0.014191
  0C   2pz        0.031596 -0.018785 -0.221820  0.000006 -0.000033  0.000018
  0C   2px        0.000003 -0.000002 -0.000021 -0.207642  0.224875 -0.012994
  0C   2py        0.000002 -0.000004 -0.000003  0.224875  0.207643  0.013579
  0C   3pz        0.005854 -0.000012 -0.119720  0.000008 -0.000010  0.000029
  0C   3px        0.000000  0.000000 -0.000011 -0.091108  0.098671  0.001011
  0C   3py        0.000002 -0.000002 -0.000012  0.098669  0.091110 -0.001057
  0C   1dz2      -0.003145  0.000961  0.013464 -0.000002 -0.000002 -0.000000
  0C   1dxz      -0.000000  0.000000  0.000002 -0.002969  0.003213 -0.000908
  0C   1dyz      -0.000000  0.000000  0.000004  0.003214  0.002964  0.000948
  0C   1dx2y2    -0.000000 -0.000000  0.000000  0.010599 -0.011476  0.000862
  0C   1dxy      -0.000000 -0.000000  0.000002  0.011476  0.010601  0.000901
  0C   2dz2      -0.007344  0.007945  0.019135 -0.000002 -0.000003  0.000000
  0C   2dxz      -0.000001  0.000001  0.000003 -0.002479  0.002679  0.000977
  0C   2dyz      -0.000003  0.000003  0.000005  0.002681  0.002472 -0.001021
  0C   2dx2y2    -0.000000  0.000000  0.000000  0.013186 -0.014276 -0.001738
  0C   2dxy      -0.000000  0.000000  0.000001  0.014276  0.013186 -0.001816
  0C   1f0        0.002540 -0.005372 -0.003497  0.000000 -0.000001  0.000001
  0C   1f+1       0.000001 -0.000001 -0.000001 -0.001963  0.002126 -0.000302
  0C   1f-1       0.000001 -0.000002 -0.000000  0.002126  0.001963  0.000316
  0C   1f+2      -0.000000  0.000001 -0.000000  0.000032 -0.000035 -0.000340
  0C   1f-2       0.000000 -0.000001  0.000000  0.000035  0.000033 -0.000355
  0C   1f+3      -0.001601  0.005867 -0.001383  0.000000  0.000000 -0.000000
  0C   1f-3       0.000000 -0.000001  0.000000 -0.000000  0.000000  0.000000
  1H   1s        -0.020885  0.078661 -0.038876  0.110452 -0.119599  0.009270
  1H   2s        -0.026079  0.091047 -0.055406  0.169895 -0.183963  0.025775
  1H   3s        -0.003382  0.007272 -0.015239  0.056538 -0.061221  0.007144
  1H   1pz        0.000787 -0.001570 -0.003022 -0.002645  0.002863 -0.000207
  1H   1px       -0.002099  0.008021 -0.004127  0.009766 -0.010574  0.000992
  1H   1py        0.000000 -0.000001  0.000000  0.003549  0.003280  0.000050
  1H   2pz        0.001231 -0.000778 -0.007603 -0.002039  0.002207  0.000911
  1H   2px       -0.002725  0.006649 -0.003986  0.012370 -0.013393  0.003952
  1H   2py        0.000000 -0.000000  0.000001  0.007547  0.006971  0.001323
  1H   1dz2       0.000170 -0.000551  0.000822 -0.001021  0.001106 -0.000244
  1H   1dxz       0.000307 -0.000523 -0.001397 -0.001201  0.001300 -0.000113
  1H   1dyz       0.000000  0.000000  0.000000 -0.000276 -0.000255  0.000150
  1H   1dx2y2    -0.000371  0.001337 -0.000910  0.002562 -0.002774  0.000468
  1H   1dxy       0.000000 -0.000000  0.000000  0.001601  0.001479  0.000147
  2H   1s        -0.020884  0.078661 -0.038892 -0.158799 -0.035846 -0.013019
  2H   2s        -0.026079  0.091048 -0.055435 -0.244261 -0.055138 -0.036192
  2H   3s        -0.003381  0.007272 -0.015249 -0.081289 -0.018350 -0.010041
  2H   1pz        0.000787 -0.001570 -0.003022  0.003802  0.000858  0.000292
  2H   1px        0.001050 -0.004010  0.002064  0.006098  0.005667  0.000682
  2H   1py       -0.001818  0.006946 -0.003576 -0.012691 -0.000388 -0.001215
  2H   2pz        0.001231 -0.000778 -0.007603  0.002932  0.000661 -0.001279
  2H   2px        0.001363 -0.003325  0.001994  0.006932  0.010686  0.002397
  2H   2py       -0.002361  0.005759 -0.003455 -0.016532  0.001534 -0.005022
  2H   1dz2       0.000170 -0.000551  0.000822  0.001468  0.000331  0.000342
  2H   1dxz      -0.000154  0.000261  0.000698 -0.000792 -0.000512 -0.000122
  2H   1dyz       0.000266 -0.000453 -0.001210  0.001537  0.000154  0.000113
  2H   1dx2y2     0.000186 -0.000669  0.000456  0.002258 -0.001425  0.000370
  2H   1dxy       0.000321 -0.001158  0.000789  0.002950  0.001783  0.000545
  3H   1s        -0.066822  0.035378  0.127888 -0.000012 -0.000010  0.000002
  3H   2s        -0.078484  0.050001  0.221532 -0.000020 -0.000017  0.000006
  3H   3s        -0.002745 -0.001077 -0.015689  0.000004  0.000004  0.000036
  3H   1pz        0.003367  0.007601  0.001164  0.000000 -0.000000 -0.000001
  3H   1px        0.000000  0.000001  0.000000 -0.001932  0.002092  0.002203
  3H   1py       -0.000002  0.000000  0.000003  0.002092  0.001932 -0.002302
  3H   2pz        0.008069  0.005346  0.005213 -0.000003 -0.000004 -0.000013
  3H   2px        0.000001  0.000000  0.000000 -0.008162  0.008839  0.013020
  3H   2py       -0.000003  0.000001  0.000005  0.008840  0.008162 -0.013607
  3H   1dz2      -0.004375  0.001538  0.008118 -0.000001 -0.000001  0.000001
  3H   1dxz      -0.000001  0.000000  0.000001 -0.000787  0.000852 -0.001449
  3H   1dyz       0.000001 -0.000000 -0.000000  0.000852  0.000786  0.001514
  3H   1dx2y2     0.000000  0.000000  0.000000  0.000141 -0.000153  0.000063
  3H   1dxy       0.000000  0.000000  0.000000  0.000152  0.000141  0.000066
  4H   1s        -0.020885  0.078660 -0.038863  0.048358  0.155455  0.003755
  4H   2s        -0.026079  0.091045 -0.055381  0.074384  0.239116  0.010443
  4H   3s        -0.003383  0.007272 -0.015231  0.024753  0.079572  0.002892
  4H   1pz        0.000786 -0.001568 -0.003024 -0.001156 -0.003718 -0.000083
  4H   1px        0.001050 -0.004011  0.002062 -0.006134 -0.005630 -0.000259
  4H   1py        0.001818 -0.006946  0.003572 -0.001396 -0.012621 -0.000315
  4H   2pz        0.001230 -0.000776 -0.007603 -0.000890 -0.002864  0.000370
  4H   2px        0.001363 -0.003325  0.001990 -0.011204 -0.006063 -0.002323
  4H   2py        0.002360 -0.005758  0.003449  0.000215 -0.016603 -0.000508
  4H   1dz2       0.000170 -0.000551  0.000821 -0.000447 -0.001438 -0.000099
  4H   1dxz      -0.000154  0.000261  0.000699  0.000573  0.000748 -0.000149
  4H   1dyz      -0.000266  0.000452  0.001210  0.000276  0.001518  0.000139
  4H   1dx2y2     0.000185 -0.000668  0.000455  0.001242 -0.002364  0.000074
  4H   1dxy      -0.000321  0.001158 -0.000788  0.002012  0.002800  0.000262
  5Cl  1s        -0.000413 -0.000023  0.000734 -0.000000 -0.000000  0.000001
  5Cl  2s         0.000559 -0.000146  0.001544 -0.000000 -0.000000  0.000003
  5Cl  3s        -0.573843 -0.229586 -0.143108  0.000006  0.000004  0.000003
  5Cl  4s        -0.061616 -0.025221 -0.020026  0.000001  0.000001 -0.000000
  5Cl  5s        -0.345763 -0.157242 -0.131605  0.000001  0.000001 -0.000020
  5Cl  1pz        0.002745 -0.003911 -0.005249 -0.000001 -0.000001 -0.000001
  5Cl  1px        0.000000 -0.000000 -0.000001  0.000198 -0.000214 -0.001500
  5Cl  1py       -0.000001  0.000001  0.000002 -0.000214 -0.000198  0.001568
  5Cl  2pz       -0.054264  0.014493  0.350884 -0.000019 -0.000019 -0.000098
  5Cl  2px       -0.000005  0.000001  0.000035 -0.019378  0.020989  0.388458
  5Cl  2py        0.000010 -0.000001 -0.000065  0.020986  0.019380 -0.405960
  5Cl  3pz       -0.024362  0.010404  0.157771 -0.000008 -0.000007 -0.000043
  5Cl  3px       -0.000002  0.000001  0.000016 -0.008677  0.009398  0.176224
  5Cl  3py        0.000004 -0.000001 -0.000030  0.009397  0.008678 -0.184164
  5Cl  4pz       -0.008627  0.003730  0.157556 -0.000010 -0.000009 -0.000071
  5Cl  4px       -0.000001  0.000000  0.000016 -0.008478  0.009183  0.250604
  5Cl  4py        0.000002 -0.000000 -0.000033  0.009181  0.008479 -0.261895
  5Cl  1dz2      -0.017464 -0.001046  0.018783 -0.000001 -0.000001 -0.000001
  5Cl  1dxz      -0.000003 -0.000000  0.000003 -0.001394  0.001510  0.005013
  5Cl  1dyz       0.000006  0.000000 -0.000007  0.001510  0.001394 -0.005239
  5Cl  1dx2y2     0.000000 -0.000000 -0.000000  0.000005 -0.000005  0.000004
  5Cl  1dxy       0.000000 -0.000000 -0.000000  0.000006  0.000005  0.000003
  5Cl  2dz2      -0.017790 -0.004682  0.017783 -0.000002 -0.000002 -0.000006
  5Cl  2dxz      -0.000003 -0.000001  0.000003 -0.000722  0.000783  0.010353
  5Cl  2dyz       0.000006  0.000002 -0.000008  0.000782  0.000723 -0.010819
  5Cl  2dx2y2    -0.000000  0.000000  0.000000  0.000194 -0.000210  0.000020
  5Cl  2dxy      -0.000000  0.000000  0.000000  0.000210  0.000195  0.000019
  5Cl  1f0       -0.003254  0.000739  0.011236 -0.000001 -0.000001 -0.000005
  5Cl  1f+1      -0.000001  0.000000  0.000003 -0.000504  0.000546  0.006949
  5Cl  1f-1       0.000002  0.000000 -0.000005  0.000546  0.000504 -0.007262
  5Cl  1f+2      -0.000000  0.000000 -0.000000  0.000068 -0.000074  0.000003
  5Cl  1f-2      -0.000000  0.000000  0.000000  0.000074  0.000068  0.000001
  5Cl  1f+3      -0.000004  0.000006 -0.000001 -0.000000  0.000000  0.000000
  5Cl  1f-3       0.000000 -0.000000  0.000000 -0.000000 -0.000000 -0.000000
                     12        13        14        15        16        17   
                  -0.45255  -0.41789   0.13206   0.20127   0.20127   0.27838
                   1.00000   1.00000   0.00000   0.00000   0.00000   0.00000
                  --------  --------  --------  --------  --------  --------
  0C   1s        -0.000000  0.004005  0.025303  0.000001  0.000001 -0.019596
  0C   2s         0.000001  0.083789  0.261684  0.000006  0.000005 -0.006160
  0C   3s         0.000000  0.020219  0.046978  0.000002  0.000002 -0.017000
  0C   4s         0.000023  0.110903  3.659716  0.000008  0.000006  1.133114
  0C   1pz       -0.000012 -0.236276  0.048660 -0.000004 -0.000020 -0.085279
  0C   1px       -0.014193 -0.000021  0.000004 -0.093732  0.097828 -0.000007
  0C   1py       -0.013581 -0.000025  0.000000  0.097830  0.093731 -0.000037
  0C   2pz       -0.000014 -0.345117  0.134233 -0.000017 -0.000066 -0.109034
  0C   2px       -0.013582 -0.000031  0.000012 -0.282879  0.295249 -0.000013
  0C   2py       -0.012996 -0.000039  0.000009  0.295245  0.282883  0.000093
  0C   3pz       -0.000026 -0.236776  0.045849 -0.000042 -0.000262 -2.161567
  0C   3px        0.001051 -0.000021  0.000004 -1.251741  1.306476 -0.000209
  0C   3py        0.001005 -0.000034 -0.000016  1.306461  1.251756  0.000231
  0C   1dz2       0.000001  0.011909 -0.004619  0.000001  0.000001 -0.038947
  0C   1dxz      -0.000948  0.000002 -0.000001  0.001583 -0.001651 -0.000006
  0C   1dyz      -0.000907  0.000004 -0.000001 -0.001652 -0.001582 -0.000011
  0C   1dx2y2     0.000901  0.000000 -0.000000 -0.002681  0.002798 -0.000000
  0C   1dxy      -0.000863  0.000001 -0.000000 -0.002797 -0.002682 -0.000004
  0C   2dz2      -0.000000  0.021022 -0.066422 -0.000004 -0.000014  0.114641
  0C   2dxz       0.001021  0.000003 -0.000010 -0.032816  0.034225  0.000018
  0C   2dyz       0.000977  0.000012 -0.000027  0.034234  0.032776  0.000004
  0C   2dx2y2    -0.001818  0.000000 -0.000000  0.083560 -0.087201  0.000004
  0C   2dxy       0.001740  0.000001 -0.000001  0.087193  0.083580  0.000102
  0C   1f0       -0.000000 -0.003802 -0.017347  0.000001  0.000002 -0.021071
  0C   1f+1      -0.000316 -0.000001 -0.000004  0.002591 -0.002705 -0.000005
  0C   1f-1      -0.000302 -0.000002 -0.000005 -0.002705 -0.002592 -0.000009
  0C   1f+2      -0.000355 -0.000000  0.000002  0.000664 -0.000693  0.000001
  0C   1f-2       0.000339  0.000000 -0.000004  0.000693  0.000663  0.000006
  0C   1f+3       0.000000 -0.001096  0.021184 -0.000000 -0.000000  0.004360
  0C   1f-3       0.000000  0.000000 -0.000003 -0.000000 -0.000000 -0.000001
  1H   1s         0.009683 -0.024438 -0.000749 -0.010450  0.010906  0.042473
  1H   2s         0.026918 -0.032463 -0.283632 -0.165413  0.172651  0.088901
  1H   3s         0.007464 -0.032947 -1.262060 -1.957571  2.042876  0.594096
  1H   1pz       -0.000217 -0.005322 -0.002602 -0.004596  0.004793 -0.013397
  1H   1px        0.001036 -0.002235  0.013169  0.015154 -0.015813 -0.004218
  1H   1py       -0.000048 -0.000001 -0.000001  0.009828  0.009420  0.000002
  1H   2pz        0.000952 -0.014057  0.049044  0.034152 -0.035632  0.041178
  1H   2px        0.004126  0.000417 -0.172658 -0.147222  0.153640 -0.008002
  1H   2py       -0.001265 -0.000002  0.000018 -0.028166 -0.027014  0.000015
  1H   1dz2      -0.000254  0.000717  0.006322  0.002887 -0.003013 -0.001454
  1H   1dxz      -0.000118 -0.002469  0.003950  0.003171 -0.003309 -0.003123
  1H   1dyz      -0.000143  0.000000  0.000000 -0.001428 -0.001368 -0.000002
  1H   1dx2y2     0.000489 -0.000311 -0.008709 -0.007650  0.007985 -0.005670
  1H   1dxy      -0.000140 -0.000000  0.000002 -0.000509 -0.000490  0.000002
  2H   1s         0.003182 -0.024444 -0.000746  0.014669  0.003597  0.042493
  2H   2s         0.008845 -0.032475 -0.283620  0.232212  0.056949  0.089293
  2H   3s         0.002455 -0.032955 -1.262117  2.747944  0.673795  0.594306
  2H   1pz       -0.000072 -0.005322 -0.002603  0.006450  0.001579 -0.013399
  2H   1px       -0.000229  0.001117 -0.006585  0.007828  0.014059  0.002105
  2H   1py        0.000261 -0.001936  0.011406 -0.020043  0.002094 -0.003647
  2H   2pz        0.000313 -0.014057  0.049044 -0.047935 -0.011748  0.041171
  2H   2px       -0.002217 -0.000210  0.086330 -0.095281 -0.058163  0.003973
  2H   2py        0.000285  0.000360 -0.149530  0.183625  0.024938 -0.006862
  2H   1dz2      -0.000083  0.000717  0.006322 -0.004053 -0.000993 -0.001455
  2H   1dxz      -0.000155  0.001234 -0.001974  0.002634 -0.001118  0.001562
  2H   1dyz      -0.000134 -0.002138  0.003421 -0.003619 -0.001905 -0.002708
  2H   1dx2y2     0.000090  0.000156  0.004355 -0.005516 -0.000723  0.002832
  2H   1dxy      -0.000237  0.000269  0.007542 -0.009217 -0.002624  0.004905
  3H   1s        -0.000002  0.030067  0.013156  0.000001  0.000001 -0.079631
  3H   2s        -0.000005  0.067005 -0.116376  0.000009  0.000008 -0.776859
  3H   3s        -0.000033  0.032203 -0.768489  0.000114  0.000102 -4.434617
  3H   1pz        0.000001  0.018269  0.004428 -0.000000 -0.000001  0.000495
  3H   1px        0.002302  0.000002  0.000000 -0.004229  0.004414 -0.000001
  3H   1py        0.002203 -0.000001  0.000004  0.004414  0.004229  0.000017
  3H   2pz        0.000009  0.035864 -0.057975 -0.000005 -0.000001 -0.059101
  3H   2px        0.013607  0.000003 -0.000005  0.016811 -0.017546 -0.000002
  3H   2py        0.013020 -0.000001 -0.000023 -0.017546 -0.016811 -0.000100
  3H   1dz2      -0.000001  0.003618 -0.003141  0.000001  0.000001 -0.022442
  3H   1dxz      -0.001514  0.000001 -0.000000  0.000197 -0.000206 -0.000004
  3H   1dyz      -0.001449  0.000001 -0.000001 -0.000206 -0.000197 -0.000001
  3H   1dx2y2     0.000065  0.000000  0.000000 -0.000824  0.000860 -0.000000
  3H   1dxy      -0.000062  0.000000 -0.000000 -0.000860 -0.000824 -0.000002
  4H   1s        -0.012871 -0.024432 -0.000751 -0.004220 -0.014504  0.042455
  4H   2s        -0.035786 -0.032453 -0.283642 -0.066791 -0.229592  0.088552
  4H   3s        -0.009915 -0.032940 -1.262009 -0.790472 -2.716760  0.593911
  4H   1pz        0.000287 -0.005323 -0.002599 -0.001854 -0.006370 -0.013396
  4H   1px        0.000672  0.001116 -0.006585 -0.014380 -0.007223  0.002109
  4H   1py        0.001203  0.001934 -0.011405  0.001237 -0.020115  0.003656
  4H   2pz       -0.001268 -0.014057  0.048998  0.013774  0.047338  0.041182
  4H   2px        0.002300 -0.000211  0.086340  0.062180  0.092733  0.004036
  4H   2py        0.005007 -0.000364  0.149530  0.032746  0.182404  0.006998
  4H   1dz2       0.000338  0.000716  0.006323  0.001166  0.004009 -0.001454
  4H   1dxz      -0.000129  0.001235 -0.001973  0.001005 -0.002677  0.001561
  4H   1dyz      -0.000107  0.002139 -0.003416 -0.002057 -0.003531  0.002702
  4H   1dx2y2     0.000374  0.000155  0.004354  0.000957  0.005479  0.002838
  4H   1dxy      -0.000534 -0.000268 -0.007543 -0.003015 -0.009098 -0.004914
  5Cl  1s        -0.000000 -0.000110 -0.004640  0.000003  0.000003 -0.025802
  5Cl  2s        -0.000003 -0.001577 -0.025819  0.000017  0.000015 -0.147280
  5Cl  3s        -0.000003 -0.039209  0.022181  0.000023  0.000021  0.033194
  5Cl  4s         0.000000 -0.003435  0.009864 -0.000001 -0.000001  0.029167
  5Cl  5s         0.000018 -0.059527  0.328344 -0.000074 -0.000066  1.807368
  5Cl  1pz        0.000001 -0.007290 -0.003328  0.000003  0.000001 -0.060693
  5Cl  1px       -0.001568 -0.000001 -0.000000 -0.009338  0.009745 -0.000006
  5Cl  1py       -0.001500  0.000002  0.000004  0.009747  0.009337 -0.000001
  5Cl  2pz        0.000018 -0.439981  0.025104  0.000008  0.000002 -0.075651
  5Cl  2px        0.405960 -0.000042  0.000002 -0.027827  0.029052 -0.000003
  5Cl  2py        0.388458  0.000034  0.000007  0.029044  0.027835 -0.000110
  5Cl  3pz        0.000006 -0.189722  0.015710  0.000000  0.000000  0.042488
  5Cl  3px        0.184164 -0.000018  0.000002 -0.000095  0.000106  0.000006
  5Cl  3py        0.176224  0.000013 -0.000003  0.000099  0.000101 -0.000053
  5Cl  4pz        0.000018 -0.284477  0.205697 -0.000053 -0.000042  1.425214
  5Cl  4px        0.261896 -0.000027  0.000021  0.029110 -0.030358  0.000145
  5Cl  4py        0.250604  0.000019 -0.000047 -0.030382 -0.029086 -0.000363
  5Cl  1dz2      -0.000001 -0.001988 -0.001959  0.000004  0.000003 -0.065672
  5Cl  1dxz       0.005238 -0.000000 -0.000000 -0.001955  0.002037 -0.000012
  5Cl  1dyz       0.005013  0.000002  0.000001  0.002041  0.001952  0.000049
  5Cl  1dx2y2     0.000006 -0.000000 -0.000000 -0.001978  0.002064  0.000000
  5Cl  1dxy      -0.000005 -0.000000 -0.000000 -0.002063 -0.001978  0.000000
  5Cl  2dz2       0.000002 -0.004330  0.020874 -0.000000 -0.000001  0.038971
  5Cl  2dxz       0.010819 -0.000001  0.000003 -0.001214  0.001261  0.000004
  5Cl  2dyz       0.010353  0.000004 -0.000003  0.001269  0.001211  0.000080
  5Cl  2dx2y2     0.000024  0.000000 -0.000000 -0.010424  0.010883 -0.000000
  5Cl  2dxy      -0.000021  0.000000 -0.000000 -0.010876 -0.010430 -0.000002
  5Cl  1f0        0.000001 -0.008323  0.002506  0.000001  0.000000  0.014410
  5Cl  1f+1       0.007262 -0.000002  0.000001 -0.001426  0.001488  0.000003
  5Cl  1f-1       0.006949  0.000004  0.000001  0.001488  0.001426  0.000000
  5Cl  1f+2       0.000008  0.000000 -0.000000 -0.000962  0.001006  0.000000
  5Cl  1f-2      -0.000006  0.000000 -0.000000 -0.001004 -0.000963 -0.000000
  5Cl  1f+3      -0.000000  0.000002 -0.000162  0.000000 -0.000000  0.000097
  5Cl  1f-3       0.000000 -0.000000  0.000000  0.000000  0.000000 -0.000000
                     18        19        20        21        22        23   
                   0.31951   0.33721   0.33721   0.43858   0.51415   0.51471
                   0.00000   0.00000   0.00000   0.00000   0.00000   0.00000
                  --------  --------  --------  --------  --------  --------
  0C   1s        -0.009272 -0.000000  0.000001 -0.019585 -0.036767  0.000093
  0C   2s         0.000042 -0.000001  0.000004 -0.164510 -0.144464  0.000331
  0C   3s         0.001520  0.000002 -0.000006 -0.074360 -0.086511  0.000209
  0C   4s        -1.241694 -0.000467  0.001255  0.862580  1.483537 -0.003329
  0C   1pz        0.082856  0.000038 -0.000080  0.162227  0.190304 -0.000467
  0C   1px        0.000005 -0.077582 -0.031832  0.000014  0.000021 -0.029729
  0C   1py        0.000065 -0.031839  0.077579  0.000032 -0.000121 -0.028569
  0C   2pz       -0.027471 -0.000066  0.000022  0.181852  0.317099 -0.000765
  0C   2px        0.000008  0.545818  0.223964  0.000019  0.000001  0.166147
  0C   2py       -0.000315  0.223988 -0.545806 -0.000059  0.000884  0.159664
  0C   3pz       -0.249516 -0.000113 -0.000320 -2.040510 -0.899911  0.001837
  0C   3px        0.000024  2.199976  0.902729 -0.000170 -0.000167  0.531113
  0C   3py       -0.001408  0.902796 -2.199945 -0.000550  0.002637  0.510388
  0C   1dz2      -0.010352  0.000000 -0.000003 -0.023712 -0.009187  0.000013
  0C   1dxz      -0.000002  0.004746  0.001946 -0.000004 -0.000002  0.003157
  0C   1dyz      -0.000005  0.001949 -0.004746 -0.000005  0.000011  0.003034
  0C   1dx2y2     0.000000  0.006720  0.002760 -0.000000  0.000000 -0.002236
  0C   1dxy       0.000007 -0.002758  0.006720 -0.000001  0.000007  0.002150
  0C   2dz2       0.205109  0.000006 -0.000066  0.295283  0.276352 -0.000773
  0C   2dxz       0.000032  0.098083  0.040323  0.000048  0.000023  0.126733
  0C   2dyz       0.000052  0.040160 -0.098048  0.000019  0.000694  0.121759
  0C   2dx2y2    -0.000009 -0.497176 -0.204074 -0.000002  0.000024 -0.158879
  0C   2dxy      -0.000289  0.204135 -0.497169 -0.000064  0.000781  0.152748
  0C   1f0       -0.009290  0.000012 -0.000009 -0.031286 -0.041606  0.000113
  0C   1f+1      -0.000003 -0.034078 -0.013974 -0.000007 -0.000007 -0.017050
  0C   1f-1       0.000011 -0.013994  0.034080 -0.000005 -0.000093 -0.016387
  0C   1f+2      -0.000004 -0.030489 -0.012525 -0.000000  0.000003 -0.007312
  0C   1f-2      -0.000011  0.012507 -0.030485 -0.000006  0.000036  0.007024
  0C   1f+3      -0.032538 -0.000002  0.000017  0.002248  0.014468 -0.000027
  0C   1f-3       0.000005  0.000004  0.000005 -0.000000 -0.000002  0.000001
  1H   1s         0.011134  0.035893  0.014739  0.034243 -0.018091 -0.003130
  1H   2s         0.510268  1.761533  0.722597  0.160896 -0.264071  0.450000
  1H   3s        -0.360060  0.768440  0.315829  0.352581  0.003951  0.179644
  1H   1pz       -0.013337 -0.002624 -0.001070 -0.016010 -0.002092  0.007577
  1H   1px        0.009938  0.031453  0.012899 -0.002076 -0.008135  0.008150
  1H   1py       -0.000011  0.004975 -0.012128 -0.000002 -0.000017 -0.002473
  1H   2pz        0.020049 -0.115483 -0.047380  0.129704  0.046390 -0.116413
  1H   2px        0.087198  0.395218  0.162120 -0.025311 -0.022786  0.144402
  1H   2py       -0.000034  0.024011 -0.058616 -0.000003  0.000385  0.059894
  1H   1dz2      -0.011659 -0.007406 -0.003034 -0.005359  0.002629 -0.002399
  1H   1dxz      -0.002044 -0.016063 -0.006590  0.001890  0.000355 -0.004338
  1H   1dyz       0.000000 -0.002108  0.005146 -0.000001 -0.000006 -0.000888
  1H   1dx2y2     0.003169  0.032923  0.013506 -0.007550 -0.010314  0.011478
  1H   1dxy      -0.000004  0.002267 -0.005540  0.000001  0.000010  0.001366
  2H   1s         0.011106 -0.005192 -0.038446  0.034239 -0.018091 -0.001002
  2H   2s         0.509279 -0.254528 -1.887130  0.160688 -0.261912  0.149957
  2H   3s        -0.360503 -0.111260 -0.822929  0.352471  0.004750  0.059719
  2H   1pz       -0.013334  0.000375  0.002813 -0.016011 -0.002056  0.002520
  2H   1px       -0.004965  0.013523  0.015328  0.001038  0.004040 -0.004362
  2H   1py        0.008589  0.002560 -0.030059 -0.001802 -0.007016  0.000625
  2H   2pz        0.020102  0.016683  0.123702  0.129720  0.045850 -0.038750
  2H   2px       -0.043504  0.082918  0.204354  0.012693  0.011226  0.048709
  2H   2py        0.075334 -0.018070 -0.370898 -0.021970 -0.019076  0.083533
  2H   1dz2      -0.011656  0.001069  0.007938 -0.005357  0.002619 -0.000800
  2H   1dxz       0.001016 -0.005934 -0.007961 -0.000947 -0.000170 -0.000358
  2H   1dyz      -0.001762 -0.000746  0.015272  0.001636  0.000289 -0.001871
  2H   1dx2y2    -0.001574 -0.002758  0.018328  0.003778  0.005127 -0.003574
  2H   1dxy      -0.002731  0.007086  0.030142  0.006543  0.008887 -0.002358
  3H   1s        -0.038327  0.000001 -0.000002  0.098725  0.133177 -0.000323
  3H   2s        -0.947661 -0.000125  0.000339  0.158747 -0.702804  0.001817
  3H   3s         3.019224  0.001330 -0.003574 -2.236982 -1.267213  0.002603
  3H   1pz        0.009983 -0.000002 -0.000000  0.020266 -0.004209  0.000007
  3H   1px        0.000002  0.020986  0.008613  0.000002 -0.000000 -0.003188
  3H   1py       -0.000027  0.008611 -0.020987  0.000005 -0.000001 -0.003063
  3H   2pz       -0.319865 -0.000032  0.000116 -0.615905 -0.058906  0.000161
  3H   2px       -0.000033 -0.097950 -0.040200 -0.000056 -0.000002  0.017327
  3H   2py        0.000103 -0.040190  0.097954 -0.000042 -0.000114  0.016652
  3H   1dz2      -0.010191 -0.000001  0.000003 -0.019683 -0.032145  0.000083
  3H   1dxz      -0.000001 -0.002983 -0.001226 -0.000003 -0.000005 -0.000894
  3H   1dyz      -0.000005 -0.001222  0.002982 -0.000010 -0.000008 -0.000858
  3H   1dx2y2     0.000000  0.010974  0.004502  0.000000 -0.000001  0.003916
  3H   1dxy       0.000007 -0.004507  0.010972  0.000001 -0.000021 -0.003764
  4H   1s         0.011160 -0.030708  0.023727  0.034246 -0.018090  0.004303
  4H   2s         0.511148 -1.506698  1.163703  0.161079 -0.266005 -0.598091
  4H   3s        -0.359661 -0.657626  0.508295  0.352675  0.003235 -0.239271
  4H   1pz       -0.013337  0.002234 -0.001723 -0.016010 -0.002127 -0.010092
  4H   1px       -0.004975  0.020392 -0.001406  0.001034  0.004093  0.004546
  4H   1py       -0.008625  0.019289 -0.023179  0.001792  0.007070  0.009857
  4H   2pz        0.020024  0.098698 -0.076241  0.129683  0.046868  0.154845
  4H   2px       -0.043677  0.202587 -0.087157  0.012657  0.011521  0.117025
  4H   2py       -0.075676  0.273410 -0.251191  0.021895  0.020350  0.154606
  4H   1dz2      -0.011663  0.006338 -0.004892 -0.005360  0.002637  0.003187
  4H   1dxz       0.001022 -0.009809  0.001493 -0.000946 -0.000182 -0.003196
  4H   1dyz       0.001773 -0.010191  0.011384 -0.001636 -0.000320 -0.004822
  4H   1dx2y2    -0.001594  0.010910 -0.014979  0.003772  0.005184  0.007144
  4H   1dxy       0.002758 -0.026222  0.016472 -0.006535 -0.008972 -0.013473
  5Cl  1s         0.007059  0.000003 -0.000007  0.000864 -0.004195  0.000022
  5Cl  2s         0.037399  0.000012 -0.000032  0.005183 -0.029827  0.000148
  5Cl  3s        -0.075980 -0.000066  0.000178 -0.015857 -0.029875  0.000212
  5Cl  4s        -0.005153 -0.000010  0.000028  0.015108 -0.031960  0.000079
  5Cl  5s        -1.174438 -0.000499  0.001342  0.149246  0.554952 -0.001374
  5Cl  1pz        0.025733  0.000045 -0.000111  0.064383 -0.259316  0.000656
  5Cl  1px        0.000001 -0.037414 -0.015367  0.000007 -0.000071  0.276672
  5Cl  1py        0.000036 -0.015344  0.037425 -0.000034  0.001456  0.265876
  5Cl  2pz        0.125221  0.000117 -0.000265  0.167077 -0.895191  0.002253
  5Cl  2px        0.000006 -0.176507 -0.072474  0.000019 -0.000221  0.817838
  5Cl  2py        0.000167 -0.072400  0.176540 -0.000124  0.004316  0.785924
  5Cl  3pz        0.023002 -0.000006  0.000026 -0.010158 -0.111870  0.000278
  5Cl  3px        0.000001 -0.037255 -0.015290 -0.000001 -0.000015  0.024077
  5Cl  3py        0.000035 -0.015287  0.037257 -0.000014  0.000135  0.023138
  5Cl  4pz       -0.820024 -0.000485  0.001284 -0.688885  1.441018 -0.003580
  5Cl  4px       -0.000080  0.075498  0.031023 -0.000070  0.000301 -0.978289
  5Cl  4py        0.000100  0.030952 -0.075531  0.000193 -0.005244 -0.940113
  5Cl  1dz2      -0.026978  0.000004 -0.000022  0.111638  0.005208  0.000004
  5Cl  1dxz      -0.000004  0.020454  0.008393  0.000019 -0.000002  0.019844
  5Cl  1dyz      -0.000011  0.008394 -0.020454 -0.000032  0.000097  0.019070
  5Cl  1dx2y2     0.000000  0.000924  0.000379  0.000000 -0.000000  0.001030
  5Cl  1dxy       0.000000 -0.000378  0.000920  0.000001 -0.000006 -0.000986
  5Cl  2dz2      -0.223264 -0.000059  0.000095  0.153628  0.298346 -0.000693
  5Cl  2dxz      -0.000034  0.128544  0.052763  0.000025  0.000044  0.046720
  5Cl  2dyz      -0.000048  0.052740 -0.128557 -0.000012  0.000135  0.044900
  5Cl  2dx2y2     0.000000  0.012566  0.005139  0.000000 -0.000002  0.010174
  5Cl  2dxy       0.000008 -0.005163  0.012527  0.000004 -0.000058 -0.009772
  5Cl  1f0       -0.012549 -0.000003  0.000002 -0.023144  0.030091 -0.000075
  5Cl  1f+1      -0.000003  0.010045  0.004122 -0.000006  0.000007  0.002773
  5Cl  1f-1      -0.000003  0.004122 -0.010045  0.000017  0.000003  0.002665
  5Cl  1f+2       0.000000  0.000548  0.000221  0.000000 -0.000000  0.000365
  5Cl  1f-2       0.000000 -0.000226  0.000542  0.000000 -0.000002 -0.000350
  5Cl  1f+3       0.000014 -0.000000  0.000000  0.000047 -0.000092  0.000000
  5Cl  1f-3      -0.000000 -0.000000 -0.000000 -0.000000  0.000000  0.000000
                     24        25        26        27        28        29   
                   0.51472   0.56639   0.56640   0.59697   0.61441   0.61441
                   0.00000   0.00000   0.00000   0.00000   0.00000   0.00000
                  --------  --------  --------  --------  --------  --------
  0C   1s        -0.000103 -0.000012 -0.000013  0.051695  0.000002 -0.000002
  0C   2s        -0.000367 -0.000008 -0.000010 -0.275164 -0.000039  0.000036
  0C   3s        -0.000231 -0.000017 -0.000019 -0.129363 -0.000028  0.000025
  0C   4s         0.003686  0.000549  0.000620  6.268736  0.001114 -0.001013
  0C   1pz        0.000523  0.000022  0.000030 -0.096654  0.000015 -0.000049
  0C   1px       -0.028565  0.025641 -0.024045 -0.000010  0.197474  0.201023
  0C   1py        0.029725  0.024027  0.025660  0.000031 -0.201022  0.197476
  0C   2pz        0.000817  0.000152  0.000137  0.151749  0.000035  0.000027
[...]
     14       0.000000   0.000000   0.000000   0.000000   0.000000   0.000000
     15       0.000000   0.000000   0.000000   0.000000   0.000000   0.000000
     16       0.000000   0.000000   0.000000   0.000000   0.000000   0.000000
     17       0.000000   0.000000   0.000000   0.000000   0.000000   0.000000
                  6          7          8          9         10         11    
      0      -0.000011  -0.024241  -0.024584   0.000029  -0.051706   0.046458
      1       0.000060   0.024569  -0.024254   0.000558  -0.046495  -0.051666
      2      -0.134800  -0.000915   0.000911   0.305507  -0.000124  -0.000149
      3       0.036565   0.067244   0.068185   0.031609   0.022350  -0.019674
      4      -0.000099  -0.080229   0.079289  -0.001413   0.042034   0.046695
      5       0.131674   0.457409   0.465859   0.504548   0.331200  -0.295314
      6      -0.018309   0.070742   0.082518  -0.015864   0.050153  -0.025801
      7       0.031623  -0.065795   0.075456   0.026145   0.036254   0.018668
      8       0.131936  -0.633154   0.165937   0.497767   0.093193   0.435241
      9       0.000094  -0.401002  -0.406769   0.000053   0.618712  -0.556539
     10      -0.001362   0.406448  -0.401320   0.004176   0.556325   0.618896
     11       0.962159  -0.000327   0.000411   0.339691  -0.000050   0.000058
     12      -0.018235   0.081453   0.072144  -0.015616   0.030977  -0.047189
     13      -0.031682  -0.076399   0.065120  -0.028534   0.014765   0.037694
     14       0.131430   0.171963  -0.628077   0.511395  -0.420944  -0.136063
     15       0.000001   0.013375   0.013558  -0.000015  -0.003016   0.002719
     16       0.000023  -0.013556   0.013376  -0.000200  -0.002711  -0.003023
     17       0.007081   0.000427  -0.000426  -0.156198  -0.000055  -0.000061
                 12         13         14         15         16         17    
      0      -0.000013  -0.052592  -0.064574   0.000001  -0.069948   0.068598
      1       0.000229  -0.064546   0.052632  -0.000005  -0.068593  -0.069952
      2      -0.139252  -0.000021   0.000025  -0.025088  -0.000019  -0.000030
      3       0.117954  -0.065452  -0.080179  -0.568099   0.568611  -0.557341
      4      -0.000296   0.610894  -0.497812  -0.000050  -0.009214  -0.009491
      5       0.494267  -0.108941  -0.133818   0.101553  -0.115268   0.112904
      6      -0.058895   0.656268   0.194363   0.283872  -0.110380  -0.382773
      7       0.101810   0.336364   0.223720  -0.491781   0.165776   0.669691
      8       0.493397  -0.061305   0.161133   0.101120  -0.040181  -0.155827
      9      -0.000038  -0.018073  -0.022237  -0.000001  -0.006912   0.006767
     10      -0.002374  -0.022151   0.018100  -0.000038  -0.006781  -0.006903
     11      -0.453484   0.000095  -0.000062  -0.018906  -0.000003  -0.000005
     12      -0.058921   0.057662   0.681961   0.284214   0.380433   0.117809
     13      -0.102413  -0.151436  -0.374781   0.492101   0.665865   0.178341
     14       0.495164   0.170476  -0.027629   0.101809   0.155671   0.043281
     15       0.000002  -0.000106  -0.000127   0.000000   0.000049  -0.000053
     16       0.000016  -0.000130   0.000103  -0.000005   0.000048   0.000054
     17       0.017910  -0.000002   0.000002   0.000380   0.000000   0.000000


-----------
IR SPECTRUM
-----------

 Mode    freq (cm**-1)   T**2         TX         TY         TZ
-------------------------------------------------------------------
   7:       390.48    0.330107  ( -0.403316   0.408932  -0.014743)
   8:       391.15    0.331288  ( -0.409509  -0.404161   0.015632)
   9:       524.13    5.951190  (  0.000241  -0.000523   2.439506)
  10:       981.78    8.102135  (  2.116659   1.903121  -0.004243)
  11:       981.81    8.102224  ( -1.903343   2.116480  -0.004374)
  12:      1231.59    2.085714  ( -0.000140  -0.007823  -1.444179)
  13:      1458.50    4.612904  (  1.357838   1.664086   0.000334)
  14:      1458.59    4.616420  (  1.666400  -1.356290   0.003052)
  15:      3147.28    0.097484  (  0.000157  -0.000600   0.312224)
  16:      3304.85    0.000125  (  0.007324   0.008436  -0.000196)
  17:      3304.94    0.000126  ( -0.007121   0.008541  -0.001472)

The first frequency considered to be a vibration is 7
The total number of vibrations considered is 11


--------------------------
THERMOCHEMISTRY AT 298.15K
--------------------------

Temperature         ... 298.15 K
Pressure            ... 1.00 atm
Total Mass          ... 51.50 AMU

Throughout the following assumptions are being made:
  (1) The electronic state is orbitally nondegenerate
      but the spin degeneracy is treated
  (2) There are no thermally accessible electronically excited states
  (3) Hindered rotations indicated by low frequency modes are not
      treated as such but are treated as vibrations and this may
      cause some error
  (4) All equations used are the standard statistical mechanics
      equations for an ideal gas
  (5) All vibrations are strictly harmonic

freq.     390.48  E(vib)   ...       0.20 
freq.     391.15  E(vib)   ...       0.20 
freq.     524.13  E(vib)   ...       0.13 
freq.     981.78  E(vib)   ...       0.02 
freq.     981.81  E(vib)   ...       0.02 
freq.    1231.59  E(vib)   ...       0.01 
freq.    1458.50  E(vib)   ...       0.00 
freq.    1458.59  E(vib)   ...       0.00 
freq.    3147.28  E(vib)   ...       0.00 
freq.    3304.85  E(vib)   ...       0.00 
freq.    3304.94  E(vib)   ...       0.00 

------------
INNER ENERGY
------------

The inner energy is: U= E(el) + E(ZPE) + E(vib) + E(rot) + E(trans)
    E(el)   - is the total energy from the electronic structure calculation
              = E(kin-el) + E(nuc-el) + E(el-el) + E(nuc-nuc)
    E(ZPE)  - the the zero temperature vibrational energy from the frequency calculation
    E(vib)  - the the finite temperature correction to E(ZPE) due to population
              of excited vibrational states
    E(rot)  - is the rotational thermal energy
    E(trans)- is the translational thermal energy

Summary of contributions to the inner energy U:
Electronic energy                ...   -500.09053505 Eh
Zero point energy                ...      0.03912775 Eh      24.55 kcal/mol
Thermal vibrational correction   ...      0.00094922 Eh       0.60 kcal/mol
Thermal rotational correction    ...      0.00141627 Eh       0.89 kcal/mol
Thermal translational correction ...      0.00141627 Eh       0.89 kcal/mol
-----------------------------------------------------------------------
Total thermal energy                   -500.04762554 Eh


Summary of corrections to the electronic energy:
(perhaps to be used in another calculation)
Total thermal correction                  0.00378176 Eh       2.37 kcal/mol
Non-thermal (ZPE) correction              0.03912775 Eh      24.55 kcal/mol
-----------------------------------------------------------------------
Total correction                          0.04290951 Eh      26.93 kcal/mol


--------
ENTHALPY
--------

The enthalpy is H = U + kB*T
                kB is Boltzmann's constant
Total free energy                 ...   -500.04762554 Eh 
Thermal Enthalpy correction       ...      0.00094421 Eh       0.59 kcal/mol
-----------------------------------------------------------------------
Total Enthalpy                    ...   -500.04668133 Eh


Note: Only C1 symmetry has been detected, increase convergence thresholds 
      if your molecule has a higher symmetry. Symmetry factor of 1.0 is   
      used for the rotational entropy correction. 
 

Note: Rotational entropy computed according to Herzberg 
Infrared and Raman Spectra, Chapter V,1, Van Nostrand Reinhold, 1945 
Point Group:  C1, Symmetry Number:   1  
Rotational constants in cm-1:     4.999527     0.192257     0.192257 

Vibrational entropy computed according to the QRRHO of S. Grimme
Chem.Eur.J. 2012 18 9955


-------
ENTROPY
-------

The entropy contributions are T*S = T*(S(el)+S(vib)+S(rot)+S(trans))
     S(el)   - electronic entropy
     S(vib)  - vibrational entropy
     S(rot)  - rotational entropy
     S(trans)- translational entropy
The entropies will be listed as mutliplied by the temperature to get
units of energy

Electronic entropy                ...      0.00065446 Eh      0.41 kcal/mol
Vibrational entropy               ...      0.00136153 Eh      0.85 kcal/mol
Rotational entropy                ...      0.01030794 Eh      6.47 kcal/mol
Translational entropy             ...      0.01793131 Eh     11.25 kcal/mol
-----------------------------------------------------------------------
Final entropy term                ...      0.03025523 Eh     18.99 kcal/mol

In case the symmetry of your molecule has not been determined correctly
or in case you have a reason to use a different symmetry number we print 
out the resulting rotational entropy values for sn=1,12 :
 --------------------------------------------------------
|  sn= 1 | S(rot)=       0.01030794 Eh      6.47 kcal/mol|
|  sn= 2 | S(rot)=       0.00965348 Eh      6.06 kcal/mol|
|  sn= 3 | S(rot)=       0.00927065 Eh      5.82 kcal/mol|
|  sn= 4 | S(rot)=       0.00899902 Eh      5.65 kcal/mol|
|  sn= 5 | S(rot)=       0.00878834 Eh      5.51 kcal/mol|
|  sn= 6 | S(rot)=       0.00861619 Eh      5.41 kcal/mol|
|  sn= 7 | S(rot)=       0.00847064 Eh      5.32 kcal/mol|
|  sn= 8 | S(rot)=       0.00834457 Eh      5.24 kcal/mol|
|  sn= 9 | S(rot)=       0.00823336 Eh      5.17 kcal/mol|
|  sn=10 | S(rot)=       0.00813388 Eh      5.10 kcal/mol|
|  sn=11 | S(rot)=       0.00804389 Eh      5.05 kcal/mol|
|  sn=12 | S(rot)=       0.00796173 Eh      5.00 kcal/mol|
 --------------------------------------------------------


-------------------
GIBBS FREE ENERGY
-------------------

The Gibbs free energy is G = H - T*S

Total enthalpy                    ...   -500.04668133 Eh 
Total entropy correction          ...     -0.03025523 Eh    -18.99 kcal/mol
-----------------------------------------------------------------------
Final Gibbs free energy         ...   -500.07693656 Eh

For completeness - the Gibbs free energy minus the electronic energy
G-E(el)                           ...      0.01359849 Eh      8.53 kcal/mol




------------------------------------------------------------------------------- 
                    Intrinsic Reaction Coordinate Calculation                  
------------------------------------------------------------------------------- 

System:
Nr. of atoms                        .... 6
Algorithm: SD (steepest descent step) plus correction
Settings:
Max. no of cycles        MaxIter    .... 1000
Direction                           .... Forward and backward
Initial displacement Hessian type   .... Read
Hessian Filename                    .... H3CHCl‡.hess
Following Hessian mode              .... 0
Initial displacement type           .... Energy
  Initial displacement energy change.... 0.250 mEh
Coordinate system following type    .... Cartesian
Length of steepest descent step     .... 0.150 bohr
Do parabolic fit 
  if SD step is uphill              .... YES
Do Correction to SD step            .... YES
Scaling for length of correction
  compared to SD step               .... 0.333
Do parabolic fit to SD correction   .... YES
Only interpolate for parabolic fit  .... YES
Do update to length of
  SD step and correction            .... YES
Convergence Tolerances:
  Max. Gradient            TolMAXG  ....  2.0000e-03 Eh/bohr
  RMS Gradient             TolRMSG  ....  5.0000e-04 Eh/bohr
Storing full IRC trajectory in      .... H3CHCl‡_IRC_Full_trj.xyz
Storing forward trajectory in       .... H3CHCl‡_IRC_F_trj.xyz
Storing backward trajectory in      .... H3CHCl‡_IRC_B_trj.xyz


 ...good, the file H3CHCl‡.hess exists
Reading the hessian file           ...... done
Determining length of initial displacement:
  Requested energy change (quadratic behavior): 0.250 mEh
  Resulting scaling factor for initial displacement along normalized TS mode: 0.0895

         *************************************************************
         *                          FORWARD IRC                      *
         *************************************************************

Iteration    E(Eh)      dE(kcal/mol)  max(|G|)   RMS(G) 
Convergence thresholds                0.002000  0.000500            
    0      -500.090823   -0.180772    0.007172  0.002183
    1      -500.093011   -1.553635    0.014400  0.004823
    2      -500.095118   -2.875958    0.011744  0.003557
    3      -500.096918   -4.005186    0.010663  0.002885
    4      -500.098484   -4.987763    0.008908  0.002512
    5      -500.099736   -5.773895    0.007807  0.002584
    6      -500.100052   -5.972089    0.007325  0.002246
    7      -500.100307   -6.131839    0.006996  0.001898
    8      -500.100577   -6.301603    0.006637  0.001726
    9      -500.100843   -6.468195    0.006277  0.001646
   10      -500.101091   -6.623753    0.005925  0.001543
   11      -500.101326   -6.771150    0.005586  0.001466
   12      -500.101545   -6.908990    0.005255  0.001366
   13      -500.101753   -7.039486    0.004936  0.001295
   14      -500.101947   -7.160864    0.004627  0.001201
   15      -500.102130   -7.275634    0.004330  0.001140
   16      -500.102298   -7.381454    0.004044  0.001048
   17      -500.102457   -7.481419    0.003771  0.000996
   18      -500.102604   -7.573333    0.003509  0.000909
   19      -500.102742   -7.659742    0.003260  0.000860
   20      -500.102868   -7.739249    0.003021  0.000783
   21      -500.102987   -7.813444    0.002798  0.000736
   22      -500.103094   -7.880761    0.002583  0.000677
   23      -500.103194   -7.943693    0.002379  0.000637
   24      -500.103283   -7.999711    0.002193  0.000628
   25      -500.103358   -8.046671    0.002025  0.000730
   26      -500.103380   -8.060322    0.001987  0.000597
   27      -500.103416   -8.082719    0.001920  0.000500
   28      -500.103454   -8.106626    0.001837  0.000476

                      ***********************HURRAY********************
                      ***            THE IRC HAS CONVERGED          ***
                      *************************************************


         *************************************************************
         *                          BACKWARD IRC                     *
         *************************************************************

Iteration    E(Eh)      dE(kcal/mol)  max(|G|)   RMS(G) 
Convergence thresholds                0.002000  0.000500            
    0      -500.090729   -0.121440    0.007205  0.001962
    1      -500.091966   -0.897920    0.007790  0.002647
    2      -500.093435   -1.819496    0.006807  0.002568
    3      -500.094032   -2.194204    0.005737  0.002595
    4      -500.094318   -2.373678    0.005581  0.002169
    5      -500.094625   -2.566661    0.005216  0.001956
    6      -500.094925   -2.754794    0.004807  0.001842
    7      -500.095201   -2.928230    0.004522  0.001714
    8      -500.095460   -3.090144    0.004146  0.001599
    9      -500.095699   -3.240291    0.003875  0.001479
   10      -500.095921   -3.380028    0.003535  0.001377
   11      -500.096127   -3.509204    0.003307  0.001268
   12      -500.096318   -3.628951    0.002979  0.001180
   13      -500.096494   -3.739268    0.002825  0.001080
   14      -500.096656   -3.841209    0.002464  0.001019
   15      -500.096804   -3.933747    0.002540  0.000918
   16      -500.096942   -4.020258    0.002350  0.000846
   17      -500.097067   -4.098827    0.002128  0.000769
   18      -500.097180   -4.169923    0.002022  0.000708
   19      -500.097284   -4.234781    0.001826  0.000645
   20      -500.097376   -4.292940    0.001912  0.000606
   21      -500.097457   -4.343624    0.001996  0.000655
   22      -500.097471   -4.352652    0.001396  0.000564
   23      -500.097508   -4.375618    0.001299  0.000482

                      ***********************HURRAY********************
                      ***            THE IRC HAS CONVERGED          ***
                      *************************************************


---------------------------------------------------------------
                       IRC PATH SUMMARY              
---------------------------------------------------------------
All gradients are in Eh/Bohr.

Step        E(Eh)      dE(kcal/mol)  max(|G|)   RMS(G) 
   1      -500.097508   -4.375618    0.001299  0.000482
   2      -500.097471   -4.352652    0.001396  0.000564
   3      -500.097457   -4.343624    0.001996  0.000655
   4      -500.097376   -4.292940    0.001912  0.000606
   5      -500.097284   -4.234781    0.001826  0.000645
   6      -500.097180   -4.169923    0.002022  0.000708
   7      -500.097067   -4.098827    0.002128  0.000769
   8      -500.096942   -4.020258    0.002350  0.000846
   9      -500.096804   -3.933747    0.002540  0.000918
  10      -500.096656   -3.841209    0.002464  0.001019
  11      -500.096494   -3.739268    0.002825  0.001080
  12      -500.096318   -3.628951    0.002979  0.001180
  13      -500.096127   -3.509204    0.003307  0.001268
  14      -500.095921   -3.380028    0.003535  0.001377
  15      -500.095699   -3.240291    0.003875  0.001479
  16      -500.095460   -3.090144    0.004146  0.001599
  17      -500.095201   -2.928230    0.004522  0.001714
  18      -500.094925   -2.754794    0.004807  0.001842
  19      -500.094625   -2.566661    0.005216  0.001956
  20      -500.094318   -2.373678    0.005581  0.002169
  21      -500.094032   -2.194204    0.005737  0.002595
  22      -500.093435   -1.819496    0.006807  0.002568
  23      -500.091966   -0.897920    0.007790  0.002647
  24      -500.090729   -0.121440    0.007205  0.001962
  25      -500.090535    0.000000    0.000007  0.000003 <= TS
  26      -500.090823   -0.180772    0.007172  0.002183
  27      -500.093011   -1.553635    0.014400  0.004823
  28      -500.095118   -2.875958    0.011744  0.003557
  29      -500.096918   -4.005186    0.010663  0.002885
  30      -500.098484   -4.987763    0.008908  0.002512
  31      -500.099736   -5.773895    0.007807  0.002584
  32      -500.100052   -5.972089    0.007325  0.002246
  33      -500.100307   -6.131839    0.006996  0.001898
  34      -500.100577   -6.301603    0.006637  0.001726
  35      -500.100843   -6.468195    0.006277  0.001646
  36      -500.101091   -6.623753    0.005925  0.001543
  37      -500.101326   -6.771150    0.005586  0.001466
  38      -500.101545   -6.908990    0.005255  0.001366
  39      -500.101753   -7.039486    0.004936  0.001295
  40      -500.101947   -7.160864    0.004627  0.001201
  41      -500.102130   -7.275634    0.004330  0.001140
  42      -500.102298   -7.381454    0.004044  0.001048
  43      -500.102457   -7.481419    0.003771  0.000996
  44      -500.102604   -7.573333    0.003509  0.000909
  45      -500.102742   -7.659742    0.003260  0.000860
  46      -500.102868   -7.739249    0.003021  0.000783
  47      -500.102987   -7.813444    0.002798  0.000736
  48      -500.103094   -7.880761    0.002583  0.000677
  49      -500.103194   -7.943693    0.002379  0.000637
  50      -500.103283   -7.999711    0.002193  0.000628
  51      -500.103358   -8.046671    0.002025  0.000730
  52      -500.103380   -8.060322    0.001987  0.000597
  53      -500.103416   -8.082719    0.001920  0.000500
  54      -500.103454   -8.106626    0.001837  0.000476

Timings for individual modules:

Sum of individual times         ...     8805.742 sec (= 146.762 min)
GTO integral calculation        ...      193.457 sec (=   3.224 min)   2.2 %
SCF iterations                  ...     1833.642 sec (=  30.561 min)  20.8 %
MP2 module                      ...     5258.379 sec (=  87.640 min)  59.7 %
Geometry relaxation             ...        0.220 sec (=   0.004 min)   0.0 %
Analytical frequency calculation...     1520.043 sec (=  25.334 min)  17.3 %
                             ****ORCA TERMINATED NORMALLY****
TOTAL RUN TIME: 0 days 2 hours 26 minutes 52 seconds 84 msec
