
                                 *****************
                                 * O   R   C   A *
                                 *****************

           --- An Ab Initio, DFT and Semiempirical electronic structure package ---

                  #######################################################
                  #                        -***-                        #
                  #          Department of theory and spectroscopy      #
                  #               Directorship: Frank Neese             #
                  #        Max Planck Institute fuer Kohlenforschung    #
                  #                Kaiser Wilhelm Platz 1               #
                  #                 D-45470 Muelheim/Ruhr               #
                  #                      Germany                        #
                  #                                                     #
                  #                  All rights reserved                #
                  #                        -***-                        #
                  #######################################################


                         Program Version 4.2.1 -  RELEASE  -


 With contributions from (in alphabetic order):
   Daniel Aravena         : Magnetic Suceptibility
   Michael Atanasov       : Ab Initio Ligand Field Theory (pilot matlab implementation)
   Alexander A. Auer      : GIAO ZORA, VPT2
   Ute Becker             : Parallelization
   Giovanni Bistoni       : ED, misc. LED, open-shell LED, HFLD
   Martin Brehm           : Molecular dynamics
   Dmytro Bykov           : SCF Hessian
   Vijay G. Chilkuri      : MRCI spin determinant printing, contributions to CSF-ICE
   Dipayan Datta          : RHF DLPNO-CCSD density
   Achintya Kumar Dutta   : EOM-CC, STEOM-CC
   Dmitry Ganyushin       : Spin-Orbit,Spin-Spin,Magnetic field MRCI
   Miquel Garcia          : C-PCM Hessian, Gaussian charge scheme
   Yang Guo               : DLPNO-NEVPT2, CIM, IAO-localization
   Andreas Hansen         : Spin unrestricted coupled pair/coupled cluster methods
   Benjamin Helmich-Paris : CASSCF linear response (MC-RPA)
   Lee Huntington         : MR-EOM, pCC
   Robert Izsak           : Overlap fitted RIJCOSX, COSX-SCS-MP3, EOM
   Christian Kollmar      : KDIIS, OOCD, Brueckner-CCSD(T), CCSD density
   Simone Kossmann        : Meta GGA functionals, TD-DFT gradient, OOMP2, MP2 Hessian
   Martin Krupicka        : AUTO-CI
   Lucas Lang             : DCDCAS
   Dagmar Lenk            : GEPOL surface, SMD
   Dimitrios Liakos       : Extrapolation schemes; Compound Job, initial MDCI parallelization
   Dimitrios Manganas     : Further ROCIS development; embedding schemes
   Dimitrios Pantazis     : SARC Basis sets
   Taras Petrenko         : DFT Hessian,TD-DFT gradient, ASA, ECA, R-Raman, ABS, FL, XAS/XES, NRVS
   Peter Pinski           : DLPNO-MP2, DLPNO-MP2 Gradient
   Christoph Reimann      : Effective Core Potentials
   Marius Retegan         : Local ZFS, SOC
   Christoph Riplinger    : Optimizer, TS searches, QM/MM, DLPNO-CCSD(T), (RO)-DLPNO pert. Triples
   Tobias Risthaus        : Range-separated hybrids, TD-DFT gradient, RPA, STAB
   Michael Roemelt        : Original ROCIS implementation
   Masaaki Saitow         : Open-shell DLPNO-CCSD energy and density
   Barbara Sandhoefer     : DKH picture change effects
   Avijit Sen             : IP-ROCIS
   Kantharuban Sivalingam : CASSCF convergence, NEVPT2, FIC-MRCI
   Bernardo de Souza      : ESD, SOC TD-DFT
   Georgi Stoychev        : AutoAux, RI-MP2 NMR
   Willem Van den Heuvel  : Paramagnetic NMR
   Boris Wezisla          : Elementary symmetry handling
   Frank Wennmohs         : Technical directorship


 We gratefully acknowledge several colleagues who have allowed us to
 interface, adapt or use parts of their codes:
   Stefan Grimme, W. Hujo, H. Kruse,             : VdW corrections, initial TS optimization,
                  C. Bannwarth                     DFT functionals, gCP, sTDA/sTD-DF
   Ed Valeev, F. Pavosevic, A. Kumar             : LibInt (2-el integral package), F12 methods
   Garnet Chan, S. Sharma, J. Yang, R. Olivares  : DMRG
   Ulf Ekstrom                                   : XCFun DFT Library
   Mihaly Kallay                                 : mrcc  (arbitrary order and MRCC methods)
   Andreas Klamt, Michael Diedenhofen            : otool_cosmo (COSMO solvation model)
   Jiri Pittner, Ondrej Demel                    : Mk-CCSD
   Frank Weinhold                                : gennbo (NPA and NBO analysis)
   Christopher J. Cramer and Donald G. Truhlar   : smd solvation model
   Lars Goerigk                                  : TD-DFT with DH, B97 family of functionals
   V. Asgeirsson, H. Jonsson                     : NEB implementation
   FAccTs GmbH                                   : IRC, NEB, NEB-TS, Multilevel, MM, QM/MM, CI optimization
   S Lehtola, MJT Oliveira, MAL Marques          : LibXC Library


 Your calculation uses the libint2 library for the computation of 2-el integrals
 For citations please refer to: http://libint.valeyev.net

 Your ORCA version has been built with support for libXC version: 4.2.3
 For citations please refer to: https://tddft.org/programs/libxc/

 This ORCA versions uses:
   CBLAS   interface :  Fast vector & matrix operations
   LAPACKE interface :  Fast linear algebra routines
   SCALAPACK package :  Parallel linear algebra routines


----- Orbital basis set information -----
Your calculation utilizes the basis: cc-pVTZ 
       H, B-Ne : Obtained from the ccRepo (grant-hill.group.shef.ac.uk/ccrepo) Feb. 2017
                 T. H. Dunning, Jr., J. Chem. Phys. 90, 1007 (1989)
            He : Obtained from the ccRepo (grant-hill.group.shef.ac.uk/ccrepo) Feb. 2017
                 D. E. Woon, T. H. Dunning, Jr., J. Chem. Phys. 100, 2975 (1994)
  Li-Be, Na-Mg : Obtained from the ccRepo (grant-hill.group.shef.ac.uk/ccrepo) Feb. 2017
                 B. P. Prascher, D. E. Woon, K. A. Peterson, T. H. Dunning, Jr., A. K. Wilson, Theor. Chem. Acc. 128, 69 (2011)
         Al-Ar : Obtained from the ccRepo (grant-hill.group.shef.ac.uk/ccrepo) Feb. 2017
                 D. E. Woon, T. H. Dunning, Jr., J. Chem. Phys. 98, 1358 (1993)
            Ca : Obtained from the Peterson Research Group Website (tyr0.chem.wsu.edu/~kipeters) Feb. 2017
                 J. Koput, K. A. Peterson, J. Phys. Chem. 106, 9595 (2002)
         Sc-Zn : Obtained from the ccRepo (grant-hill.group.shef.ac.uk/ccrepo) Feb. 2017
                 N. B. Balabanov, K. A. Peterson, J. Chem. Phys. 123, 064107 (2005)
                 N. B. Balabanov, K. A. Peterson, J. Chem. Phys. 125, 074110 (2006)
         Ga-Kr : Obtained from the ccRepo (grant-hill.group.shef.ac.uk/ccrepo) Feb. 2017
                 A. K. Wilson, D. E. Woon, K. A. Peterson, T. H. Dunning, Jr., J. Chem. Phys. 110, 7667 (1999)
             Y : Obtained from the ccRepo (grant-hill.group.shef.ac.uk/ccrepo) Feb. 2017
                 K. A. Peterson, D. Figgen, M. Dolg, H. Stoll, J. Chem. Phys. 126, 124101 (2007)
        Ag, Au : Obtained from the Peterson Research Group Website (tyr0.chem.wsu.edu/~kipeters) Feb. 2017
                 K. A. Peterson, C. Puzzarini, Theor. Chem. Acc. 114, 283 (2005)

================================================================================
                                        WARNINGS
                       Please study these warnings very carefully!
================================================================================


WARNING: Geometry Optimization
  ===> : Switching off AutoStart
         For restart on a previous wavefunction, please use MOREAD

WARNING: Post HF methods need fully converged wavefunctions
  ===> : Setting SCFConvForced true
         You can overwrite this default with %scf ConvForced false 


INFO   : the flag for use of LIBINT has been found!

================================================================================
                                       INPUT FILE
================================================================================
NAME = HCl.inp
|  1> ! UHF MP2 cc-pVTZ Opt Freq NoFrozenCore TightOpt TightSCF Grid4 FinalGrid5 PrintBasis PrintMOs NBO
|  2> %maxcore 3000
|  3> 
|  4> *xyz 0 1
|  5>   Cl  0.00000000000000      0.00000000000000      0.03313381385239
|  6>   H   0.00000000000000      0.00000000000000     -1.23532581385239
|  7> *
|  8> 
|  9> %pal
| 10>  nprocs 6
| 11> end
| 12> 
| 13>                          ****END OF INPUT****
================================================================================

                       *****************************
                       * Geometry Optimization Run *
                       *****************************

Geometry optimization settings:
Update method            Update   .... BFGS
Choice of coordinates    CoordSys .... Z-matrix Internals
Initial Hessian          InHess   .... Almoef's Model

Convergence Tolerances:
Energy Change            TolE     ....  1.0000e-06 Eh
Max. Gradient            TolMAXG  ....  1.0000e-04 Eh/bohr
RMS Gradient             TolRMSG  ....  3.0000e-05 Eh/bohr
Max. Displacement        TolMAXD  ....  1.0000e-03 bohr
RMS Displacement         TolRMSD  ....  6.0000e-04 bohr
Strict Convergence                ....  False
------------------------------------------------------------------------------
                        ORCA OPTIMIZATION COORDINATE SETUP
------------------------------------------------------------------------------

The optimization will be done in new redundant internal coordinates
Making redundant internal coordinates   ...  (new redundants) done
Evaluating the initial hessian          ...  (Almloef) done
Evaluating the coordinates              ...  done
Calculating the B-matrix                .... done
Calculating the G-matrix                .... done
Diagonalizing the G-matrix              .... done
The first mode is                       ....    0
The number of degrees of freedom        ....    1

    -----------------------------------------------------------------
                    Redundant Internal Coordinates


    -----------------------------------------------------------------
         Definition                    Initial Value    Approx d2E/dq
    -----------------------------------------------------------------
      1. B(H   1,Cl  0)                  1.2685         0.419467   
    -----------------------------------------------------------------

Number of atoms                         .... 2
Number of degrees of freedom            .... 1

         *************************************************************
         *                GEOMETRY OPTIMIZATION CYCLE   1            *
         *************************************************************
---------------------------------
CARTESIAN COORDINATES (ANGSTROEM)
---------------------------------
  Cl     0.000000    0.000000    0.033134
  H      0.000000    0.000000   -1.235326

----------------------------
CARTESIAN COORDINATES (A.U.)
----------------------------
  NO LB      ZA    FRAG     MASS         X           Y           Z
   0 Cl   17.0000    0    35.453    0.000000    0.000000    0.062614
   1 H     1.0000    0     1.008    0.000000    0.000000   -2.334427

--------------------------------
INTERNAL COORDINATES (ANGSTROEM)
--------------------------------
 Cl     0   0   0     0.000000000000     0.00000000     0.00000000
 H      1   0   0     1.268459627705     0.00000000     0.00000000

---------------------------
INTERNAL COORDINATES (A.U.)
---------------------------
 Cl     0   0   0     0.000000000000     0.00000000     0.00000000
 H      1   0   0     2.397041308298     0.00000000     0.00000000

---------------------
BASIS SET INFORMATION
---------------------
There are 2 groups of distinct atoms

 Group   1 Type Cl  : 41s16p2d1f contracted to 5s4p2d1f pattern {13131311/7711/11/1}
 Group   2 Type H   : 5s2p1d contracted to 3s2p1d pattern {311/11/1}

Atom   0Cl   basis set group =>   1
Atom   1H    basis set group =>   2

-------------------------
BASIS SET IN INPUT FORMAT
-------------------------

 # Basis set for element : H 
 NewGTO H 
 S 3 
   1      33.8700000000      0.0254948632
   2       5.0950000000      0.1903627659
   3       1.1590000000      0.8521620222
 S 1 
   1       0.3258000000      1.0000000000
 S 1 
   1       0.1027000000      1.0000000000
 P 1 
   1       1.4070000000      1.0000000000
 P 1 
   1       0.3880000000      1.0000000000
 D 1 
   1       1.0570000000      1.0000000000
  end;

 # Basis set for element : Cl
 NewGTO Cl
 S 13 
   1  456100.0000000000      0.0000492942
   2   68330.0000000000      0.0003830071
   3   15550.0000000000      0.0020084250
   4    4405.0000000000      0.0083851001
   5    1439.0000000000      0.0294686133
   6     520.4000000000      0.0878274731
   7     203.1000000000      0.2114608968
   8      83.9600000000      0.3653430893
   9      36.2000000000      0.3408644903
  10      15.8300000000      0.1021271547
  11       6.3340000000      0.0031165716
  12       2.6940000000      0.0010574495
  13       0.4313000000      0.0001561271
 S 13 
   1  456100.0000000000     -0.0000147034
   2   68330.0000000000     -0.0001140508
   3   15550.0000000000     -0.0006007529
   4    4405.0000000000     -0.0025104062
   5    1439.0000000000     -0.0089928112
   6     520.4000000000     -0.0276027210
   7     203.1000000000     -0.0729687441
   8      83.9600000000     -0.1508295563
   9      36.2000000000     -0.2119006748
  10      15.8300000000     -0.0208012833
  11       6.3340000000      0.5312863055
  12       2.6940000000      0.5993208817
  13       0.4313000000     -0.0088780471
 S 13 
   1  456100.0000000000      0.0000064955
   2   68330.0000000000      0.0000503429
   3   15550.0000000000      0.0002655380
   4    4405.0000000000      0.0011083303
   5    1439.0000000000      0.0039838068
   6     520.4000000000      0.0122375442
   7     203.1000000000      0.0327244651
   8      83.9600000000      0.0686349823
   9      36.2000000000      0.1011327147
  10      15.8300000000      0.0093581476
  11       6.3340000000     -0.3204597407
  12       2.6940000000     -0.6298715001
  13       0.4313000000      1.1261538336
 S 1 
   1       0.9768000000      1.0000000000
 S 1 
   1       0.1625000000      1.0000000000
 P 7 
   1     663.3000000000      0.0024738409
   2     156.8000000000      0.0197690804
   3      49.9800000000      0.0910628980
   4      18.4200000000      0.2634052893
   5       7.2400000000      0.4495308290
   6       2.9220000000      0.3604399212
   7       0.3818000000     -0.0047164691
 P 7 
   1     663.3000000000     -0.0011177497
   2     156.8000000000     -0.0089030736
   3      49.9800000000     -0.0423241575
   4      18.4200000000     -0.1248048286
   5       7.2400000000     -0.2297219068
   6       2.9220000000     -0.1624390804
   7       0.3818000000      0.9678160112
 P 1 
   1       1.0220000000      1.0000000000
 P 1 
   1       0.1301000000      1.0000000000
 D 1 
   1       1.0460000000      1.0000000000
 D 1 
   1       0.3440000000      1.0000000000
 F 1 
   1       0.7060000000      1.0000000000
  end;



           ************************************************************
           *        Program running with 6 parallel MPI-processes     *
           *              working on a common directory               *
           ************************************************************
------------------------------------------------------------------------------
                           ORCA GTO INTEGRAL CALCULATION
------------------------------------------------------------------------------

                         BASIS SET STATISTICS AND STARTUP INFO

 # of primitive gaussian shells          ...   68
 # of primitive gaussian functions       ...  122
 # of contracted shells                  ...   18
 # of contracted basis functions         ...   48
 Highest angular momentum                ...    3
 Maximum contraction depth               ...   13
 Integral package used                   ... LIBINT
 Integral threshhold            Thresh   ...  2.500e-11
 Primitive cut-off              TCut     ...  2.500e-12


------------------------------ INTEGRAL EVALUATION ----------------------------


 * One electron integrals 
 Pre-screening matrix                    ... done
 Shell pair data                         ... done (   0.000 sec)



           ************************************************************
           *        Program running with 6 parallel MPI-processes     *
           *              working on a common directory               *
           ************************************************************
-------------------------------------------------------------------------------
                                 ORCA SCF
-------------------------------------------------------------------------------

------------
SCF SETTINGS
------------
Hamiltonian:
 Ab initio Hamiltonian  Method          .... Hartree-Fock(GTOs)


General Settings:
 Integral files         IntName         .... HCl
 Hartree-Fock type      HFTyp           .... UHF
 Total Charge           Charge          ....    0
 Multiplicity           Mult            ....    1
 Number of Electrons    NEL             ....   18
 Basis Dimension        Dim             ....   48
 Nuclear Repulsion      ENuc            ....      7.0920763615 Eh

Convergence Acceleration:
 DIIS                   CNVDIIS         .... on
   Start iteration      DIISMaxIt       ....    12
   Startup error        DIISStart       ....  0.200000
   # of expansion vecs  DIISMaxEq       ....     5
   Bias factor          DIISBfac        ....   1.050
   Max. coefficient     DIISMaxC        ....  10.000
 Newton-Raphson         CNVNR           .... off
 SOSCF                  CNVSOSCF        .... off
 Level Shifting         CNVShift        .... on
   Level shift para.    LevelShift      ....    0.2500
   Turn off err/grad.   ShiftErr        ....    0.0010
 Zerner damping         CNVZerner       .... off
 Static damping         CNVDamp         .... on
   Fraction old density DampFac         ....    0.7000
   Max. Damping (<1)    DampMax         ....    0.9800
   Min. Damping (>=0)   DampMin         ....    0.0000
   Turn off err/grad.   DampErr         ....    0.1000
 Fernandez-Rico         CNVRico         .... off

SCF Procedure:
 Maximum # iterations   MaxIter         ....   125
 SCF integral mode      SCFMode         .... Direct
   Integral package                     .... LIBINT
 Reset frequency        DirectResetFreq ....    20
 Integral Threshold     Thresh          ....  2.500e-11 Eh
 Primitive CutOff       TCut            ....  2.500e-12 Eh

Convergence Tolerance:
 Convergence Check Mode ConvCheckMode   .... Total+1el-Energy
 Convergence forced     ConvForced      .... 1
 Energy Change          TolE            ....  1.000e-08 Eh
 1-El. energy change                    ....  1.000e-05 Eh
 DIIS Error             TolErr          ....  5.000e-07


Diagonalization of the overlap matrix:
Smallest eigenvalue                        ... 3.493e-03
Time for diagonalization                   ...    0.001 sec
Threshold for overlap eigenvalues          ... 1.000e-08
Number of eigenvalues below threshold      ... 0
Time for construction of square roots      ...    0.001 sec
Total time needed                          ...    0.002 sec

-------------------
DFT GRID GENERATION
-------------------

General Integration Accuracy     IntAcc      ...  4.670
Radial Grid Type                 RadialGrid  ... Gauss-Chebyshev
Angular Grid (max. acc.)         AngularGrid ... Lebedev-302
Angular grid pruning method      GridPruning ... 3 (G Style)
Weight generation scheme         WeightScheme... Becke
Basis function cutoff            BFCut       ...    1.0000e-11
Integration weight cutoff        WCut        ...    1.0000e-14
Grids for H and He will be reduced by one unit

# of grid points (after initial pruning)     ...  10132 (   0.0 sec)
# of grid points (after weights+screening)   ...  10103 (   0.0 sec)
nearest neighbour list constructed           ...    0.0 sec
Grid point re-assignment to atoms done       ...    0.0 sec
Grid point division into batches done        ...    0.0 sec
Reduced shell lists constructed in    0.0 sec

Total number of grid points                  ...    10103
Total number of batches                      ...      159
Average number of points per batch           ...       63
Average number of grid points per atom       ...     5052
Average number of shells per batch           ...    10.18 (56.55%)
Average number of basis functions per batch  ...    25.89 (53.94%)
Average number of large shells per batch     ...     7.11 (69.82%)
Average number of large basis fcns per batch ...    19.25 (74.34%)
Maximum spatial batch extension              ...  25.31, 23.02, 15.32 au
Average spatial batch extension              ...   1.89,  1.81,  1.36 au

Time for grid setup =    0.066 sec

------------------------------
INITIAL GUESS: MODEL POTENTIAL
------------------------------
Loading Hartree-Fock densities                     ... done
Calculating cut-offs                               ... done
Setting up the integral package                    ... done
Initializing the effective Hamiltonian             ... done
Starting the Coulomb interaction                   ... done (   0.0 sec)
Reading the grid                                   ... done
Mapping shells                                     ... done
Starting the XC term evaluation                    ... done (   0.0 sec)
Transforming the Hamiltonian                       ... done (   0.0 sec)
Diagonalizing the Hamiltonian                      ... done (   0.0 sec)
Back transforming the eigenvectors                 ... done (   0.0 sec)
Now organizing SCF variables                       ... done
                      ------------------
                      INITIAL GUESS DONE (   0.2 sec)
                      ------------------
--------------
SCF ITERATIONS
--------------
ITER       Energy         Delta-E        Max-DP      RMS-DP      [F,P]     Damp
               ***  Starting incremental Fock matrix formation  ***
  0   -460.0834704707   0.000000000000 0.02269217  0.00073194  0.1327856 0.7000
  1   -460.0906234883  -0.007153017531 0.01655337  0.00054626  0.0966902 0.7000
                               ***Turning on DIIS***
  2   -460.0955312722  -0.004907783890 0.03950364  0.00127462  0.0700055 0.0000
  3   -460.1011410449  -0.005609772711 0.00396012  0.00022977  0.0080373 0.0000
  4   -460.1072028211  -0.006061776253 0.00131022  0.00006156  0.0041962 0.0000
  5   -460.1055767525   0.001626068641 0.00051099  0.00003137  0.0018349 0.0000
  6   -460.1068842580  -0.001307505493 0.00025017  0.00001544  0.0005935 0.0000
  7   -460.1068284237   0.000055834258 0.00004994  0.00000267  0.0000636 0.0000
  8   -460.1068567181  -0.000028294427 0.00000647  0.00000039  0.0000096 0.0000
  9   -460.1068537463   0.000002971810 0.00000076  0.00000005  0.0000019 0.0000
                            ***DIIS convergence achieved***

               *****************************************************
               *                     SUCCESS                       *
               *           SCF CONVERGED AFTER  10 CYCLES          *
               *****************************************************


----------------
TOTAL SCF ENERGY
----------------

Total Energy       :         -460.10685021 Eh          -12520.14391 eV

Components:
Nuclear Repulsion  :            7.09207636 Eh             192.98521 eV
Electronic Energy  :         -467.19892657 Eh          -12713.12911 eV
One Electron Energy:         -649.95320329 Eh          -17686.12581 eV
Two Electron Energy:          182.75427672 Eh            4972.99669 eV

Virial components:
Potential Energy   :         -920.23050648 Eh          -25040.74513 eV
Kinetic Energy     :          460.12365627 Eh           12520.60122 eV
Virial Ratio       :            1.99996347


---------------
SCF CONVERGENCE
---------------

  Last Energy change         ...    3.5379e-06  Tolerance :   1.0000e-08
  Last MAX-Density change    ...    2.5715e-07  Tolerance :   1.0000e-07
  Last RMS-Density change    ...    1.4030e-08  Tolerance :   5.0000e-09
  Last DIIS Error            ...    4.7906e-07  Tolerance :   5.0000e-07

             **** THE GBW FILE WAS UPDATED (HCl.gbw) ****
             **** DENSITY FILE WAS UPDATED (HCl.scfp) ****
             **** ENERGY FILE WAS UPDATED (HCl.en.tmp) ****
----------------------
UHF SPIN CONTAMINATION
----------------------

Expectation value of <S**2>     :    -0.000000
Ideal value S*(S+1) for S=0.0   :     0.000000
Deviation                       :    -0.000000

             **** THE GBW FILE WAS UPDATED (HCl.gbw) ****
             **** DENSITY FILE WAS UPDATED (HCl.scfp) ****
----------------
ORBITAL ENERGIES
----------------
                 SPIN UP ORBITALS
  NO   OCC          E(Eh)            E(eV) 
   0   1.0000    -104.845505     -2852.9912 
   1   1.0000     -10.571716      -287.6710 
   2   1.0000      -8.038837      -218.7479 
   3   1.0000      -8.036620      -218.6876 
   4   1.0000      -8.036620      -218.6876 
   5   1.0000      -1.116803       -30.3898 
   6   1.0000      -0.625068       -17.0090 
   7   1.0000      -0.475578       -12.9411 
   8   1.0000      -0.475578       -12.9411 
   9   0.0000       0.125873         3.4252 
  10   0.0000       0.328954         8.9513 
  11   0.0000       0.490501        13.3472 
  12   0.0000       0.490501        13.3472 
  13   0.0000       0.497424        13.5356 
  14   0.0000       0.565977        15.4010 
  15   0.0000       0.565977        15.4010 
  16   0.0000       0.658179        17.9100 
  17   0.0000       0.658179        17.9100 
  18   0.0000       0.724768        19.7219 
  19   0.0000       0.950621        25.8677 
  20   0.0000       1.079071        29.3630 
  21   0.0000       1.079071        29.3630 
  22   0.0000       1.501936        40.8698 
  23   0.0000       2.151831        58.5543 
  24   0.0000       2.193845        59.6976 
  25   0.0000       2.193845        59.6976 
  26   0.0000       2.236555        60.8598 
  27   0.0000       2.236555        60.8598 
  28   0.0000       2.338016        63.6207 
  29   0.0000       2.338016        63.6207 
  30   0.0000       2.407821        65.5202 
  31   0.0000       2.407821        65.5202 
  32   0.0000       2.430381        66.1340 
  33   0.0000       2.544210        69.2315 
  34   0.0000       2.544210        69.2315 
  35   0.0000       2.608273        70.9747 
  36   0.0000       2.608273        70.9747 
  37   0.0000       2.738018        74.5053 
  38   0.0000       3.221633        87.6651 
  39   0.0000       3.584687        97.5443 
  40   0.0000       3.584687        97.5443 
  41   0.0000       3.954828       107.6163 
  42   0.0000       3.954828       107.6163 
  43   0.0000       4.327924       117.7688 
  44   0.0000       4.418021       120.2205 
  45   0.0000       4.418021       120.2205 
  46   0.0000       4.762630       129.5978 
  47   0.0000       6.292261       171.2211 

                 SPIN DOWN ORBITALS
  NO   OCC          E(Eh)            E(eV) 
   0   1.0000    -104.845505     -2852.9912 
   1   1.0000     -10.571716      -287.6710 
   2   1.0000      -8.038837      -218.7479 
   3   1.0000      -8.036620      -218.6876 
   4   1.0000      -8.036620      -218.6876 
   5   1.0000      -1.116803       -30.3898 
   6   1.0000      -0.625068       -17.0090 
   7   1.0000      -0.475578       -12.9411 
   8   1.0000      -0.475578       -12.9411 
   9   0.0000       0.125873         3.4252 
  10   0.0000       0.328954         8.9513 
  11   0.0000       0.490501        13.3472 
  12   0.0000       0.490501        13.3472 
  13   0.0000       0.497424        13.5356 
  14   0.0000       0.565977        15.4010 
  15   0.0000       0.565977        15.4010 
  16   0.0000       0.658179        17.9100 
  17   0.0000       0.658179        17.9100 
  18   0.0000       0.724768        19.7219 
  19   0.0000       0.950621        25.8677 
  20   0.0000       1.079071        29.3630 
  21   0.0000       1.079071        29.3630 
  22   0.0000       1.501936        40.8698 
  23   0.0000       2.151831        58.5543 
  24   0.0000       2.193845        59.6976 
  25   0.0000       2.193845        59.6976 
  26   0.0000       2.236555        60.8598 
  27   0.0000       2.236555        60.8598 
  28   0.0000       2.338016        63.6207 
  29   0.0000       2.338016        63.6207 
  30   0.0000       2.407821        65.5202 
  31   0.0000       2.407821        65.5202 
  32   0.0000       2.430381        66.1340 
  33   0.0000       2.544210        69.2315 
  34   0.0000       2.544210        69.2315 
  35   0.0000       2.608273        70.9747 
  36   0.0000       2.608273        70.9747 
  37   0.0000       2.738018        74.5053 
  38   0.0000       3.221633        87.6651 
  39   0.0000       3.584687        97.5443 
  40   0.0000       3.584687        97.5443 
  41   0.0000       3.954828       107.6163 
  42   0.0000       3.954828       107.6163 
  43   0.0000       4.327924       117.7688 
  44   0.0000       4.418021       120.2205 
  45   0.0000       4.418021       120.2205 
  46   0.0000       4.762630       129.5978 
  47   0.0000       6.292261       171.2211 
------------------
MOLECULAR ORBITALS
------------------
                      0         1         2         3         4         5   
                 -104.84551 -10.57172  -8.03884  -8.03662  -8.03662  -1.11680
                   1.00000   1.00000   1.00000   1.00000   1.00000   1.00000
                  --------  --------  --------  --------  --------  --------
  0Cl  1s         1.000068  0.000135 -0.000323  0.000000 -0.000000  0.000199
  0Cl  2s         0.000068 -0.939961 -0.005295  0.000000 -0.000000  0.005096
  0Cl  3s         0.000054  0.000308 -0.000417  0.000000 -0.000000 -0.593687
  0Cl  4s        -0.000425 -0.079685  0.001322 -0.000000  0.000000 -0.064612
  0Cl  5s        -0.000020 -0.002364 -0.001366 -0.000000  0.000000 -0.343661
  0Cl  1pz       -0.000110  0.003198 -0.970018  0.000000 -0.000000 -0.008874
  0Cl  1px        0.000000  0.000000 -0.000000 -0.184519  0.954738  0.000000
  0Cl  1py        0.000000  0.000000 -0.000000 -0.954738 -0.184519  0.000000
  0Cl  2pz       -0.000103 -0.000881  0.003123 -0.000000  0.000000  0.050560
  0Cl  2px        0.000000  0.000000  0.000000  0.000116 -0.000602  0.000000
  0Cl  2py        0.000000 -0.000000  0.000000  0.000602  0.000116 -0.000000
  0Cl  3pz        0.000057  0.001295 -0.060437  0.000000 -0.000000  0.025194
  0Cl  3px       -0.000000  0.000000 -0.000000 -0.010897  0.056382 -0.000000
  0Cl  3py       -0.000000  0.000000 -0.000000 -0.056382 -0.010897 -0.000000
  0Cl  4pz        0.000001  0.000189 -0.001384  0.000000 -0.000000  0.006060
  0Cl  4px       -0.000000  0.000000 -0.000000 -0.000302  0.001561 -0.000000
  0Cl  4py        0.000000  0.000000 -0.000000 -0.001561 -0.000302 -0.000000
  0Cl  1dz2       0.000006 -0.000641  0.000916 -0.000000  0.000000 -0.015715
  0Cl  1dxz       0.000000 -0.000000  0.000000  0.000100 -0.000518  0.000000
  0Cl  1dyz      -0.000000 -0.000000  0.000000  0.000518  0.000100  0.000000
  0Cl  1dx2y2    -0.000000 -0.000000  0.000000 -0.000000  0.000000  0.000000
  0Cl  1dxy       0.000000 -0.000000  0.000000  0.000000 -0.000000  0.000000
  0Cl  2dz2       0.000039  0.000610 -0.001277  0.000000  0.000000 -0.009673
  0Cl  2dxz       0.000000 -0.000000  0.000000 -0.000057  0.000294  0.000000
  0Cl  2dyz      -0.000000  0.000000 -0.000000 -0.000294 -0.000057  0.000000
  0Cl  2dx2y2     0.000000  0.000000  0.000000  0.000000 -0.000000 -0.000000
  0Cl  2dxy       0.000000  0.000000  0.000000 -0.000000  0.000000  0.000000
  0Cl  1f0       -0.000012  0.000040 -0.000130  0.000000 -0.000000  0.006546
  0Cl  1f+1      -0.000000  0.000000  0.000000 -0.000026  0.000134  0.000000
  0Cl  1f-1       0.000000  0.000000 -0.000000 -0.000134 -0.000026  0.000000
  0Cl  1f+2      -0.000000  0.000000 -0.000000  0.000000 -0.000000  0.000000
  0Cl  1f-2      -0.000000 -0.000000  0.000000 -0.000000  0.000000  0.000000
  0Cl  1f+3       0.000000  0.000000 -0.000000  0.000000  0.000000 -0.000000
  0Cl  1f-3       0.000000  0.000000 -0.000000 -0.000000  0.000000 -0.000000
  1H   1s        -0.000003 -0.000282  0.000397  0.000000  0.000000 -0.087129
  1H   2s        -0.000092 -0.000808  0.002518 -0.000000 -0.000000 -0.104360
  1H   3s         0.000009  0.000437 -0.000206  0.000000 -0.000000 -0.011615
  1H   1pz       -0.000008 -0.000017 -0.000260  0.000000  0.000000 -0.011471
  1H   1px       -0.000000 -0.000000  0.000000 -0.000007  0.000035  0.000000
  1H   1py        0.000000 -0.000000  0.000000 -0.000035 -0.000007 -0.000000
  1H   2pz       -0.000052 -0.000318  0.001449 -0.000000 -0.000000 -0.016411
  1H   2px        0.000000 -0.000000 -0.000000 -0.000022  0.000113  0.000000
  1H   2py       -0.000000 -0.000000 -0.000000 -0.000113 -0.000022  0.000000
  1H   1dz2      -0.000005  0.000188 -0.000404  0.000000 -0.000000 -0.003174
  1H   1dxz       0.000000 -0.000000 -0.000000  0.000012 -0.000064  0.000000
  1H   1dyz      -0.000000  0.000000 -0.000000  0.000064  0.000012 -0.000000
  1H   1dx2y2    -0.000000 -0.000000 -0.000000 -0.000000 -0.000000  0.000000
  1H   1dxy       0.000000 -0.000000  0.000000  0.000000  0.000000  0.000000
                      6         7         8         9        10        11   
                  -0.62507  -0.47558  -0.47558   0.12587   0.32895   0.49050
                   1.00000   1.00000   1.00000   0.00000   0.00000   0.00000
                  --------  --------  --------  --------  --------  --------
  0Cl  1s         0.001265  0.000000 -0.000000  0.014772 -0.007247  0.000000
  0Cl  2s         0.002066  0.000000 -0.000000  0.083233 -0.043605  0.000000
  0Cl  3s        -0.184055  0.000000  0.000000 -0.072212 -0.013186  0.000000
  0Cl  4s        -0.028624 -0.000000  0.000000 -0.015493 -0.004325 -0.000000
  0Cl  5s        -0.235395  0.000000 -0.000000 -1.269656  0.116356  0.000000
  0Cl  1pz        0.020881 -0.000000  0.000000  0.041106  0.034567  0.000000
  0Cl  1px        0.000000  0.000796 -0.002579 -0.000000 -0.000000 -0.350890
  0Cl  1py        0.000000  0.002579  0.000796 -0.000000 -0.000000  0.183315
  0Cl  2pz       -0.425499 -0.000000  0.000000  0.311206 -0.015572  0.000000
  0Cl  2px        0.000000 -0.165935  0.537298  0.000000 -0.000000 -1.051350
  0Cl  2py        0.000000 -0.537298 -0.165935 -0.000000 -0.000000  0.549255
  0Cl  3pz       -0.204093 -0.000000  0.000000  0.098132 -0.049535  0.000000
  0Cl  3px        0.000000 -0.075529  0.244563  0.000000  0.000000 -0.038294
  0Cl  3py       -0.000000 -0.244563 -0.075529 -0.000000  0.000000  0.020006
  0Cl  4pz       -0.177073 -0.000000  0.000000  0.943048 -0.697503 -0.000000
  0Cl  4px        0.000000 -0.105422  0.341357 -0.000000  0.000000  1.236302
  0Cl  4py       -0.000000 -0.341357 -0.105422  0.000000  0.000000 -0.645880
  0Cl  1dz2       0.041350 -0.000000 -0.000000  0.033845 -0.120508  0.000000
  0Cl  1dxz       0.000000  0.001646 -0.005331  0.000000 -0.000000  0.010673
  0Cl  1dyz       0.000000  0.005331  0.001646  0.000000 -0.000000 -0.005576
  0Cl  1dx2y2     0.000000 -0.000000 -0.000000 -0.000000 -0.000000  0.000000
  0Cl  1dxy       0.000000 -0.000000 -0.000000 -0.000000  0.000000  0.000000
  0Cl  2dz2       0.036833  0.000000 -0.000000 -0.080199 -0.167675  0.000000
  0Cl  2dxz      -0.000000  0.003300 -0.010686  0.000000  0.000000 -0.010539
  0Cl  2dyz       0.000000  0.010686  0.003300  0.000000 -0.000000  0.005506
  0Cl  2dx2y2    -0.000000 -0.000000  0.000000  0.000000  0.000000  0.000000
  0Cl  2dxy       0.000000  0.000000  0.000000 -0.000000  0.000000  0.000000
  0Cl  1f0       -0.011420 -0.000000  0.000000  0.019045 -0.008350 -0.000000
  0Cl  1f+1       0.000000 -0.001756  0.005686 -0.000000 -0.000000  0.000288
  0Cl  1f-1      -0.000000 -0.005686 -0.001756 -0.000000  0.000000 -0.000150
  0Cl  1f+2       0.000000 -0.000000 -0.000000  0.000000 -0.000000 -0.000000
  0Cl  1f-2       0.000000 -0.000000 -0.000000  0.000000  0.000000  0.000000
  0Cl  1f+3      -0.000000  0.000000 -0.000000 -0.000000 -0.000000  0.000000
  0Cl  1f-3       0.000000 -0.000000 -0.000000 -0.000000 -0.000000  0.000000
  1H   1s         0.153274  0.000000 -0.000000  0.067435 -0.112253  0.000000
  1H   2s         0.274969  0.000000  0.000000  0.274929 -1.197202 -0.000000
  1H   3s         0.070547 -0.000000 -0.000000  1.836003  0.863665 -0.000000
  1H   1pz        0.013393  0.000000 -0.000000 -0.018827 -0.023520  0.000000
  1H   1px       -0.000000 -0.001746  0.005653 -0.000000 -0.000000  0.004784
  1H   1py       -0.000000 -0.005653 -0.001746  0.000000 -0.000000 -0.002499
  1H   2pz        0.025135 -0.000000  0.000000  0.169036  0.047451 -0.000000
  1H   2px       -0.000000 -0.007342  0.023774  0.000000  0.000000 -0.044937
  1H   2py       -0.000000 -0.023774 -0.007342  0.000000  0.000000  0.023476
  1H   1dz2       0.004656 -0.000000  0.000000  0.013968 -0.000930 -0.000000
  1H   1dxz       0.000000 -0.001003  0.003248  0.000000  0.000000 -0.001473
  1H   1dyz      -0.000000 -0.003248 -0.001003  0.000000 -0.000000  0.000770
  1H   1dx2y2    -0.000000 -0.000000 -0.000000 -0.000000 -0.000000  0.000000
  1H   1dxy      -0.000000 -0.000000  0.000000  0.000000 -0.000000 -0.000000
                     12        13        14        15        16        17   
                   0.49050   0.49742   0.56598   0.56598   0.65818   0.65818
                   0.00000   0.00000   0.00000   0.00000   0.00000   0.00000
                  --------  --------  --------  --------  --------  --------
  0Cl  1s         0.000000  0.035269  0.000000 -0.000000 -0.000000 -0.000000
  0Cl  2s         0.000000  0.221761  0.000000 -0.000000 -0.000000 -0.000000
  0Cl  3s         0.000000  0.410693  0.000000 -0.000000 -0.000000 -0.000000
  0Cl  4s        -0.000000 -0.042461 -0.000000 -0.000000  0.000000  0.000000
  0Cl  5s         0.000000  0.522004  0.000000  0.000000 -0.000000 -0.000000
  0Cl  1pz        0.000000  0.211169 -0.000000 -0.000000  0.000000  0.000000
  0Cl  1px        0.183315  0.000000 -0.010579 -0.022704  0.000000  0.000000
  0Cl  1py        0.350890 -0.000000 -0.022704  0.010579  0.000000  0.000000
  0Cl  2pz        0.000000  0.830957 -0.000000 -0.000000  0.000000  0.000000
  0Cl  2px        0.549255  0.000000 -0.040739 -0.087431  0.000000  0.000000
  0Cl  2py        1.051350 -0.000000 -0.087431  0.040739  0.000000  0.000000
  0Cl  3pz        0.000000  0.111218  0.000000  0.000000 -0.000000 -0.000000
  0Cl  3px        0.020006  0.000000 -0.005982 -0.012839  0.000000 -0.000000
  0Cl  3py        0.038294 -0.000000 -0.012839  0.005982  0.000000  0.000000
  0Cl  4pz       -0.000000 -1.726792  0.000000 -0.000000  0.000000  0.000000
  0Cl  4px       -0.645880 -0.000000 -0.054002 -0.115895  0.000000 -0.000000
  0Cl  4py       -1.236302  0.000000 -0.115895  0.054002 -0.000000 -0.000000
  0Cl  1dz2       0.000000  0.007461  0.000000  0.000000 -0.000000 -0.000000
  0Cl  1dxz      -0.005576 -0.000000 -0.064959 -0.139410  0.000000  0.000000
  0Cl  1dyz      -0.010673  0.000000 -0.139410  0.064959  0.000000  0.000000
  0Cl  1dx2y2     0.000000  0.000000 -0.000000 -0.000000 -0.157242 -0.043478
  0Cl  1dxy      -0.000000 -0.000000 -0.000000  0.000000 -0.043478  0.157242
  0Cl  2dz2       0.000000  0.386510  0.000000  0.000000 -0.000000 -0.000000
  0Cl  2dxz       0.005506 -0.000000 -0.256970 -0.551485  0.000000  0.000000
  0Cl  2dyz       0.010539 -0.000000 -0.551485  0.256970  0.000000 -0.000000
  0Cl  2dx2y2     0.000000  0.000000 -0.000000 -0.000000 -0.860498 -0.237931
  0Cl  2dxy      -0.000000 -0.000000 -0.000000  0.000000 -0.237931  0.860498
  0Cl  1f0       -0.000000 -0.042022 -0.000000 -0.000000  0.000000  0.000000
  0Cl  1f+1      -0.000150 -0.000000 -0.002257 -0.004843 -0.000000 -0.000000
  0Cl  1f-1      -0.000288 -0.000000 -0.004843  0.002257  0.000000  0.000000
  0Cl  1f+2       0.000000 -0.000000  0.000000  0.000000  0.007537  0.002084
  0Cl  1f-2      -0.000000  0.000000  0.000000  0.000000  0.002084 -0.007537
  0Cl  1f+3      -0.000000 -0.000000  0.000000  0.000000  0.000000 -0.000000
  0Cl  1f-3       0.000000 -0.000000 -0.000000  0.000000 -0.000000 -0.000000
  1H   1s         0.000000  0.078624  0.000000  0.000000 -0.000000 -0.000000
  1H   2s        -0.000000 -0.290042 -0.000000 -0.000000  0.000000  0.000000
  1H   3s        -0.000000 -0.999362  0.000000 -0.000000  0.000000  0.000000
  1H   1pz        0.000000  0.018718  0.000000 -0.000000  0.000000  0.000000
  1H   1px       -0.002499 -0.000000 -0.014731 -0.031615  0.000000  0.000000
  1H   1py       -0.004784  0.000000 -0.031615  0.014731 -0.000000 -0.000000
  1H   2pz       -0.000000 -0.459754 -0.000000 -0.000000  0.000000  0.000000
  1H   2px        0.023476  0.000000  0.202497  0.434581 -0.000000 -0.000000
  1H   2py        0.044937 -0.000000  0.434581 -0.202497  0.000000  0.000000
  1H   1dz2      -0.000000 -0.015957 -0.000000 -0.000000  0.000000  0.000000
  1H   1dxz       0.000770  0.000000 -0.001451 -0.003114  0.000000  0.000000
  1H   1dyz       0.001473 -0.000000 -0.003114  0.001451  0.000000  0.000000
  1H   1dx2y2     0.000000 -0.000000 -0.000000  0.000000 -0.008185 -0.002263
  1H   1dxy       0.000000 -0.000000  0.000000 -0.000000 -0.002263  0.008185
                     18        19        20        21        22        23   
                   0.72477   0.95062   1.07907   1.07907   1.50194   2.15183
                   0.00000   0.00000   0.00000   0.00000   0.00000   0.00000
                  --------  --------  --------  --------  --------  --------
  0Cl  1s         0.144734 -0.074653 -0.000000 -0.000000  0.052999  0.013002
  0Cl  2s         0.944487 -0.487477 -0.000000 -0.000000  0.342607  0.099970
  0Cl  3s         1.705473 -0.805153 -0.000000 -0.000000  0.640859  0.201866
  0Cl  4s         0.194703 -0.109044  0.000000 -0.000000 -0.180213  0.027790
  0Cl  5s        -4.116008  1.838560 -0.000000  0.000000  3.736049  0.845183
  0Cl  1pz        0.431393 -0.106578  0.000000 -0.000000 -1.235931 -0.103369
  0Cl  1px       -0.000000  0.000000  0.046266  0.019392  0.000000 -0.000000
  0Cl  1py       -0.000000 -0.000000 -0.019392  0.046266 -0.000000 -0.000000
  0Cl  2pz        0.753201 -0.234532  0.000000 -0.000000 -2.880686 -0.416873
  0Cl  2px       -0.000000  0.000000  0.142444  0.059704  0.000000 -0.000000
  0Cl  2py       -0.000000 -0.000000 -0.059704  0.142444 -0.000000 -0.000000
  0Cl  3pz       -0.211482  0.039025 -0.000000  0.000000  0.046930 -0.265414
  0Cl  3px       -0.000000 -0.000000  0.009427  0.003951 -0.000000  0.000000
  0Cl  3py       -0.000000  0.000000 -0.003951  0.009427  0.000000  0.000000
  0Cl  4pz        1.348500 -1.091054  0.000000 -0.000000 -1.403018 -0.427826
  0Cl  4px        0.000000 -0.000000  0.367624  0.154085  0.000000  0.000000
  0Cl  4py        0.000000 -0.000000 -0.154085  0.367624  0.000000  0.000000
  0Cl  1dz2       0.049800  0.168927  0.000000  0.000000  0.002875  0.837232
  0Cl  1dxz      -0.000000  0.000000 -0.105925 -0.044397  0.000000 -0.000000
  0Cl  1dyz      -0.000000  0.000000  0.044397 -0.105925  0.000000 -0.000000
  0Cl  1dx2y2    -0.000000  0.000000 -0.000000 -0.000000  0.000000  0.000000
  0Cl  1dxy      -0.000000  0.000000  0.000000 -0.000000 -0.000000  0.000000
  0Cl  2dz2      -0.488479  1.205595 -0.000000  0.000000  2.036899 -0.246268
  0Cl  2dxz      -0.000000  0.000000 -0.833099 -0.349183 -0.000000  0.000000
  0Cl  2dyz      -0.000000  0.000000  0.349183 -0.833099  0.000000  0.000000
  0Cl  2dx2y2     0.000000 -0.000000  0.000000 -0.000000 -0.000000 -0.000000
  0Cl  2dxy       0.000000 -0.000000  0.000000 -0.000000  0.000000 -0.000000
  0Cl  1f0        0.145872 -0.058245  0.000000 -0.000000 -0.117927 -0.518720
  0Cl  1f+1      -0.000000  0.000000 -0.000604 -0.000253  0.000000  0.000000
  0Cl  1f-1      -0.000000  0.000000  0.000253 -0.000604 -0.000000  0.000000
  0Cl  1f+2       0.000000 -0.000000 -0.000000  0.000000 -0.000000  0.000000
  0Cl  1f-2      -0.000000  0.000000 -0.000000 -0.000000  0.000000  0.000000
  0Cl  1f+3      -0.000000 -0.000000 -0.000000 -0.000000  0.000000 -0.000000
  0Cl  1f-3       0.000000  0.000000 -0.000000  0.000000  0.000000 -0.000000
  1H   1s        -0.112695  0.050324 -0.000000 -0.000000 -0.152652  0.582381
  1H   2s         1.131430 -1.971999  0.000000 -0.000000 -3.935527 -1.566797
  1H   3s         1.930220 -0.082072  0.000000  0.000000 -1.364154 -0.067599
  1H   1pz        0.001983 -0.055945 -0.000000 -0.000000  0.107839  0.191817
  1H   1px        0.000000 -0.000000  0.092564  0.038797 -0.000000  0.000000
  1H   1py        0.000000 -0.000000 -0.038797  0.092564  0.000000  0.000000
  1H   2pz        1.204344  0.022501  0.000000 -0.000000 -3.289067 -0.975347
  1H   2px        0.000000  0.000000 -1.212642 -0.508263 -0.000000  0.000000
  1H   2py       -0.000000  0.000000  0.508263 -1.212642  0.000000  0.000000
  1H   1dz2       0.109346 -0.061494  0.000000 -0.000000 -0.155880  0.019069
  1H   1dxz       0.000000  0.000000 -0.019574 -0.008204 -0.000000  0.000000
  1H   1dyz       0.000000 -0.000000  0.008204 -0.019574 -0.000000  0.000000
  1H   1dx2y2     0.000000 -0.000000 -0.000000  0.000000 -0.000000 -0.000000
  1H   1dxy      -0.000000 -0.000000  0.000000 -0.000000 -0.000000 -0.000000
                     24        25        26        27        28        29   
                   2.19385   2.19385   2.23655   2.23655   2.33802   2.33802
                   0.00000   0.00000   0.00000   0.00000   0.00000   0.00000
                  --------  --------  --------  --------  --------  --------
  0Cl  1s         0.000000  0.000000 -0.000000 -0.000000  0.000000 -0.000000
  0Cl  2s         0.000000  0.000000 -0.000000 -0.000000  0.000000 -0.000000
  0Cl  3s         0.000000  0.000000 -0.000000 -0.000000  0.000000 -0.000000
  0Cl  4s         0.000000  0.000000  0.000000  0.000000 -0.000000  0.000000
  0Cl  5s         0.000000  0.000000 -0.000000 -0.000000  0.000000 -0.000000
  0Cl  1pz        0.000000 -0.000000  0.000000  0.000000  0.000000  0.000000
  0Cl  1px        0.027294  0.012678  0.000000 -0.000000  0.000000 -0.000000
  0Cl  1py       -0.012678  0.027294 -0.000000  0.000000  0.000000  0.000000
  0Cl  2pz        0.000000 -0.000000  0.000000  0.000000 -0.000000  0.000000
  0Cl  2px        0.070342  0.032673  0.000000 -0.000000  0.000000 -0.000000
  0Cl  2py       -0.032673  0.070342  0.000000  0.000000  0.000000  0.000000
  0Cl  3pz       -0.000000 -0.000000  0.000000  0.000000 -0.000000 -0.000000
  0Cl  3px       -0.005536 -0.002571 -0.000000  0.000000 -0.000000  0.000000
  0Cl  3py        0.002571 -0.005536  0.000000 -0.000000 -0.000000 -0.000000
  0Cl  4pz       -0.000000 -0.000000  0.000000  0.000000 -0.000000  0.000000
  0Cl  4px        0.011628  0.005401 -0.000000  0.000000 -0.000000  0.000000
  0Cl  4py       -0.005401  0.011628  0.000000 -0.000000 -0.000000 -0.000000
  0Cl  1dz2       0.000000  0.000000 -0.000000 -0.000000 -0.000000  0.000000
  0Cl  1dxz       0.990739  0.460187 -0.000000  0.000000  0.000000 -0.000000
  0Cl  1dyz      -0.460187  0.990739  0.000000  0.000000  0.000000 -0.000000
  0Cl  1dx2y2     0.000000 -0.000000  0.715464  1.006446 -0.018639 -0.029317
  0Cl  1dxy      -0.000000  0.000000 -1.006446  0.715464 -0.029317  0.018639
  0Cl  2dz2      -0.000000 -0.000000 -0.000000  0.000000  0.000000 -0.000000
  0Cl  2dxz      -0.813795 -0.377999  0.000000 -0.000000 -0.000000  0.000000
  0Cl  2dyz       0.377999 -0.813795 -0.000000 -0.000000 -0.000000  0.000000
  0Cl  2dx2y2    -0.000000  0.000000 -0.501182 -0.705015  0.032814  0.051613
  0Cl  2dxy       0.000000 -0.000000  0.705015 -0.501182  0.051613 -0.032814
  0Cl  1f0       -0.000000 -0.000000  0.000000  0.000000 -0.000000  0.000000
  0Cl  1f+1      -0.304255 -0.141323  0.000000 -0.000000  0.000000  0.000000
  0Cl  1f-1       0.141323 -0.304255 -0.000000 -0.000000  0.000000 -0.000000
  0Cl  1f+2       0.000000 -0.000000  0.008201  0.011537  0.504781  0.793977
  0Cl  1f-2      -0.000000 -0.000000 -0.011537  0.008201  0.793977 -0.504781
  0Cl  1f+3      -0.000000  0.000000  0.000000 -0.000000  0.000000 -0.000000
  0Cl  1f-3      -0.000000  0.000000 -0.000000 -0.000000  0.000000 -0.000000
  1H   1s         0.000000  0.000000 -0.000000 -0.000000  0.000000 -0.000000
  1H   2s        -0.000000 -0.000000  0.000000  0.000000 -0.000000  0.000000
  1H   3s        -0.000000  0.000000  0.000000  0.000000 -0.000000 -0.000000
  1H   1pz        0.000000  0.000000 -0.000000 -0.000000 -0.000000  0.000000
  1H   1px       -0.102105 -0.047427  0.000000  0.000000 -0.000000  0.000000
  1H   1py        0.047427 -0.102105 -0.000000 -0.000000  0.000000 -0.000000
  1H   2pz       -0.000000 -0.000000  0.000000  0.000000 -0.000000  0.000000
  1H   2px       -0.085846 -0.039874  0.000000 -0.000000 -0.000000  0.000000
  1H   2py        0.039874 -0.085846 -0.000000  0.000000 -0.000000  0.000000
  1H   1dz2       0.000000  0.000000 -0.000000 -0.000000 -0.000000  0.000000
  1H   1dxz      -0.143506 -0.066657  0.000000 -0.000000 -0.000000  0.000000
  1H   1dyz       0.066657 -0.143506 -0.000000 -0.000000 -0.000000 -0.000000
  1H   1dx2y2    -0.000000 -0.000000 -0.011909 -0.016752 -0.107710 -0.169418
  1H   1dxy       0.000000  0.000000  0.016752 -0.011909 -0.169418  0.107710
                     30        31        32        33        34        35   
                   2.40782   2.40782   2.43038   2.54421   2.54421   2.60827
                   0.00000   0.00000   0.00000   0.00000   0.00000   0.00000
                  --------  --------  --------  --------  --------  --------
  0Cl  1s        -0.000000 -0.000000 -0.018446 -0.000000 -0.000000 -0.000000
  0Cl  2s        -0.000000 -0.000000 -0.104809 -0.000000 -0.000000 -0.000000
  0Cl  3s        -0.000000 -0.000000 -0.152316 -0.000000 -0.000000  0.000000
  0Cl  4s         0.000000  0.000000  0.169970  0.000000  0.000000  0.000000
  0Cl  5s         0.000000 -0.000000 -1.999882 -0.000000 -0.000000  0.000000
  0Cl  1pz       -0.000000  0.000000  0.147609 -0.000000  0.000000 -0.000000
  0Cl  1px       -0.000000  0.000000 -0.000000  1.350436  0.267648  0.729426
  0Cl  1py       -0.000000  0.000000  0.000000 -0.267648  1.350436 -0.187549
  0Cl  2pz       -0.000000  0.000000  0.701603 -0.000000  0.000000 -0.000000
  0Cl  2px       -0.000000  0.000000 -0.000000  1.767788  0.350365  0.971758
  0Cl  2py       -0.000000  0.000000  0.000000 -0.350365  1.767788 -0.249857
  0Cl  3pz        0.000000  0.000000  0.443962  0.000000 -0.000000  0.000000
  0Cl  3px        0.000000 -0.000000  0.000000 -1.666523 -0.330295 -0.882982
  0Cl  3py        0.000000 -0.000000 -0.000000  0.330295 -1.666523  0.227031
  0Cl  4pz       -0.000000  0.000000  1.268712  0.000000 -0.000000  0.000000
  0Cl  4px        0.000000 -0.000000  0.000000 -0.691492 -0.137049 -0.130744
  0Cl  4py        0.000000 -0.000000 -0.000000  0.137049 -0.691492  0.033617
  0Cl  1dz2      -0.000000  0.000000  0.879001  0.000000 -0.000000  0.000000
  0Cl  1dxz      -0.000000  0.000000 -0.000000 -0.257960 -0.051126  0.536024
  0Cl  1dyz      -0.000000 -0.000000  0.000000  0.051126 -0.257960 -0.137822
  0Cl  1dx2y2     0.000000  0.000000  0.000000 -0.000000 -0.000000  0.000000
  0Cl  1dxy      -0.000000  0.000000  0.000000  0.000000  0.000000  0.000000
  0Cl  2dz2       0.000000 -0.000000 -1.704434 -0.000000 -0.000000  0.000000
  0Cl  2dxz       0.000000 -0.000000  0.000000  0.274900  0.054483 -0.649851
  0Cl  2dyz       0.000000  0.000000 -0.000000 -0.054483  0.274900  0.167089
  0Cl  2dx2y2    -0.000000 -0.000000 -0.000000  0.000000 -0.000000  0.000000
  0Cl  2dxy       0.000000 -0.000000 -0.000000 -0.000000  0.000000 -0.000000
  0Cl  1f0       -0.000000  0.000000  0.598505  0.000000  0.000000  0.000000
  0Cl  1f+1      -0.000000 -0.000000 -0.000000 -0.426077 -0.084446  0.783326
  0Cl  1f-1       0.000000 -0.000000 -0.000000  0.084446 -0.426077 -0.201408
  0Cl  1f+2       0.000000 -0.000000  0.000000  0.000000 -0.000000 -0.000000
  0Cl  1f-2      -0.000000 -0.000000  0.000000 -0.000000  0.000000  0.000000
  0Cl  1f+3      -0.058426  0.998292 -0.000000 -0.000000 -0.000000 -0.000000
  0Cl  1f-3       0.998292  0.058426 -0.000000 -0.000000  0.000000 -0.000000
  1H   1s         0.000000 -0.000000 -0.760114 -0.000000 -0.000000  0.000000
  1H   2s        -0.000000  0.000000  3.322145  0.000000  0.000000 -0.000000
  1H   3s        -0.000000  0.000000  0.196222  0.000000 -0.000000  0.000000
  1H   1pz       -0.000000  0.000000  0.138654  0.000000  0.000000 -0.000000
  1H   1px       -0.000000  0.000000  0.000000 -0.028669 -0.005682  0.145210
  1H   1py       -0.000000 -0.000000 -0.000000  0.005682 -0.028669 -0.037336
  1H   2pz       -0.000000  0.000000  1.107001  0.000000  0.000000 -0.000000
  1H   2px        0.000000 -0.000000  0.000000  0.205494  0.040728 -0.632322
  1H   2py        0.000000  0.000000  0.000000 -0.040728  0.205494  0.162582
  1H   1dz2      -0.000000  0.000000  0.094588  0.000000  0.000000 -0.000000
  1H   1dxz       0.000000 -0.000000  0.000000 -0.033790 -0.006697  0.076589
  1H   1dyz       0.000000 -0.000000  0.000000  0.006697 -0.033790 -0.019693
  1H   1dx2y2    -0.000000  0.000000 -0.000000 -0.000000  0.000000 -0.000000
  1H   1dxy       0.000000  0.000000 -0.000000  0.000000 -0.000000  0.000000
                     36        37        38        39        40        41   
                   2.60827   2.73802   3.22163   3.58469   3.58469   3.95483
                   0.00000   0.00000   0.00000   0.00000   0.00000   0.00000
                  --------  --------  --------  --------  --------  --------
  0Cl  1s        -0.000000 -0.004880 -0.074371 -0.000000  0.000000  0.000000
  0Cl  2s        -0.000000  0.043879 -0.348279 -0.000000  0.000000  0.000000
  0Cl  3s        -0.000000  0.344955 -0.081739 -0.000000  0.000000  0.000000
  0Cl  4s         0.000000  0.164210  0.333747 -0.000000 -0.000000 -0.000000
  0Cl  5s        -0.000000  2.093139  3.048621  0.000000  0.000000 -0.000000
  0Cl  1pz        0.000000 -2.171541 -2.005523 -0.000000 -0.000000  0.000000
  0Cl  1px        0.187549 -0.000000  0.000000  0.000000  0.000000  0.055847
  0Cl  1py        0.729426  0.000000  0.000000  0.000000 -0.000000 -0.019328
  0Cl  2pz        0.000000 -3.636746 -3.532851 -0.000000 -0.000000  0.000000
  0Cl  2px        0.249857 -0.000000  0.000000  0.000000  0.000000  0.065421
  0Cl  2py        0.971758  0.000000  0.000000  0.000000 -0.000000 -0.022641
  0Cl  3pz       -0.000000  1.689031  1.383502  0.000000  0.000000 -0.000000
  0Cl  3px       -0.227031  0.000000 -0.000000  0.000000 -0.000000 -0.096533
  0Cl  3py       -0.882982 -0.000000 -0.000000 -0.000000  0.000000  0.033408
  0Cl  4pz       -0.000000 -0.258206 -0.696708 -0.000000 -0.000000  0.000000
  0Cl  4px       -0.033617  0.000000 -0.000000  0.000000 -0.000000 -0.188153
  0Cl  4py       -0.130744 -0.000000 -0.000000  0.000000  0.000000  0.065116
  0Cl  1dz2       0.000000  0.006257 -0.191365 -0.000000  0.000000  0.000000
  0Cl  1dxz       0.137822 -0.000000 -0.000000  0.000000  0.000000 -0.059578
  0Cl  1dyz       0.536024  0.000000 -0.000000 -0.000000  0.000000  0.020619
  0Cl  1dx2y2     0.000000 -0.000000 -0.000000  0.063998  0.020436  0.000000
  0Cl  1dxy      -0.000000 -0.000000  0.000000  0.020436 -0.063998  0.000000
  0Cl  2dz2      -0.000000  1.239064  1.819838  0.000000  0.000000 -0.000000
  0Cl  2dxz      -0.167089  0.000000 -0.000000 -0.000000 -0.000000  0.156097
  0Cl  2dyz      -0.649851 -0.000000  0.000000 -0.000000  0.000000 -0.054022
  0Cl  2dx2y2    -0.000000  0.000000  0.000000 -0.174331 -0.055667 -0.000000
  0Cl  2dxy      -0.000000  0.000000 -0.000000 -0.055667  0.174331 -0.000000
  0Cl  1f0        0.000000  0.010359 -1.056688 -0.000000 -0.000000  0.000000
  0Cl  1f+1       0.201408 -0.000000  0.000000 -0.000000  0.000000  0.166249
  0Cl  1f-1       0.783326  0.000000 -0.000000 -0.000000 -0.000000 -0.057536
  0Cl  1f+2       0.000000  0.000000 -0.000000  0.376288  0.120156 -0.000000
  0Cl  1f-2      -0.000000 -0.000000  0.000000  0.120156 -0.376288 -0.000000
  0Cl  1f+3      -0.000000  0.000000 -0.000000 -0.000000  0.000000  0.000000
  0Cl  1f-3       0.000000 -0.000000 -0.000000  0.000000 -0.000000 -0.000000
  1H   1s        -0.000000  1.059483 -0.669033 -0.000000 -0.000000  0.000000
  1H   2s         0.000000 -4.068847 -2.973380 -0.000000 -0.000000  0.000000
  1H   3s         0.000000  0.063299 -0.882465 -0.000000 -0.000000  0.000000
  1H   1pz        0.000000 -0.135043  0.160390  0.000000  0.000000  0.000000
  1H   1px        0.037336 -0.000000 -0.000000  0.000000 -0.000000 -1.219539
  1H   1py        0.145210  0.000000  0.000000  0.000000 -0.000000  0.422060
  1H   2pz        0.000000 -1.850550 -2.254921 -0.000000 -0.000000  0.000000
  1H   2px       -0.162582  0.000000 -0.000000 -0.000000  0.000000  0.787007
  1H   2py       -0.632322 -0.000000 -0.000000 -0.000000  0.000000 -0.272369
  1H   1dz2       0.000000 -0.121694 -0.479364  0.000000 -0.000000  0.000000
  1H   1dxz       0.019693 -0.000000 -0.000000  0.000000  0.000000  0.089998
  1H   1dyz       0.076589  0.000000 -0.000000 -0.000000  0.000000 -0.031147
  1H   1dx2y2     0.000000 -0.000000 -0.000000  0.962614  0.307380 -0.000000
  1H   1dxy       0.000000 -0.000000  0.000000  0.307380 -0.962614  0.000000
                     42        43        44        45        46        47   
                   3.95483   4.32792   4.41802   4.41802   4.76263   6.29226
                   0.00000   0.00000   0.00000   0.00000   0.00000   0.00000
                  --------  --------  --------  --------  --------  --------
  0Cl  1s        -0.000000 -0.414374  0.000000  0.000000 -0.222882 -0.901471
  0Cl  2s        -0.000000 -2.193368  0.000000  0.000000 -1.048592 -4.933922
  0Cl  3s        -0.000000 -1.836526  0.000000  0.000000 -0.509804 -5.006243
  0Cl  4s         0.000000  1.824901 -0.000000 -0.000000  1.371939  3.760401
  0Cl  5s         0.000000  0.579647 -0.000000 -0.000000  1.448587 -1.599680
  0Cl  1pz       -0.000000  0.080985  0.000000  0.000000 -0.128236  2.289429
  0Cl  1px        0.019328  0.000000  0.253369  0.257540  0.000000 -0.000000
  0Cl  1py        0.055847 -0.000000  0.257540 -0.253369 -0.000000 -0.000000
  0Cl  2pz       -0.000000  0.025373  0.000000  0.000000 -0.640643  4.683274
  0Cl  2px        0.022641  0.000000  0.484509  0.492484  0.000000 -0.000000
  0Cl  2py        0.065421 -0.000000  0.492484 -0.484509 -0.000000 -0.000000
  0Cl  3pz        0.000000 -0.062284 -0.000000 -0.000000 -0.634182 -0.764153
  0Cl  3px       -0.033408 -0.000000 -0.177031 -0.179945 -0.000000  0.000000
  0Cl  3py       -0.096533  0.000000 -0.179945  0.177031  0.000000  0.000000
  0Cl  4pz       -0.000000 -0.014365  0.000000  0.000000 -0.439272  0.636944
  0Cl  4px       -0.065116  0.000000  0.017503  0.017792  0.000000  0.000000
  0Cl  4py       -0.188153  0.000000  0.017792 -0.017503  0.000000  0.000000
  0Cl  1dz2      -0.000000  0.242753 -0.000000 -0.000000  0.452642 -0.550547
  0Cl  1dxz      -0.020619 -0.000000 -0.095405 -0.096975 -0.000000 -0.000000
  0Cl  1dyz      -0.059578 -0.000000 -0.096975  0.095405 -0.000000  0.000000
  0Cl  1dx2y2     0.000000 -0.000000  0.000000  0.000000 -0.000000 -0.000000
  0Cl  1dxy      -0.000000  0.000000 -0.000000 -0.000000 -0.000000  0.000000
  0Cl  2dz2       0.000000  0.114581 -0.000000 -0.000000  0.133248 -2.112018
  0Cl  2dxz       0.054022 -0.000000 -0.449080 -0.456472 -0.000000  0.000000
  0Cl  2dyz       0.156097  0.000000 -0.456472  0.449080  0.000000 -0.000000
  0Cl  2dx2y2    -0.000000  0.000000 -0.000000 -0.000000  0.000000  0.000000
  0Cl  2dxy       0.000000  0.000000  0.000000  0.000000  0.000000  0.000000
  0Cl  1f0        0.000000 -0.453017  0.000000  0.000000  0.146290  0.981244
  0Cl  1f+1       0.057536  0.000000  0.557950  0.567134  0.000000 -0.000000
  0Cl  1f-1       0.166249 -0.000000  0.567134 -0.557950 -0.000000  0.000000
  0Cl  1f+2       0.000000  0.000000 -0.000000  0.000000  0.000000 -0.000000
  0Cl  1f-2       0.000000  0.000000 -0.000000 -0.000000 -0.000000  0.000000
  0Cl  1f+3       0.000000 -0.000000 -0.000000 -0.000000 -0.000000 -0.000000
  0Cl  1f-3       0.000000 -0.000000  0.000000 -0.000000 -0.000000 -0.000000
  1H   1s         0.000000 -0.309771  0.000000  0.000000  0.605833 -0.250048
  1H   2s        -0.000000  0.105735  0.000000  0.000000 -1.623555  5.651343
  1H   3s         0.000000  0.080440  0.000000  0.000000 -0.489816  0.046114
  1H   1pz        0.000000 -1.192380  0.000000  0.000000  0.515829  0.799996
  1H   1px       -0.422060 -0.000000 -0.012597 -0.012805  0.000000 -0.000000
  1H   1py       -1.219539 -0.000000 -0.012805  0.012597  0.000000  0.000000
  1H   2pz       -0.000000  0.823206 -0.000000  0.000000 -1.570296  3.241231
  1H   2px        0.272369 -0.000000 -0.532078 -0.540837 -0.000000  0.000000
  1H   2py        0.787007  0.000000 -0.540837  0.532078  0.000000 -0.000000
  1H   1dz2      -0.000000 -0.091331  0.000000  0.000000 -1.132313  1.291308
  1H   1dxz       0.031147 -0.000000 -0.904585 -0.919475 -0.000000  0.000000
  1H   1dyz       0.089998  0.000000 -0.919475  0.904585  0.000000 -0.000000
  1H   1dx2y2     0.000000  0.000000  0.000000  0.000000  0.000000 -0.000000
  1H   1dxy       0.000000 -0.000000 -0.000000 -0.000000  0.000000 -0.000000

                      0         1         2         3         4         5   
                 -104.84551 -10.57172  -8.03884  -8.03662  -8.03662  -1.11680
                   1.00000   1.00000   1.00000   1.00000   1.00000   1.00000
                  --------  --------  --------  --------  --------  --------
  0Cl  1s         1.000068  0.000135 -0.000323  0.000000 -0.000000  0.000199
  0Cl  2s         0.000068 -0.939961 -0.005295  0.000000 -0.000000  0.005096
  0Cl  3s         0.000054  0.000308 -0.000417  0.000000 -0.000000 -0.593687
  0Cl  4s        -0.000425 -0.079685  0.001322 -0.000000  0.000000 -0.064612
  0Cl  5s        -0.000020 -0.002364 -0.001366 -0.000000  0.000000 -0.343661
  0Cl  1pz       -0.000110  0.003198 -0.970018  0.000000 -0.000000 -0.008874
  0Cl  1px        0.000000  0.000000 -0.000000 -0.184519  0.954738  0.000000
  0Cl  1py        0.000000  0.000000 -0.000000 -0.954738 -0.184519  0.000000
  0Cl  2pz       -0.000103 -0.000881  0.003123 -0.000000  0.000000  0.050560
  0Cl  2px        0.000000  0.000000  0.000000  0.000116 -0.000602  0.000000
  0Cl  2py        0.000000 -0.000000  0.000000  0.000602  0.000116 -0.000000
  0Cl  3pz        0.000057  0.001295 -0.060437  0.000000 -0.000000  0.025194
  0Cl  3px       -0.000000  0.000000 -0.000000 -0.010897  0.056382 -0.000000
  0Cl  3py       -0.000000  0.000000 -0.000000 -0.056382 -0.010897 -0.000000
  0Cl  4pz        0.000001  0.000189 -0.001384  0.000000 -0.000000  0.006060
  0Cl  4px       -0.000000  0.000000 -0.000000 -0.000302  0.001561 -0.000000
  0Cl  4py        0.000000  0.000000 -0.000000 -0.001561 -0.000302 -0.000000
  0Cl  1dz2       0.000006 -0.000641  0.000916 -0.000000  0.000000 -0.015715
  0Cl  1dxz       0.000000 -0.000000  0.000000  0.000100 -0.000518  0.000000
  0Cl  1dyz      -0.000000 -0.000000  0.000000  0.000518  0.000100  0.000000
  0Cl  1dx2y2    -0.000000 -0.000000  0.000000 -0.000000  0.000000  0.000000
  0Cl  1dxy       0.000000 -0.000000  0.000000  0.000000 -0.000000  0.000000
  0Cl  2dz2       0.000039  0.000610 -0.001277  0.000000  0.000000 -0.009673
  0Cl  2dxz       0.000000 -0.000000  0.000000 -0.000057  0.000294  0.000000
  0Cl  2dyz      -0.000000  0.000000 -0.000000 -0.000294 -0.000057  0.000000
  0Cl  2dx2y2     0.000000  0.000000  0.000000  0.000000 -0.000000 -0.000000
  0Cl  2dxy       0.000000  0.000000  0.000000 -0.000000  0.000000  0.000000
  0Cl  1f0       -0.000012  0.000040 -0.000130  0.000000 -0.000000  0.006546
  0Cl  1f+1      -0.000000  0.000000  0.000000 -0.000026  0.000134  0.000000
  0Cl  1f-1       0.000000  0.000000 -0.000000 -0.000134 -0.000026  0.000000
  0Cl  1f+2      -0.000000  0.000000 -0.000000  0.000000 -0.000000  0.000000
  0Cl  1f-2      -0.000000 -0.000000  0.000000 -0.000000  0.000000  0.000000
  0Cl  1f+3       0.000000  0.000000 -0.000000  0.000000  0.000000 -0.000000
  0Cl  1f-3       0.000000  0.000000 -0.000000 -0.000000  0.000000 -0.000000
  1H   1s        -0.000003 -0.000282  0.000397  0.000000  0.000000 -0.087129
  1H   2s        -0.000092 -0.000808  0.002518 -0.000000 -0.000000 -0.104360
  1H   3s         0.000009  0.000437 -0.000206  0.000000 -0.000000 -0.011615
  1H   1pz       -0.000008 -0.000017 -0.000260  0.000000  0.000000 -0.011471
  1H   1px       -0.000000 -0.000000  0.000000 -0.000007  0.000035  0.000000
  1H   1py        0.000000 -0.000000  0.000000 -0.000035 -0.000007 -0.000000
  1H   2pz       -0.000052 -0.000318  0.001449 -0.000000 -0.000000 -0.016411
  1H   2px        0.000000 -0.000000 -0.000000 -0.000022  0.000113  0.000000
  1H   2py       -0.000000 -0.000000 -0.000000 -0.000113 -0.000022  0.000000
  1H   1dz2      -0.000005  0.000188 -0.000404  0.000000 -0.000000 -0.003174
  1H   1dxz       0.000000 -0.000000 -0.000000  0.000012 -0.000064  0.000000
  1H   1dyz      -0.000000  0.000000 -0.000000  0.000064  0.000012 -0.000000
  1H   1dx2y2    -0.000000 -0.000000 -0.000000 -0.000000 -0.000000  0.000000
  1H   1dxy       0.000000 -0.000000  0.000000  0.000000  0.000000  0.000000
                      6         7         8         9        10        11   
                  -0.62507  -0.47558  -0.47558   0.12587   0.32895   0.49050
                   1.00000   1.00000   1.00000   0.00000   0.00000   0.00000
                  --------  --------  --------  --------  --------  --------
  0Cl  1s         0.001265  0.000000 -0.000000  0.014772 -0.007247  0.000000
  0Cl  2s         0.002066  0.000000 -0.000000  0.083233 -0.043605  0.000000
  0Cl  3s        -0.184055  0.000000  0.000000 -0.072212 -0.013186  0.000000
  0Cl  4s        -0.028624 -0.000000  0.000000 -0.015493 -0.004325 -0.000000
  0Cl  5s        -0.235395  0.000000 -0.000000 -1.269656  0.116356  0.000000
  0Cl  1pz        0.020881 -0.000000  0.000000  0.041106  0.034567  0.000000
  0Cl  1px        0.000000  0.000796 -0.002579 -0.000000 -0.000000 -0.350890
  0Cl  1py        0.000000  0.002579  0.000796 -0.000000 -0.000000  0.183315
  0Cl  2pz       -0.425499 -0.000000  0.000000  0.311206 -0.015572  0.000000
  0Cl  2px        0.000000 -0.165935  0.537298  0.000000 -0.000000 -1.051350
  0Cl  2py        0.000000 -0.537298 -0.165935 -0.000000 -0.000000  0.549255
  0Cl  3pz       -0.204093 -0.000000  0.000000  0.098132 -0.049535  0.000000
  0Cl  3px        0.000000 -0.075529  0.244563  0.000000  0.000000 -0.038294
  0Cl  3py       -0.000000 -0.244563 -0.075529 -0.000000  0.000000  0.020006
  0Cl  4pz       -0.177073 -0.000000  0.000000  0.943048 -0.697503 -0.000000
  0Cl  4px        0.000000 -0.105422  0.341357 -0.000000  0.000000  1.236302
  0Cl  4py       -0.000000 -0.341357 -0.105422  0.000000  0.000000 -0.645880
  0Cl  1dz2       0.041350 -0.000000 -0.000000  0.033845 -0.120508  0.000000
  0Cl  1dxz       0.000000  0.001646 -0.005331  0.000000 -0.000000  0.010673
  0Cl  1dyz       0.000000  0.005331  0.001646  0.000000 -0.000000 -0.005576
  0Cl  1dx2y2     0.000000 -0.000000 -0.000000 -0.000000 -0.000000  0.000000
  0Cl  1dxy       0.000000 -0.000000 -0.000000 -0.000000  0.000000  0.000000
  0Cl  2dz2       0.036833  0.000000 -0.000000 -0.080199 -0.167675  0.000000
  0Cl  2dxz      -0.000000  0.003300 -0.010686  0.000000  0.000000 -0.010539
  0Cl  2dyz       0.000000  0.010686  0.003300  0.000000 -0.000000  0.005506
  0Cl  2dx2y2    -0.000000 -0.000000  0.000000  0.000000  0.000000  0.000000
  0Cl  2dxy       0.000000  0.000000  0.000000 -0.000000  0.000000  0.000000
  0Cl  1f0       -0.011420 -0.000000  0.000000  0.019045 -0.008350 -0.000000
  0Cl  1f+1       0.000000 -0.001756  0.005686 -0.000000 -0.000000  0.000288
  0Cl  1f-1      -0.000000 -0.005686 -0.001756 -0.000000  0.000000 -0.000150
  0Cl  1f+2       0.000000 -0.000000 -0.000000  0.000000 -0.000000 -0.000000
  0Cl  1f-2       0.000000 -0.000000 -0.000000  0.000000  0.000000  0.000000
  0Cl  1f+3      -0.000000  0.000000 -0.000000 -0.000000 -0.000000  0.000000
  0Cl  1f-3       0.000000 -0.000000 -0.000000 -0.000000 -0.000000  0.000000
  1H   1s         0.153274  0.000000 -0.000000  0.067435 -0.112253  0.000000
  1H   2s         0.274969  0.000000  0.000000  0.274929 -1.197202 -0.000000
  1H   3s         0.070547 -0.000000 -0.000000  1.836003  0.863665 -0.000000
  1H   1pz        0.013393  0.000000 -0.000000 -0.018827 -0.023520  0.000000
  1H   1px       -0.000000 -0.001746  0.005653 -0.000000 -0.000000  0.004784
  1H   1py       -0.000000 -0.005653 -0.001746  0.000000 -0.000000 -0.002499
  1H   2pz        0.025135 -0.000000  0.000000  0.169036  0.047451 -0.000000
  1H   2px       -0.000000 -0.007342  0.023774  0.000000  0.000000 -0.044937
  1H   2py       -0.000000 -0.023774 -0.007342  0.000000  0.000000  0.023476
  1H   1dz2       0.004656 -0.000000  0.000000  0.013968 -0.000930 -0.000000
  1H   1dxz       0.000000 -0.001003  0.003248  0.000000  0.000000 -0.001473
  1H   1dyz      -0.000000 -0.003248 -0.001003  0.000000 -0.000000  0.000770
  1H   1dx2y2    -0.000000 -0.000000 -0.000000 -0.000000 -0.000000  0.000000
  1H   1dxy      -0.000000 -0.000000  0.000000  0.000000 -0.000000 -0.000000
                     12        13        14        15        16        17   
                   0.49050   0.49742   0.56598   0.56598   0.65818   0.65818
                   0.00000   0.00000   0.00000   0.00000   0.00000   0.00000
                  --------  --------  --------  --------  --------  --------
  0Cl  1s         0.000000  0.035269  0.000000 -0.000000 -0.000000 -0.000000
  0Cl  2s         0.000000  0.221761  0.000000 -0.000000 -0.000000 -0.000000
  0Cl  3s         0.000000  0.410693  0.000000 -0.000000 -0.000000 -0.000000
  0Cl  4s        -0.000000 -0.042461 -0.000000 -0.000000  0.000000  0.000000
  0Cl  5s         0.000000  0.522004  0.000000  0.000000 -0.000000 -0.000000
  0Cl  1pz        0.000000  0.211169 -0.000000 -0.000000  0.000000  0.000000
  0Cl  1px        0.183315  0.000000 -0.010579 -0.022704  0.000000  0.000000
  0Cl  1py        0.350890 -0.000000 -0.022704  0.010579  0.000000  0.000000
  0Cl  2pz        0.000000  0.830957 -0.000000 -0.000000  0.000000  0.000000
  0Cl  2px        0.549255  0.000000 -0.040739 -0.087431  0.000000  0.000000
  0Cl  2py        1.051350 -0.000000 -0.087431  0.040739  0.000000  0.000000
  0Cl  3pz        0.000000  0.111218  0.000000  0.000000 -0.000000 -0.000000
  0Cl  3px        0.020006  0.000000 -0.005982 -0.012839  0.000000 -0.000000
  0Cl  3py        0.038294 -0.000000 -0.012839  0.005982  0.000000  0.000000
  0Cl  4pz       -0.000000 -1.726792  0.000000 -0.000000  0.000000  0.000000
  0Cl  4px       -0.645880 -0.000000 -0.054002 -0.115895  0.000000 -0.000000
  0Cl  4py       -1.236302  0.000000 -0.115895  0.054002 -0.000000 -0.000000
  0Cl  1dz2       0.000000  0.007461  0.000000  0.000000 -0.000000 -0.000000
  0Cl  1dxz      -0.005576 -0.000000 -0.064959 -0.139410  0.000000  0.000000
  0Cl  1dyz      -0.010673  0.000000 -0.139410  0.064959  0.000000  0.000000
  0Cl  1dx2y2     0.000000  0.000000 -0.000000 -0.000000 -0.157242 -0.043478
  0Cl  1dxy      -0.000000 -0.000000 -0.000000  0.000000 -0.043478  0.157242
  0Cl  2dz2       0.000000  0.386510  0.000000  0.000000 -0.000000 -0.000000
  0Cl  2dxz       0.005506 -0.000000 -0.256970 -0.551485  0.000000  0.000000
  0Cl  2dyz       0.010539 -0.000000 -0.551485  0.256970  0.000000 -0.000000
  0Cl  2dx2y2     0.000000  0.000000 -0.000000 -0.000000 -0.860498 -0.237931
  0Cl  2dxy      -0.000000 -0.000000 -0.000000  0.000000 -0.237931  0.860498
  0Cl  1f0       -0.000000 -0.042022 -0.000000 -0.000000  0.000000  0.000000
  0Cl  1f+1      -0.000150 -0.000000 -0.002257 -0.004843 -0.000000 -0.000000
  0Cl  1f-1      -0.000288 -0.000000 -0.004843  0.002257  0.000000  0.000000
  0Cl  1f+2       0.000000 -0.000000  0.000000  0.000000  0.007537  0.002084
  0Cl  1f-2      -0.000000  0.000000  0.000000  0.000000  0.002084 -0.007537
  0Cl  1f+3      -0.000000 -0.000000  0.000000  0.000000  0.000000 -0.000000
  0Cl  1f-3       0.000000 -0.000000 -0.000000  0.000000 -0.000000 -0.000000
  1H   1s         0.000000  0.078624  0.000000  0.000000 -0.000000 -0.000000
  1H   2s        -0.000000 -0.290042 -0.000000 -0.000000  0.000000  0.000000
  1H   3s        -0.000000 -0.999362  0.000000 -0.000000  0.000000  0.000000
  1H   1pz        0.000000  0.018718  0.000000 -0.000000  0.000000  0.000000
  1H   1px       -0.002499 -0.000000 -0.014731 -0.031615  0.000000  0.000000
  1H   1py       -0.004784  0.000000 -0.031615  0.014731 -0.000000 -0.000000
  1H   2pz       -0.000000 -0.459754 -0.000000 -0.000000  0.000000  0.000000
  1H   2px        0.023476  0.000000  0.202497  0.434581 -0.000000 -0.000000
  1H   2py        0.044937 -0.000000  0.434581 -0.202497  0.000000  0.000000
  1H   1dz2      -0.000000 -0.015957 -0.000000 -0.000000  0.000000  0.000000
  1H   1dxz       0.000770  0.000000 -0.001451 -0.003114  0.000000  0.000000
  1H   1dyz       0.001473 -0.000000 -0.003114  0.001451  0.000000  0.000000
  1H   1dx2y2     0.000000 -0.000000 -0.000000  0.000000 -0.008185 -0.002263
  1H   1dxy       0.000000 -0.000000  0.000000 -0.000000 -0.002263  0.008185
                     18        19        20        21        22        23   
                   0.72477   0.95062   1.07907   1.07907   1.50194   2.15183
                   0.00000   0.00000   0.00000   0.00000   0.00000   0.00000
                  --------  --------  --------  --------  --------  --------
  0Cl  1s         0.144734 -0.074653 -0.000000 -0.000000  0.052999  0.013002
  0Cl  2s         0.944487 -0.487477 -0.000000 -0.000000  0.342607  0.099970
  0Cl  3s         1.705473 -0.805153 -0.000000 -0.000000  0.640859  0.201866
  0Cl  4s         0.194703 -0.109044  0.000000 -0.000000 -0.180213  0.027790
  0Cl  5s        -4.116008  1.838560 -0.000000  0.000000  3.736049  0.845183
  0Cl  1pz        0.431393 -0.106578  0.000000 -0.000000 -1.235931 -0.103369
  0Cl  1px       -0.000000  0.000000  0.046266  0.019392  0.000000 -0.000000
  0Cl  1py       -0.000000 -0.000000 -0.019392  0.046266 -0.000000 -0.000000
  0Cl  2pz        0.753201 -0.234532  0.000000 -0.000000 -2.880686 -0.416873
  0Cl  2px       -0.000000  0.000000  0.142444  0.059704  0.000000 -0.000000
  0Cl  2py       -0.000000 -0.000000 -0.059704  0.142444 -0.000000 -0.000000
  0Cl  3pz       -0.211482  0.039025 -0.000000  0.000000  0.046930 -0.265414
  0Cl  3px       -0.000000 -0.000000  0.009427  0.003951 -0.000000  0.000000
  0Cl  3py       -0.000000  0.000000 -0.003951  0.009427  0.000000  0.000000
  0Cl  4pz        1.348500 -1.091054  0.000000 -0.000000 -1.403018 -0.427826
  0Cl  4px        0.000000 -0.000000  0.367624  0.154085  0.000000  0.000000
  0Cl  4py        0.000000 -0.000000 -0.154085  0.367624  0.000000  0.000000
  0Cl  1dz2       0.049800  0.168927  0.000000  0.000000  0.002875  0.837232
  0Cl  1dxz      -0.000000  0.000000 -0.105925 -0.044397  0.000000 -0.000000
  0Cl  1dyz      -0.000000  0.000000  0.044397 -0.105925  0.000000 -0.000000
  0Cl  1dx2y2    -0.000000  0.000000 -0.000000 -0.000000  0.000000  0.000000
  0Cl  1dxy      -0.000000  0.000000  0.000000 -0.000000 -0.000000  0.000000
  0Cl  2dz2      -0.488479  1.205595 -0.000000  0.000000  2.036899 -0.246268
  0Cl  2dxz      -0.000000  0.000000 -0.833099 -0.349183 -0.000000  0.000000
  0Cl  2dyz      -0.000000  0.000000  0.349183 -0.833099  0.000000  0.000000
  0Cl  2dx2y2     0.000000 -0.000000  0.000000 -0.000000 -0.000000 -0.000000
  0Cl  2dxy       0.000000 -0.000000  0.000000 -0.000000  0.000000 -0.000000
  0Cl  1f0        0.145872 -0.058245  0.000000 -0.000000 -0.117927 -0.518720
  0Cl  1f+1      -0.000000  0.000000 -0.000604 -0.000253  0.000000  0.000000
  0Cl  1f-1      -0.000000  0.000000  0.000253 -0.000604 -0.000000  0.000000
  0Cl  1f+2       0.000000 -0.000000 -0.000000  0.000000 -0.000000  0.000000
  0Cl  1f-2      -0.000000  0.000000 -0.000000 -0.000000  0.000000  0.000000
  0Cl  1f+3      -0.000000 -0.000000 -0.000000 -0.000000  0.000000 -0.000000
  0Cl  1f-3       0.000000  0.000000 -0.000000  0.000000  0.000000 -0.000000
  1H   1s        -0.112695  0.050324 -0.000000 -0.000000 -0.152652  0.582381
  1H   2s         1.131430 -1.971999  0.000000 -0.000000 -3.935527 -1.566797
  1H   3s         1.930220 -0.082072  0.000000  0.000000 -1.364154 -0.067599
  1H   1pz        0.001983 -0.055945 -0.000000 -0.000000  0.107839  0.191817
  1H   1px        0.000000 -0.000000  0.092564  0.038797 -0.000000  0.000000
  1H   1py        0.000000 -0.000000 -0.038797  0.092564  0.000000  0.000000
  1H   2pz        1.204344  0.022501  0.000000 -0.000000 -3.289067 -0.975347
  1H   2px        0.000000  0.000000 -1.212642 -0.508263 -0.000000  0.000000
  1H   2py       -0.000000  0.000000  0.508263 -1.212642  0.000000  0.000000
  1H   1dz2       0.109346 -0.061494  0.000000 -0.000000 -0.155880  0.019069
  1H   1dxz       0.000000  0.000000 -0.019574 -0.008204 -0.000000  0.000000
  1H   1dyz       0.000000 -0.000000  0.008204 -0.019574 -0.000000  0.000000
  1H   1dx2y2     0.000000 -0.000000 -0.000000  0.000000 -0.000000 -0.000000
  1H   1dxy      -0.000000 -0.000000  0.000000 -0.000000 -0.000000 -0.000000
                     24        25        26        27        28        29   
                   2.19385   2.19385   2.23655   2.23655   2.33802   2.33802
                   0.00000   0.00000   0.00000   0.00000   0.00000   0.00000
                  --------  --------  --------  --------  --------  --------
  0Cl  1s         0.000000  0.000000 -0.000000 -0.000000  0.000000 -0.000000
  0Cl  2s         0.000000  0.000000 -0.000000 -0.000000  0.000000 -0.000000
  0Cl  3s         0.000000  0.000000 -0.000000 -0.000000  0.000000 -0.000000
  0Cl  4s         0.000000  0.000000  0.000000  0.000000 -0.000000  0.000000
  0Cl  5s         0.000000  0.000000 -0.000000 -0.000000  0.000000 -0.000000
  0Cl  1pz        0.000000 -0.000000  0.000000  0.000000  0.000000  0.000000
  0Cl  1px        0.027294  0.012678  0.000000 -0.000000  0.000000 -0.000000
  0Cl  1py       -0.012678  0.027294 -0.000000  0.000000  0.000000  0.000000
  0Cl  2pz        0.000000 -0.000000  0.000000  0.000000 -0.000000  0.000000
  0Cl  2px        0.070342  0.032673  0.000000 -0.000000  0.000000 -0.000000
  0Cl  2py       -0.032673  0.070342  0.000000  0.000000  0.000000  0.000000
  0Cl  3pz       -0.000000 -0.000000  0.000000  0.000000 -0.000000 -0.000000
  0Cl  3px       -0.005536 -0.002571 -0.000000  0.000000 -0.000000  0.000000
  0Cl  3py        0.002571 -0.005536  0.000000 -0.000000 -0.000000 -0.000000
  0Cl  4pz       -0.000000 -0.000000  0.000000  0.000000 -0.000000  0.000000
  0Cl  4px        0.011628  0.005401 -0.000000  0.000000 -0.000000  0.000000
  0Cl  4py       -0.005401  0.011628  0.000000 -0.000000 -0.000000 -0.000000
  0Cl  1dz2       0.000000  0.000000 -0.000000 -0.000000 -0.000000  0.000000
  0Cl  1dxz       0.990739  0.460187 -0.000000  0.000000  0.000000 -0.000000
  0Cl  1dyz      -0.460187  0.990739  0.000000  0.000000  0.000000 -0.000000
  0Cl  1dx2y2     0.000000 -0.000000  0.715464  1.006446 -0.018639 -0.029317
  0Cl  1dxy      -0.000000  0.000000 -1.006446  0.715464 -0.029317  0.018639
  0Cl  2dz2      -0.000000 -0.000000 -0.000000  0.000000  0.000000 -0.000000
  0Cl  2dxz      -0.813795 -0.377999  0.000000 -0.000000 -0.000000  0.000000
  0Cl  2dyz       0.377999 -0.813795 -0.000000 -0.000000 -0.000000  0.000000
  0Cl  2dx2y2    -0.000000  0.000000 -0.501182 -0.705015  0.032814  0.051613
  0Cl  2dxy       0.000000 -0.000000  0.705015 -0.501182  0.051613 -0.032814
  0Cl  1f0       -0.000000 -0.000000  0.000000  0.000000 -0.000000  0.000000
[...]
                                         0.0000  0.0000  0.0000  0.0000
  35. (0.00009) RY (25)Cl  1            s(  6.23%)p 0.27(  1.69%)d13.47( 83.90%)
                                                  f 1.31(  8.18%)
  36. (0.00245) RY ( 1) H  2            s(  0.00%)p 1.00( 97.42%)d 0.03(  2.58%)
                                         0.0000  0.0000  0.0000  0.9840 -0.0772
                                         0.0000  0.0000  0.0000  0.0000  0.0000
                                         0.1607  0.0000  0.0000  0.0000
  37. (0.00245) RY ( 2) H  2            s(  0.00%)p 1.00( 97.42%)d 0.03(  2.58%)
                                         0.0000  0.0000  0.0000  0.0000  0.0000
                                         0.9840 -0.0772  0.0000  0.0000  0.0000
                                         0.0000  0.1607  0.0000  0.0000
  38. (0.00101) RY ( 3) H  2            s( 68.92%)p 0.40( 27.36%)d 0.05(  3.72%)
                                         0.0318  0.8288 -0.0361  0.0000  0.0000
                                         0.0000  0.0000 -0.5015 -0.1486  0.0000
                                         0.0000  0.0000  0.0000 -0.1929
  39. (0.00041) RY ( 4) H  2            s( 29.59%)p 2.37( 70.03%)d 0.01(  0.38%)
                                        -0.0427  0.5082  0.1891  0.0000  0.0000
                                         0.0000  0.0000  0.8304 -0.1033  0.0000
                                         0.0000  0.0000  0.0000  0.0618
  40. (0.00012) RY ( 5) H  2            s( 95.17%)p 0.03(  2.51%)d 0.02(  2.32%)
                                         0.0112 -0.0931  0.9710  0.0000  0.0000
                                         0.0000  0.0000 -0.1559 -0.0292  0.0000
                                         0.0000  0.0000  0.0000 -0.1522
  41. (0.00007) RY ( 6) H  2            s(  0.00%)p 1.00( 41.55%)d 1.41( 58.45%)
  42. (0.00007) RY ( 7) H  2            s(  0.00%)p 1.00( 41.55%)d 1.41( 58.45%)
  43. (0.00006) RY ( 8) H  2            s(  6.09%)p 8.33( 50.69%)d 7.10( 43.22%)
  44. (0.00006) RY ( 9) H  2            s(  0.00%)p 0.00(  0.00%)d 1.00(100.00%)
  45. (0.00006) RY (10) H  2            s(  0.00%)p 0.00(  0.00%)d 1.00(100.00%)
  46. (0.00003) RY (11) H  2            s(  0.00%)p 1.00( 61.03%)d 0.64( 38.97%)
  47. (0.00003) RY (12) H  2            s(  0.00%)p 1.00( 61.03%)d 0.64( 38.97%)
  48. (0.00002) RY (13) H  2            s(  0.56%)p86.94( 49.10%)d89.11( 50.33%)


 NHO DIRECTIONALITY AND BOND BENDING (deviation from line of nuclear centers at
                                      the position of maximum hybrid amplitude)

         [Thresholds for printing:  angular deviation  >  1.0 degree]
                                    p- or d-character  > 25.0%
                                    orbital occupancy  >  0.10e

                        Line of Centers        Hybrid 1             Hybrid 2
                        ---------------  -------------------  ------------------
           NBO            Theta   Phi    Theta   Phi    Dev   Theta   Phi    Dev
 ===============================================================================
   7. LP ( 2)Cl  1          --     --     94.0  180.0   --      --     --    --
   8. LP ( 3)Cl  1          --     --     94.0   90.0   --      --     --    --


 NATURAL BOND ORBITALS (Summary):

           NBO                 Occupancy
 ========================================
 Molecular unit  1  (HCl)
 ------ Lewis ---------------------------
    1. CR ( 1)Cl  1             1.00000
    2. CR ( 2)Cl  1             0.99977
    3. CR ( 3)Cl  1             0.99963
    4. CR ( 4)Cl  1             0.99963
    5. CR ( 5)Cl  1             0.99958
    6. LP ( 1)Cl  1             0.98785
    7. LP ( 2)Cl  1             0.97831
    8. LP ( 3)Cl  1             0.97831
    9. BD ( 1)Cl  1- H  2       0.98265
 ------ non-Lewis -----------------------
   10. BD*( 1)Cl  1- H  2       0.01079
   11. RY ( 1)Cl  1             0.00830
   12. RY ( 2)Cl  1             0.00830
   13. RY ( 3)Cl  1             0.00759
   14. RY ( 4)Cl  1             0.00759
   15. RY ( 5)Cl  1             0.00582
   16. RY ( 6)Cl  1             0.00448
   17. RY ( 7)Cl  1             0.00448
   18. RY ( 8)Cl  1             0.00312
   19. RY ( 9)Cl  1             0.00106
   20. RY (10)Cl  1             0.00054
   21. RY (11)Cl  1             0.00054
   22. RY (12)Cl  1             0.00053
   23. RY (13)Cl  1             0.00053
   24. RY (14)Cl  1             0.00047
   25. RY (15)Cl  1             0.00047
   26. RY (16)Cl  1             0.00046
   27. RY (17)Cl  1             0.00035
   28. RY (18)Cl  1             0.00035
   29. RY (19)Cl  1             0.00032
   30. RY (20)Cl  1             0.00032
   31. RY (21)Cl  1             0.00027
   32. RY (22)Cl  1             0.00023
   33. RY (23)Cl  1             0.00023
   34. RY (24)Cl  1             0.00020
   35. RY (25)Cl  1             0.00009
   36. RY ( 1) H  2             0.00245
   37. RY ( 2) H  2             0.00245
   38. RY ( 3) H  2             0.00101
   39. RY ( 4) H  2             0.00041
   40. RY ( 5) H  2             0.00012
   41. RY ( 6) H  2             0.00007
   42. RY ( 7) H  2             0.00007
   43. RY ( 8) H  2             0.00006
   44. RY ( 9) H  2             0.00006
   45. RY (10) H  2             0.00006
   46. RY (11) H  2             0.00003
   47. RY (12) H  2             0.00003
   48. RY (13) H  2             0.00002
          -------------------------------
                 Total Lewis    8.92574  ( 99.1749%)
           Valence non-Lewis    0.01079  (  0.1199%)
           Rydberg non-Lewis    0.06348  (  0.7053%)
          -------------------------------
               Total unit  1    9.00000  (100.0000%)
              Charge unit  1    0.00000

 $CHOOSE
  ALPHA
   LONE 1 3 END
   BOND S 1 2 END
  END
  BETA
   LONE 1 3 END
   BOND S 1 2 END
  END
 $END

 NBO analysis completed in 0.10 CPU seconds (0 wall seconds)
 Maximum scratch memory used by NBO was 453070 words (3.46 MB)
Stopping NBO...Storing NBOs: HCl.pmp2re.nbo

                                *** returned from   NBO  program ***


----------------------------------
MP2 DERIVATIVE INTEGRAL GENERATION
----------------------------------


Input Wavefunction Amplitudes       ... HCl.mp2tbb.tmp
Input Correlated Electron Density   ... HCl.pmp2re
Input Energy Weighted Density       ... HCl.wmp2.tmp
Input SCF Electron Density          ... HCl.scfp

One-Electron Terms    ...
                        ... One-Electron Terms done
Prescreening matrices              ... done

Batch handling in the gradient evaluation:
Memory available                      ... 3000.0 MB
Memory per occupied orbital in Q2     ...    0.3 MB
Memory per occupied orbital in Q3     ...    0.0 MB
Total memory requirement per |i>      ...    0.3 MB
Max. Number of orbitals possible      ...   8972
Number of orbitals treated per batch  ...     18
Number of batches to be done          ...      1
Batch   0: i=    0 ...    17

---------------------------------------
MP2 TOTAL ENERGY:     -460.343095320 Eh
---------------------------------------

-----------------------------------
NORM OF THE MP2 GRADIENT:  0.000000
-----------------------------------

-------------------------   --------------------
FINAL SINGLE POINT ENERGY      -460.343095319885
-------------------------   --------------------

                                *** OPTIMIZATION RUN DONE ***

                            ***************************************
                            *     ORCA property calculations      *
                            ***************************************

                                    ---------------------
                                    Active property flags
                                    ---------------------
   (+) Dipole Moment


------------------------------------------------------------------------------
                       ORCA ELECTRIC PROPERTIES CALCULATION
------------------------------------------------------------------------------

Dipole Moment Calculation                       ... on
Quadrupole Moment Calculation                   ... off
Polarizability Calculation                      ... off
GBWName                                         ... HCl.gbw
Electron density file                           ... HCl.scfp
The origin for moment calculation is the CENTER OF MASS  = ( 0.000000,  0.000000 -0.001146)

-------------
DIPOLE MOMENT
-------------
                                X             Y             Z
Electronic contribution:      0.00000       0.00000       0.70922
Nuclear contribution   :      0.00000       0.00000      -1.20688
                        -----------------------------------------
Total Dipole Moment    :      0.00000       0.00000      -0.49765
                        -----------------------------------------
Magnitude (a.u.)       :      0.49765
Magnitude (Debye)      :      1.26493



--------------------
Rotational spectrum 
--------------------
 
Rotational constants in cm-1:     0.000000    10.642314    10.642314 
Rotational constants in MHz :     0.000000 319048.546500 319048.546500 

 Dipole components along the rotational axes: 
x,y,z [a.u.] :    -0.497652     0.000000     0.000000 
x,y,z [Debye]:    -1.264931     0.000000     0.000000 

 

                         *** MP2 UNRELAXED DENSITY ***

------------------------------------------------------------------------------
                       ORCA ELECTRIC PROPERTIES CALCULATION
------------------------------------------------------------------------------

Dipole Moment Calculation                       ... on
Quadrupole Moment Calculation                   ... off
Polarizability Calculation                      ... off
GBWName                                         ... HCl.gbw
Electron density file                           ... HCl.pmp2ur
The origin for moment calculation is the CENTER OF MASS  = ( 0.000000,  0.000000 -0.001146)

-------------
DIPOLE MOMENT
-------------
                                X             Y             Z
Electronic contribution:      0.00000       0.00000       0.71423
Nuclear contribution   :      0.00000       0.00000      -1.20688
                        -----------------------------------------
Total Dipole Moment    :      0.00000       0.00000      -0.49265
                        -----------------------------------------
Magnitude (a.u.)       :      0.49265
Magnitude (Debye)      :      1.25222



--------------------
Rotational spectrum 
--------------------
 
Rotational constants in cm-1:     0.000000    10.642314    10.642314 
Rotational constants in MHz :     0.000000 319048.546500 319048.546500 

 Dipole components along the rotational axes: 
x,y,z [a.u.] :    -0.492650     0.000000     0.000000 
x,y,z [Debye]:    -1.252218     0.000000     0.000000 

 

                           *** MP2 RELAXED DENSITY ***

------------------------------------------------------------------------------
                       ORCA ELECTRIC PROPERTIES CALCULATION
------------------------------------------------------------------------------

Dipole Moment Calculation                       ... on
Quadrupole Moment Calculation                   ... off
Polarizability Calculation                      ... off
GBWName                                         ... HCl.gbw
Electron density file                           ... HCl.pmp2re
The origin for moment calculation is the CENTER OF MASS  = ( 0.000000,  0.000000 -0.001146)

-------------
DIPOLE MOMENT
-------------
                                X             Y             Z
Electronic contribution:      0.00000       0.00000       0.73248
Nuclear contribution   :      0.00000       0.00000      -1.20688
                        -----------------------------------------
Total Dipole Moment    :      0.00000       0.00000      -0.47439
                        -----------------------------------------
Magnitude (a.u.)       :      0.47439
Magnitude (Debye)      :      1.20581



--------------------
Rotational spectrum 
--------------------
 
Rotational constants in cm-1:     0.000000    10.642314    10.642314 
Rotational constants in MHz :     0.000000 319048.546500 319048.546500 

 Dipole components along the rotational axes: 
x,y,z [a.u.] :    -0.474394     0.000000     0.000000 
x,y,z [Debye]:    -1.205814     0.000000     0.000000 

 
------------------------------------------------------------------------------
                         ORCA MP2 H E S S I A N CALCULATION
------------------------------------------------------------------------------

Calculating analytic MP2 second derivatives ... (>HCl.last_mp2) done
Warning: T+R mode no 5 is zero 

-----------------------
VIBRATIONAL FREQUENCIES
-----------------------

Scaling factor for frequencies =  1.000000000  (already applied!)

   0:         0.00 cm**-1
   1:         0.00 cm**-1
   2:         0.00 cm**-1
   3:         0.00 cm**-1
   4:         0.00 cm**-1
   5:      3053.64 cm**-1


------------
NORMAL MODES
------------

These modes are the Cartesian displacements weighted by the diagonal matrix
M(i,i)=1/sqrt(m[i]) where m[i] is the mass of the displaced atom
Thus, these vectors are normalized but *not* orthogonal

                  0          1          2          3          4          5    
      0       0.000000   0.000000   0.000000   0.000000   0.000000   0.000000
      1       0.000000   0.000000   0.000000   0.000000   0.000000   0.000000
      2       0.000000   0.000000   0.000000   0.000000   0.000000   0.028421
      3       0.000000   0.000000   0.000000   0.000000   0.000000   0.000000
      4       0.000000   0.000000   0.000000   0.000000   0.000000   0.000000
      5       0.000000   0.000000   0.000000   0.000000   0.000000  -0.999596


-----------
IR SPECTRUM
-----------

 Mode    freq (cm**-1)   T**2         TX         TY         TZ
-------------------------------------------------------------------
   5:      3053.64   46.470361  (  0.000000  -0.000000  -6.816917)

The first frequency considered to be a vibration is 5
The total number of vibrations considered is 1


--------------------------
THERMOCHEMISTRY AT 298.15K
--------------------------

Temperature         ... 298.15 K
Pressure            ... 1.00 atm
Total Mass          ... 36.46 AMU
The molecule is recognized as being linear

Throughout the following assumptions are being made:
  (1) The electronic state is orbitally nondegenerate
  (2) There are no thermally accessible electronically excited states
  (3) Hindered rotations indicated by low frequency modes are not
      treated as such but are treated as vibrations and this may
      cause some error
  (4) All equations used are the standard statistical mechanics
      equations for an ideal gas
  (5) All vibrations are strictly harmonic

freq.    3053.64  E(vib)   ...       0.00 

------------
INNER ENERGY
------------

The inner energy is: U= E(el) + E(ZPE) + E(vib) + E(rot) + E(trans)
    E(el)   - is the total energy from the electronic structure calculation
              = E(kin-el) + E(nuc-el) + E(el-el) + E(nuc-nuc)
    E(ZPE)  - the the zero temperature vibrational energy from the frequency calculation
    E(vib)  - the the finite temperature correction to E(ZPE) due to population
              of excited vibrational states
    E(rot)  - is the rotational thermal energy
    E(trans)- is the translational thermal energy

Summary of contributions to the inner energy U:
Electronic energy                ...   -460.34309532 Eh
Zero point energy                ...      0.00695671 Eh       4.37 kcal/mol
Thermal vibrational correction   ...      0.00000001 Eh       0.00 kcal/mol
Thermal rotational correction    ...      0.00094418 Eh       0.59 kcal/mol
Thermal translational correction ...      0.00141627 Eh       0.89 kcal/mol
-----------------------------------------------------------------------
Total thermal energy                   -460.33377815 Eh


Summary of corrections to the electronic energy:
(perhaps to be used in another calculation)
Total thermal correction                  0.00236046 Eh       1.48 kcal/mol
Non-thermal (ZPE) correction              0.00695671 Eh       4.37 kcal/mol
-----------------------------------------------------------------------
Total correction                          0.00931717 Eh       5.85 kcal/mol


--------
ENTHALPY
--------

The enthalpy is H = U + kB*T
                kB is Boltzmann's constant
Total free energy                 ...   -460.33377815 Eh 
Thermal Enthalpy correction       ...      0.00094421 Eh       0.59 kcal/mol
-----------------------------------------------------------------------
Total Enthalpy                    ...   -460.33283394 Eh


Note: Rotational entropy computed according to Herzberg 
Infrared and Raman Spectra, Chapter V,1, Van Nostrand Reinhold, 1945 
Point Group:  Cinfv, Symmetry Number:   1  
Rotational constants in cm-1:     0.000000    10.642314    10.642314 

Vibrational entropy computed according to the QRRHO of S. Grimme
Chem.Eur.J. 2012 18 9955


-------
ENTROPY
-------

The entropy contributions are T*S = T*(S(el)+S(vib)+S(rot)+S(trans))
     S(el)   - electronic entropy
     S(vib)  - vibrational entropy
     S(rot)  - rotational entropy
     S(trans)- translational entropy
The entropies will be listed as mutliplied by the temperature to get
units of energy

Electronic entropy                ...      0.00000000 Eh      0.00 kcal/mol
Vibrational entropy               ...      0.00000001 Eh      0.00 kcal/mol
Rotational entropy                ...      0.00374743 Eh      2.35 kcal/mol
Translational entropy             ...      0.01744233 Eh     10.95 kcal/mol
-----------------------------------------------------------------------
Final entropy term                ...      0.02118976 Eh     13.30 kcal/mol

In case the symmetry of your molecule has not been determined correctly
or in case you have a reason to use a different symmetry number we print 
out the resulting rotational entropy values for sn=1,12 :
 --------------------------------------------------------
|  sn= 1 | S(rot)=             -inf Eh      -inf kcal/mol|
|  sn= 2 | S(rot)=             -inf Eh      -inf kcal/mol|
|  sn= 3 | S(rot)=             -inf Eh      -inf kcal/mol|
|  sn= 4 | S(rot)=             -inf Eh      -inf kcal/mol|
|  sn= 5 | S(rot)=             -inf Eh      -inf kcal/mol|
|  sn= 6 | S(rot)=             -inf Eh      -inf kcal/mol|
|  sn= 7 | S(rot)=             -inf Eh      -inf kcal/mol|
|  sn= 8 | S(rot)=             -inf Eh      -inf kcal/mol|
|  sn= 9 | S(rot)=             -inf Eh      -inf kcal/mol|
|  sn=10 | S(rot)=             -inf Eh      -inf kcal/mol|
|  sn=11 | S(rot)=             -inf Eh      -inf kcal/mol|
|  sn=12 | S(rot)=             -inf Eh      -inf kcal/mol|
 --------------------------------------------------------


-------------------
GIBBS FREE ENERGY
-------------------

The Gibbs free energy is G = H - T*S

Total enthalpy                    ...   -460.33283394 Eh 
Total entropy correction          ...     -0.02118976 Eh    -13.30 kcal/mol
-----------------------------------------------------------------------
Final Gibbs free energy         ...   -460.35402370 Eh

For completeness - the Gibbs free energy minus the electronic energy
G-E(el)                           ...     -0.01092838 Eh     -6.86 kcal/mol


Timings for individual modules:

Sum of individual times         ...       61.592 sec (=   1.027 min)
GTO integral calculation        ...        3.370 sec (=   0.056 min)   5.5 %
SCF iterations                  ...       10.861 sec (=   0.181 min)  17.6 %
MP2 module                      ...       21.328 sec (=   0.355 min)  34.6 %
Geometry relaxation             ...        0.637 sec (=   0.011 min)   1.0 %
Analytical frequency calculation...       25.396 sec (=   0.423 min)  41.2 %
                             ****ORCA TERMINATED NORMALLY****
TOTAL RUN TIME: 0 days 0 hours 1 minutes 2 seconds 389 msec
