
                                 *****************
                                 * O   R   C   A *
                                 *****************

           --- An Ab Initio, DFT and Semiempirical electronic structure package ---

                  #######################################################
                  #                        -***-                        #
                  #          Department of theory and spectroscopy      #
                  #               Directorship: Frank Neese             #
                  #        Max Planck Institute fuer Kohlenforschung    #
                  #                Kaiser Wilhelm Platz 1               #
                  #                 D-45470 Muelheim/Ruhr               #
                  #                      Germany                        #
                  #                                                     #
                  #                  All rights reserved                #
                  #                        -***-                        #
                  #######################################################


                         Program Version 4.2.1 -  RELEASE  -


 With contributions from (in alphabetic order):
   Daniel Aravena         : Magnetic Suceptibility
   Michael Atanasov       : Ab Initio Ligand Field Theory (pilot matlab implementation)
   Alexander A. Auer      : GIAO ZORA, VPT2
   Ute Becker             : Parallelization
   Giovanni Bistoni       : ED, misc. LED, open-shell LED, HFLD
   Martin Brehm           : Molecular dynamics
   Dmytro Bykov           : SCF Hessian
   Vijay G. Chilkuri      : MRCI spin determinant printing, contributions to CSF-ICE
   Dipayan Datta          : RHF DLPNO-CCSD density
   Achintya Kumar Dutta   : EOM-CC, STEOM-CC
   Dmitry Ganyushin       : Spin-Orbit,Spin-Spin,Magnetic field MRCI
   Miquel Garcia          : C-PCM Hessian, Gaussian charge scheme
   Yang Guo               : DLPNO-NEVPT2, CIM, IAO-localization
   Andreas Hansen         : Spin unrestricted coupled pair/coupled cluster methods
   Benjamin Helmich-Paris : CASSCF linear response (MC-RPA)
   Lee Huntington         : MR-EOM, pCC
   Robert Izsak           : Overlap fitted RIJCOSX, COSX-SCS-MP3, EOM
   Christian Kollmar      : KDIIS, OOCD, Brueckner-CCSD(T), CCSD density
   Simone Kossmann        : Meta GGA functionals, TD-DFT gradient, OOMP2, MP2 Hessian
   Martin Krupicka        : AUTO-CI
   Lucas Lang             : DCDCAS
   Dagmar Lenk            : GEPOL surface, SMD
   Dimitrios Liakos       : Extrapolation schemes; Compound Job, initial MDCI parallelization
   Dimitrios Manganas     : Further ROCIS development; embedding schemes
   Dimitrios Pantazis     : SARC Basis sets
   Taras Petrenko         : DFT Hessian,TD-DFT gradient, ASA, ECA, R-Raman, ABS, FL, XAS/XES, NRVS
   Peter Pinski           : DLPNO-MP2, DLPNO-MP2 Gradient
   Christoph Reimann      : Effective Core Potentials
   Marius Retegan         : Local ZFS, SOC
   Christoph Riplinger    : Optimizer, TS searches, QM/MM, DLPNO-CCSD(T), (RO)-DLPNO pert. Triples
   Tobias Risthaus        : Range-separated hybrids, TD-DFT gradient, RPA, STAB
   Michael Roemelt        : Original ROCIS implementation
   Masaaki Saitow         : Open-shell DLPNO-CCSD energy and density
   Barbara Sandhoefer     : DKH picture change effects
   Avijit Sen             : IP-ROCIS
   Kantharuban Sivalingam : CASSCF convergence, NEVPT2, FIC-MRCI
   Bernardo de Souza      : ESD, SOC TD-DFT
   Georgi Stoychev        : AutoAux, RI-MP2 NMR
   Willem Van den Heuvel  : Paramagnetic NMR
   Boris Wezisla          : Elementary symmetry handling
   Frank Wennmohs         : Technical directorship


 We gratefully acknowledge several colleagues who have allowed us to
 interface, adapt or use parts of their codes:
   Stefan Grimme, W. Hujo, H. Kruse,             : VdW corrections, initial TS optimization,
                  C. Bannwarth                     DFT functionals, gCP, sTDA/sTD-DF
   Ed Valeev, F. Pavosevic, A. Kumar             : LibInt (2-el integral package), F12 methods
   Garnet Chan, S. Sharma, J. Yang, R. Olivares  : DMRG
   Ulf Ekstrom                                   : XCFun DFT Library
   Mihaly Kallay                                 : mrcc  (arbitrary order and MRCC methods)
   Andreas Klamt, Michael Diedenhofen            : otool_cosmo (COSMO solvation model)
   Jiri Pittner, Ondrej Demel                    : Mk-CCSD
   Frank Weinhold                                : gennbo (NPA and NBO analysis)
   Christopher J. Cramer and Donald G. Truhlar   : smd solvation model
   Lars Goerigk                                  : TD-DFT with DH, B97 family of functionals
   V. Asgeirsson, H. Jonsson                     : NEB implementation
   FAccTs GmbH                                   : IRC, NEB, NEB-TS, Multilevel, MM, QM/MM, CI optimization
   S Lehtola, MJT Oliveira, MAL Marques          : LibXC Library


 Your calculation uses the libint2 library for the computation of 2-el integrals
 For citations please refer to: http://libint.valeyev.net

 Your ORCA version has been built with support for libXC version: 4.2.3
 For citations please refer to: https://tddft.org/programs/libxc/

 This ORCA versions uses:
   CBLAS   interface :  Fast vector & matrix operations
   LAPACKE interface :  Fast linear algebra routines
   SCALAPACK package :  Parallel linear algebra routines


----- Orbital basis set information -----
Your calculation utilizes the basis: cc-pVTZ 
       H, B-Ne : Obtained from the ccRepo (grant-hill.group.shef.ac.uk/ccrepo) Feb. 2017
                 T. H. Dunning, Jr., J. Chem. Phys. 90, 1007 (1989)
            He : Obtained from the ccRepo (grant-hill.group.shef.ac.uk/ccrepo) Feb. 2017
                 D. E. Woon, T. H. Dunning, Jr., J. Chem. Phys. 100, 2975 (1994)
  Li-Be, Na-Mg : Obtained from the ccRepo (grant-hill.group.shef.ac.uk/ccrepo) Feb. 2017
                 B. P. Prascher, D. E. Woon, K. A. Peterson, T. H. Dunning, Jr., A. K. Wilson, Theor. Chem. Acc. 128, 69 (2011)
         Al-Ar : Obtained from the ccRepo (grant-hill.group.shef.ac.uk/ccrepo) Feb. 2017
                 D. E. Woon, T. H. Dunning, Jr., J. Chem. Phys. 98, 1358 (1993)
            Ca : Obtained from the Peterson Research Group Website (tyr0.chem.wsu.edu/~kipeters) Feb. 2017
                 J. Koput, K. A. Peterson, J. Phys. Chem. 106, 9595 (2002)
         Sc-Zn : Obtained from the ccRepo (grant-hill.group.shef.ac.uk/ccrepo) Feb. 2017
                 N. B. Balabanov, K. A. Peterson, J. Chem. Phys. 123, 064107 (2005)
                 N. B. Balabanov, K. A. Peterson, J. Chem. Phys. 125, 074110 (2006)
         Ga-Kr : Obtained from the ccRepo (grant-hill.group.shef.ac.uk/ccrepo) Feb. 2017
                 A. K. Wilson, D. E. Woon, K. A. Peterson, T. H. Dunning, Jr., J. Chem. Phys. 110, 7667 (1999)
             Y : Obtained from the ccRepo (grant-hill.group.shef.ac.uk/ccrepo) Feb. 2017
                 K. A. Peterson, D. Figgen, M. Dolg, H. Stoll, J. Chem. Phys. 126, 124101 (2007)
        Ag, Au : Obtained from the Peterson Research Group Website (tyr0.chem.wsu.edu/~kipeters) Feb. 2017
                 K. A. Peterson, C. Puzzarini, Theor. Chem. Acc. 114, 283 (2005)

================================================================================
                                        WARNINGS
                       Please study these warnings very carefully!
================================================================================


WARNING: Geometry Optimization
  ===> : Switching off AutoStart
         For restart on a previous wavefunction, please use MOREAD

WARNING: Post HF methods need fully converged wavefunctions
  ===> : Setting SCFConvForced true
         You can overwrite this default with %scf ConvForced false 


INFO   : the flag for use of LIBINT has been found!

================================================================================
                                       INPUT FILE
================================================================================
NAME = methane.inp
|  1> ! UHF MP2 cc-pVTZ Opt Freq NoFrozenCore TightOpt TightSCF Grid4 FinalGrid5 PrintBasis PrintMOs NBO
|  2> %maxcore 3000
|  3> 
|  4> *xyz 0 1
|  5>   C   -0.00000000004417     -0.00000000000574     -0.00000000002828
|  6>   H   -0.62610822418801     -0.62610822416691      0.62610822423432
|  7>   H   0.62610822427917     -0.62610822426631     -0.62610822425050
|  8>   H   -0.62610822426220      0.62610822423885     -0.62610822422529
|  9>   H   0.62610822421521      0.62610822420010      0.62610822426975
| 10> *
| 11> 
| 12> %pal
| 13>  nprocs 6
| 14> end
| 15> 
| 16>                          ****END OF INPUT****
================================================================================

                       *****************************
                       * Geometry Optimization Run *
                       *****************************

Geometry optimization settings:
Update method            Update   .... BFGS
Choice of coordinates    CoordSys .... Z-matrix Internals
Initial Hessian          InHess   .... Almoef's Model

Convergence Tolerances:
Energy Change            TolE     ....  1.0000e-06 Eh
Max. Gradient            TolMAXG  ....  1.0000e-04 Eh/bohr
RMS Gradient             TolRMSG  ....  3.0000e-05 Eh/bohr
Max. Displacement        TolMAXD  ....  1.0000e-03 bohr
RMS Displacement         TolRMSD  ....  6.0000e-04 bohr
Strict Convergence                ....  False
------------------------------------------------------------------------------
                        ORCA OPTIMIZATION COORDINATE SETUP
------------------------------------------------------------------------------

The optimization will be done in new redundant internal coordinates
Making redundant internal coordinates   ...  (new redundants) done
Evaluating the initial hessian          ...  (Almloef) done
Evaluating the coordinates              ...  done
Calculating the B-matrix                .... done
Calculating the G-matrix                .... done
Diagonalizing the G-matrix              .... done
The first mode is                       ....    1
The number of degrees of freedom        ....    9

    -----------------------------------------------------------------
                    Redundant Internal Coordinates


    -----------------------------------------------------------------
         Definition                    Initial Value    Approx d2E/dq
    -----------------------------------------------------------------
      1. B(H   1,C   0)                  1.0845         0.367516   
      2. B(H   2,C   0)                  1.0845         0.367516   
      3. B(H   3,C   0)                  1.0845         0.367516   
      4. B(H   4,C   0)                  1.0845         0.367516   
      5. A(H   1,C   0,H   3)          109.4712         0.292710   
      6. A(H   2,C   0,H   3)          109.4712         0.292710   
      7. A(H   1,C   0,H   4)          109.4712         0.292710   
      8. A(H   2,C   0,H   4)          109.4712         0.292710   
      9. A(H   3,C   0,H   4)          109.4712         0.292710   
     10. A(H   1,C   0,H   2)          109.4712         0.292710   
    -----------------------------------------------------------------

Number of atoms                         .... 5
Number of degrees of freedom            .... 10

         *************************************************************
         *                GEOMETRY OPTIMIZATION CYCLE   1            *
         *************************************************************
---------------------------------
CARTESIAN COORDINATES (ANGSTROEM)
---------------------------------
  C     -0.000000   -0.000000   -0.000000
  H     -0.626108   -0.626108    0.626108
  H      0.626108   -0.626108   -0.626108
  H     -0.626108    0.626108   -0.626108
  H      0.626108    0.626108    0.626108

----------------------------
CARTESIAN COORDINATES (A.U.)
----------------------------
  NO LB      ZA    FRAG     MASS         X           Y           Z
   0 C     6.0000    0    12.011   -0.000000   -0.000000   -0.000000
   1 H     1.0000    0     1.008   -1.183173   -1.183173    1.183173
   2 H     1.0000    0     1.008    1.183173   -1.183173   -1.183173
   3 H     1.0000    0     1.008   -1.183173    1.183173   -1.183173
   4 H     1.0000    0     1.008    1.183173    1.183173    1.183173

--------------------------------
INTERNAL COORDINATES (ANGSTROEM)
--------------------------------
 C      0   0   0     0.000000000000     0.00000000     0.00000000
 H      1   0   0     1.084451255332     0.00000000     0.00000000
 H      1   2   0     1.084451255470   109.47122064     0.00000000
 H      1   2   3     1.084451255386   109.47122064   120.00000001
 H      1   2   3     1.084451255445   109.47122063   240.00000001

---------------------------
INTERNAL COORDINATES (A.U.)
---------------------------
 C      0   0   0     0.000000000000     0.00000000     0.00000000
 H      1   0   0     2.049315878165     0.00000000     0.00000000
 H      1   2   0     2.049315878426   109.47122064     0.00000000
 H      1   2   3     2.049315878266   109.47122064   120.00000001
 H      1   2   3     2.049315878379   109.47122063   240.00000001

---------------------
BASIS SET INFORMATION
---------------------
There are 2 groups of distinct atoms

 Group   1 Type C   : 18s5p2d1f contracted to 4s3p2d1f pattern {8811/311/11/1}
 Group   2 Type H   : 5s2p1d contracted to 3s2p1d pattern {311/11/1}

Atom   0C    basis set group =>   1
Atom   1H    basis set group =>   2
Atom   2H    basis set group =>   2
Atom   3H    basis set group =>   2
Atom   4H    basis set group =>   2

-------------------------
BASIS SET IN INPUT FORMAT
-------------------------

 # Basis set for element : H 
 NewGTO H 
 S 3 
   1      33.8700000000      0.0254948632
   2       5.0950000000      0.1903627659
   3       1.1590000000      0.8521620222
 S 1 
   1       0.3258000000      1.0000000000
 S 1 
   1       0.1027000000      1.0000000000
 P 1 
   1       1.4070000000      1.0000000000
 P 1 
   1       0.3880000000      1.0000000000
 D 1 
   1       1.0570000000      1.0000000000
  end;

 # Basis set for element : C 
 NewGTO C 
 S 8 
   1    8236.0000000000      0.0005424302
   2    1235.0000000000      0.0041964279
   3     280.8000000000      0.0215409141
   4      79.2700000000      0.0836149496
   5      25.5900000000      0.2398716189
   6       8.9970000000      0.4437518201
   7       3.3190000000      0.3535796965
   8       0.3643000000     -0.0091763661
 S 8 
   1    8236.0000000000     -0.0001963922
   2    1235.0000000000     -0.0015259503
   3     280.8000000000     -0.0078904490
   4      79.2700000000     -0.0315148705
   5      25.5900000000     -0.0969100083
   6       8.9970000000     -0.2205415263
   7       3.3190000000     -0.2960691129
   8       0.3643000000      1.0405034329
 S 1 
   1       0.9059000000      1.0000000000
 S 1 
   1       0.1285000000      1.0000000000
 P 3 
   1      18.7100000000      0.0394263872
   2       4.1330000000      0.2440889849
   3       1.2000000000      0.8154920089
 P 1 
   1       0.3827000000      1.0000000000
 P 1 
   1       0.1209000000      1.0000000000
 D 1 
   1       1.0970000000      1.0000000000
 D 1 
   1       0.3180000000      1.0000000000
 F 1 
   1       0.7610000000      1.0000000000
  end;



           ************************************************************
           *        Program running with 6 parallel MPI-processes     *
           *              working on a common directory               *
           ************************************************************
------------------------------------------------------------------------------
                           ORCA GTO INTEGRAL CALCULATION
------------------------------------------------------------------------------

                         BASIS SET STATISTICS AND STARTUP INFO

 # of primitive gaussian shells          ...   58
 # of primitive gaussian functions       ...  114
 # of contracted shells                  ...   34
 # of contracted basis functions         ...   86
 Highest angular momentum                ...    3
 Maximum contraction depth               ...    8
 Integral package used                   ... LIBINT
 Integral threshhold            Thresh   ...  2.500e-11
 Primitive cut-off              TCut     ...  2.500e-12


------------------------------ INTEGRAL EVALUATION ----------------------------


 * One electron integrals 
 Pre-screening matrix                    ... done
 Shell pair data                         ... done (   0.000 sec)



           ************************************************************
           *        Program running with 6 parallel MPI-processes     *
           *              working on a common directory               *
           ************************************************************
-------------------------------------------------------------------------------
                                 ORCA SCF
-------------------------------------------------------------------------------

------------
SCF SETTINGS
------------
Hamiltonian:
 Ab initio Hamiltonian  Method          .... Hartree-Fock(GTOs)


General Settings:
 Integral files         IntName         .... methane
 Hartree-Fock type      HFTyp           .... UHF
 Total Charge           Charge          ....    0
 Multiplicity           Mult            ....    1
 Number of Electrons    NEL             ....   10
 Basis Dimension        Dim             ....   86
 Nuclear Repulsion      ENuc            ....     13.5041332120 Eh

Convergence Acceleration:
 DIIS                   CNVDIIS         .... on
   Start iteration      DIISMaxIt       ....    12
   Startup error        DIISStart       ....  0.200000
   # of expansion vecs  DIISMaxEq       ....     5
   Bias factor          DIISBfac        ....   1.050
   Max. coefficient     DIISMaxC        ....  10.000
 Newton-Raphson         CNVNR           .... off
 SOSCF                  CNVSOSCF        .... off
 Level Shifting         CNVShift        .... on
   Level shift para.    LevelShift      ....    0.2500
   Turn off err/grad.   ShiftErr        ....    0.0010
 Zerner damping         CNVZerner       .... off
 Static damping         CNVDamp         .... on
   Fraction old density DampFac         ....    0.7000
   Max. Damping (<1)    DampMax         ....    0.9800
   Min. Damping (>=0)   DampMin         ....    0.0000
   Turn off err/grad.   DampErr         ....    0.1000
 Fernandez-Rico         CNVRico         .... off

SCF Procedure:
 Maximum # iterations   MaxIter         ....   125
 SCF integral mode      SCFMode         .... Direct
   Integral package                     .... LIBINT
 Reset frequency        DirectResetFreq ....    20
 Integral Threshold     Thresh          ....  2.500e-11 Eh
 Primitive CutOff       TCut            ....  2.500e-12 Eh

Convergence Tolerance:
 Convergence Check Mode ConvCheckMode   .... Total+1el-Energy
 Convergence forced     ConvForced      .... 1
 Energy Change          TolE            ....  1.000e-08 Eh
 1-El. energy change                    ....  1.000e-05 Eh
 DIIS Error             TolErr          ....  5.000e-07


Diagonalization of the overlap matrix:
Smallest eigenvalue                        ... 1.898e-03
Time for diagonalization                   ...    0.002 sec
Threshold for overlap eigenvalues          ... 1.000e-08
Number of eigenvalues below threshold      ... 0
Time for construction of square roots      ...    0.001 sec
Total time needed                          ...    0.003 sec

-------------------
DFT GRID GENERATION
-------------------

General Integration Accuracy     IntAcc      ...  4.670
Radial Grid Type                 RadialGrid  ... Gauss-Chebyshev
Angular Grid (max. acc.)         AngularGrid ... Lebedev-302
Angular grid pruning method      GridPruning ... 3 (G Style)
Weight generation scheme         WeightScheme... Becke
Basis function cutoff            BFCut       ...    1.0000e-11
Integration weight cutoff        WCut        ...    1.0000e-14
Grids for H and He will be reduced by one unit

# of grid points (after initial pruning)     ...  19788 (   0.0 sec)
# of grid points (after weights+screening)   ...  19276 (   0.0 sec)
nearest neighbour list constructed           ...    0.0 sec
Grid point re-assignment to atoms done       ...    0.0 sec
Grid point division into batches done        ...    0.1 sec
Reduced shell lists constructed in    0.1 sec

Total number of grid points                  ...    19276
Total number of batches                      ...      304
Average number of points per batch           ...       63
Average number of grid points per atom       ...     3855
Average number of shells per batch           ...    28.04 (82.47%)
Average number of basis functions per batch  ...    69.31 (80.59%)
Average number of large shells per batch     ...    27.12 (96.71%)
Average number of large basis fcns per batch ...    67.35 (97.17%)
Maximum spatial batch extension              ...  16.75, 16.75, 18.44 au
Average spatial batch extension              ...   0.54,  0.53,  0.54 au

Time for grid setup =    0.093 sec

------------------------------
INITIAL GUESS: MODEL POTENTIAL
------------------------------
Loading Hartree-Fock densities                     ... done
Calculating cut-offs                               ... done
Setting up the integral package                    ... done
Initializing the effective Hamiltonian             ... done
Starting the Coulomb interaction                   ... done (   0.0 sec)
Reading the grid                                   ... done
Mapping shells                                     ... done
Starting the XC term evaluation                    ... done (   0.0 sec)
Transforming the Hamiltonian                       ... done (   0.0 sec)
Diagonalizing the Hamiltonian                      ... done (   0.0 sec)
Back transforming the eigenvectors                 ... done (   0.0 sec)
Now organizing SCF variables                       ... done
                      ------------------
                      INITIAL GUESS DONE (   0.2 sec)
                      ------------------
--------------
SCF ITERATIONS
--------------
ITER       Energy         Delta-E        Max-DP      RMS-DP      [F,P]     Damp
               ***  Starting incremental Fock matrix formation  ***
  0    -40.0968249094   0.000000000000 0.01436417  0.00054368  0.2941311 0.7000
  1    -40.1391551637  -0.042330254294 0.01005649  0.00041775  0.1888782 0.7000
                               ***Turning on DIIS***
  2    -40.1643818567  -0.025226693019 0.00728128  0.00027136  0.1106824 0.7000
  3    -40.3425941818  -0.178212325094 0.01900015  0.00052345  0.0697753 0.0000
  4    -40.1839078046   0.158686377220 0.00308733  0.00007332  0.0111976 0.0000
  5    -40.2101686900  -0.026260885427 0.00084503  0.00004161  0.0030487 0.0000
  6    -40.2129230163  -0.002754326349 0.00045257  0.00002099  0.0010431 0.0000
  7    -40.2134398837  -0.000516867400 0.00022776  0.00001081  0.0002829 0.0000
  8    -40.2134720067  -0.000032122994 0.00002469  0.00000134  0.0000175 0.0000
  9    -40.2134537217   0.000018284998 0.00000269  0.00000017  0.0000012 0.0000
                            ***DIIS convergence achieved***

               *****************************************************
               *                     SUCCESS                       *
               *           SCF CONVERGED AFTER  10 CYCLES          *
               *****************************************************


----------------
TOTAL SCF ENERGY
----------------

Total Energy       :          -40.21345158 Eh           -1094.26365 eV

Components:
Nuclear Repulsion  :           13.50413321 Eh             367.46615 eV
Electronic Energy  :          -53.71758480 Eh           -1461.72980 eV
One Electron Energy:          -79.86101563 Eh           -2173.12871 eV
Two Electron Energy:           26.14343083 Eh             711.39892 eV

Virial components:
Potential Energy   :          -80.39442926 Eh           -2187.64364 eV
Kinetic Energy     :           40.18097767 Eh            1093.37999 eV
Virial Ratio       :            2.00080819


---------------
SCF CONVERGENCE
---------------

  Last Energy change         ...    2.1373e-06  Tolerance :   1.0000e-08
  Last MAX-Density change    ...    4.9431e-07  Tolerance :   1.0000e-07
  Last RMS-Density change    ...    1.7818e-08  Tolerance :   5.0000e-09
  Last DIIS Error            ...    7.9373e-08  Tolerance :   5.0000e-07

             **** THE GBW FILE WAS UPDATED (methane.gbw) ****
             **** DENSITY FILE WAS UPDATED (methane.scfp) ****
             **** ENERGY FILE WAS UPDATED (methane.en.tmp) ****
----------------------
UHF SPIN CONTAMINATION
----------------------

Expectation value of <S**2>     :    -0.000000
Ideal value S*(S+1) for S=0.0   :     0.000000
Deviation                       :    -0.000000

             **** THE GBW FILE WAS UPDATED (methane.gbw) ****
             **** DENSITY FILE WAS UPDATED (methane.scfp) ****
----------------
ORBITAL ENERGIES
----------------
                 SPIN UP ORBITALS
  NO   OCC          E(Eh)            E(eV) 
   0   1.0000     -11.204474      -304.8892 
   1   1.0000      -0.944719       -25.7071 
   2   1.0000      -0.545961       -14.8564 
   3   1.0000      -0.545961       -14.8564 
   4   1.0000      -0.545961       -14.8564 
   5   0.0000       0.143765         3.9120 
   6   0.0000       0.229854         6.2547 
   7   0.0000       0.229854         6.2547 
   8   0.0000       0.229854         6.2547 
   9   0.0000       0.364083         9.9072 
  10   0.0000       0.364083         9.9072 
  11   0.0000       0.364083         9.9072 
  12   0.0000       0.643457        17.5094 
  13   0.0000       0.649509        17.6740 
  14   0.0000       0.649509        17.6740 
  15   0.0000       0.649509        17.6740 
  16   0.0000       0.685368        18.6498 
  17   0.0000       0.685368        18.6498 
  18   0.0000       0.759105        20.6563 
  19   0.0000       1.078128        29.3373 
  20   0.0000       1.078128        29.3373 
  21   0.0000       1.078128        29.3373 
  22   0.0000       1.158468        31.5235 
  23   0.0000       1.158468        31.5235 
  24   0.0000       1.158468        31.5235 
  25   0.0000       1.320547        35.9339 
  26   0.0000       1.320547        35.9339 
  27   0.0000       1.320547        35.9339 
  28   0.0000       1.537314        41.8325 
  29   0.0000       1.537314        41.8325 
  30   0.0000       1.537314        41.8325 
  31   0.0000       1.601151        43.5695 
  32   0.0000       1.601151        43.5695 
  33   0.0000       1.814936        49.3869 
  34   0.0000       2.421897        65.9032 
  35   0.0000       2.421897        65.9032 
  36   0.0000       2.421897        65.9032 
  37   0.0000       2.563461        69.7553 
  38   0.0000       2.992278        81.4240 
  39   0.0000       2.992278        81.4240 
  40   0.0000       2.992278        81.4240 
  41   0.0000       3.135304        85.3159 
  42   0.0000       3.135304        85.3159 
  43   0.0000       3.142943        85.5238 
  44   0.0000       3.142943        85.5238 
  45   0.0000       3.142943        85.5238 
  46   0.0000       3.310190        90.0749 
  47   0.0000       3.310190        90.0749 
  48   0.0000       3.310190        90.0749 
  49   0.0000       3.621759        98.5531 
  50   0.0000       3.621759        98.5531 
  51   0.0000       3.621759        98.5531 
  52   0.0000       3.745578       101.9224 
  53   0.0000       3.745578       101.9224 
  54   0.0000       3.745578       101.9224 
  55   0.0000       3.803137       103.4886 
  56   0.0000       3.803137       103.4886 
  57   0.0000       3.891608       105.8960 
  58   0.0000       4.099037       111.5405 
  59   0.0000       4.099037       111.5405 
  60   0.0000       4.099037       111.5405 
  61   0.0000       4.126719       112.2937 
  62   0.0000       4.126719       112.2937 
  63   0.0000       4.395050       119.5954 
  64   0.0000       4.395050       119.5954 
  65   0.0000       4.395050       119.5954 
  66   0.0000       4.549292       123.7925 
  67   0.0000       4.549292       123.7925 
  68   0.0000       4.549292       123.7925 
  69   0.0000       4.852672       132.0479 
  70   0.0000       5.073014       138.0437 
  71   0.0000       5.073014       138.0437 
  72   0.0000       5.073014       138.0437 
  73   0.0000       5.495382       149.5369 
  74   0.0000       5.495382       149.5369 
  75   0.0000       5.495382       149.5369 
  76   0.0000       5.521848       150.2571 
  77   0.0000       5.521848       150.2571 
  78   0.0000       5.521848       150.2571 
  79   0.0000       5.586776       152.0239 
  80   0.0000       5.661936       154.0691 
  81   0.0000       5.661936       154.0691 
  82   0.0000       6.223369       169.3465 
  83   0.0000       6.223369       169.3465 
  84   0.0000       6.223369       169.3465 
  85   0.0000      14.575329       396.6149 

                 SPIN DOWN ORBITALS
  NO   OCC          E(Eh)            E(eV) 
   0   1.0000     -11.204474      -304.8892 
   1   1.0000      -0.944719       -25.7071 
   2   1.0000      -0.545961       -14.8564 
   3   1.0000      -0.545961       -14.8564 
   4   1.0000      -0.545961       -14.8564 
   5   0.0000       0.143765         3.9120 
   6   0.0000       0.229854         6.2547 
   7   0.0000       0.229854         6.2547 
   8   0.0000       0.229854         6.2547 
   9   0.0000       0.364083         9.9072 
  10   0.0000       0.364083         9.9072 
  11   0.0000       0.364083         9.9072 
  12   0.0000       0.643457        17.5094 
  13   0.0000       0.649509        17.6740 
  14   0.0000       0.649509        17.6740 
  15   0.0000       0.649509        17.6740 
  16   0.0000       0.685368        18.6498 
  17   0.0000       0.685368        18.6498 
  18   0.0000       0.759105        20.6563 
  19   0.0000       1.078128        29.3373 
  20   0.0000       1.078128        29.3373 
  21   0.0000       1.078128        29.3373 
  22   0.0000       1.158468        31.5235 
  23   0.0000       1.158468        31.5235 
  24   0.0000       1.158468        31.5235 
  25   0.0000       1.320547        35.9339 
  26   0.0000       1.320547        35.9339 
  27   0.0000       1.320547        35.9339 
  28   0.0000       1.537314        41.8325 
  29   0.0000       1.537314        41.8325 
  30   0.0000       1.537314        41.8325 
  31   0.0000       1.601151        43.5695 
  32   0.0000       1.601151        43.5695 
  33   0.0000       1.814936        49.3869 
  34   0.0000       2.421897        65.9032 
  35   0.0000       2.421897        65.9032 
  36   0.0000       2.421897        65.9032 
  37   0.0000       2.563461        69.7553 
  38   0.0000       2.992278        81.4240 
  39   0.0000       2.992278        81.4240 
  40   0.0000       2.992278        81.4240 
  41   0.0000       3.135304        85.3159 
  42   0.0000       3.135304        85.3159 
  43   0.0000       3.142943        85.5238 
  44   0.0000       3.142943        85.5238 
  45   0.0000       3.142943        85.5238 
  46   0.0000       3.310190        90.0749 
  47   0.0000       3.310190        90.0749 
  48   0.0000       3.310190        90.0749 
  49   0.0000       3.621759        98.5531 
  50   0.0000       3.621759        98.5531 
  51   0.0000       3.621759        98.5531 
  52   0.0000       3.745578       101.9224 
  53   0.0000       3.745578       101.9224 
  54   0.0000       3.745578       101.9224 
  55   0.0000       3.803137       103.4886 
  56   0.0000       3.803137       103.4886 
  57   0.0000       3.891608       105.8960 
  58   0.0000       4.099037       111.5405 
  59   0.0000       4.099037       111.5405 
  60   0.0000       4.099037       111.5405 
  61   0.0000       4.126719       112.2937 
  62   0.0000       4.126719       112.2937 
  63   0.0000       4.395050       119.5954 
  64   0.0000       4.395050       119.5954 
  65   0.0000       4.395050       119.5954 
  66   0.0000       4.549292       123.7925 
  67   0.0000       4.549292       123.7925 
  68   0.0000       4.549292       123.7925 
  69   0.0000       4.852672       132.0479 
  70   0.0000       5.073014       138.0437 
  71   0.0000       5.073014       138.0437 
  72   0.0000       5.073014       138.0437 
  73   0.0000       5.495382       149.5369 
  74   0.0000       5.495382       149.5369 
  75   0.0000       5.495382       149.5369 
  76   0.0000       5.521848       150.2571 
  77   0.0000       5.521848       150.2571 
  78   0.0000       5.521848       150.2571 
  79   0.0000       5.586776       152.0239 
  80   0.0000       5.661936       154.0691 
  81   0.0000       5.661936       154.0691 
  82   0.0000       6.223369       169.3465 
  83   0.0000       6.223369       169.3465 
  84   0.0000       6.223369       169.3465 
  85   0.0000      14.575329       396.6149 
------------------
MOLECULAR ORBITALS
------------------
                      0         1         2         3         4         5   
                 -11.20447  -0.94472  -0.54596  -0.54596  -0.54596   0.14376
                   1.00000   1.00000   1.00000   1.00000   1.00000   0.00000
                  --------  --------  --------  --------  --------  --------
  0C   1s        -0.978545 -0.015256 -0.000000  0.000000 -0.000000  0.034108
  0C   2s        -0.001902  0.447413 -0.000000  0.000000 -0.000000  0.285845
  0C   3s        -0.041418  0.088989 -0.000000 -0.000000 -0.000000  0.052473
  0C   4s        -0.006049  0.196066 -0.000000  0.000000 -0.000000  3.810738
  0C   1pz        0.000000  0.000000  0.187525 -0.036806  0.137975 -0.000000
  0C   1px       -0.000000 -0.000000  0.007741  0.230027  0.050841  0.000000
  0C   1py       -0.000000 -0.000000 -0.142590 -0.035917  0.184216  0.000000
  0C   2pz       -0.000000  0.000000  0.227081 -0.044570  0.167079  0.000000
  0C   2px        0.000000 -0.000000  0.009374  0.278548  0.061565 -0.000000
  0C   2py        0.000000 -0.000000 -0.172667 -0.043493  0.223073  0.000000
  0C   3pz       -0.000000  0.000000  0.109317 -0.021456  0.080432  0.000000
  0C   3px        0.000000 -0.000000  0.004513  0.134093  0.029638  0.000000
  0C   3py        0.000000 -0.000000 -0.083122 -0.020938  0.107388  0.000000
  0C   1dz2      -0.000000  0.000000  0.000000 -0.000000  0.000000 -0.000000
  0C   1dxz       0.000000 -0.000000 -0.010833 -0.002729  0.013995 -0.000000
  0C   1dyz       0.000000 -0.000000  0.000588  0.017476  0.003862 -0.000000
  0C   1dx2y2    -0.000000  0.000000  0.000000  0.000000  0.000000 -0.000000
  0C   1dxy       0.000000 -0.000000  0.014247 -0.002796  0.010482  0.000000
  0C   2dz2       0.000000  0.000000  0.000000 -0.000000  0.000000  0.000000
  0C   2dxz       0.000000 -0.000000 -0.012209 -0.003075  0.015773 -0.000000
  0C   2dyz       0.000000 -0.000000  0.000663  0.019696  0.004353 -0.000000
  0C   2dx2y2     0.000000  0.000000  0.000000  0.000000  0.000000  0.000000
  0C   2dxy      -0.000000 -0.000000  0.016057 -0.003152  0.011814 -0.000000
  0C   1f0       -0.000000  0.000000 -0.000418  0.000082 -0.000308  0.000000
  0C   1f+1       0.000000  0.000000  0.000011  0.000314  0.000069  0.000000
  0C   1f-1       0.000000  0.000000 -0.000195 -0.000049  0.000251  0.000000
  0C   1f+2      -0.000000 -0.000000  0.000000 -0.000000  0.000000  0.000000
  0C   1f-2      -0.000931  0.009438 -0.000000  0.000000 -0.000000  0.027782
  0C   1f+3       0.000000  0.000000  0.000014  0.000405  0.000090  0.000000
  0C   1f-3      -0.000000 -0.000000  0.000251  0.000063 -0.000325 -0.000000
  1H   1s        -0.000132  0.082408  0.138186 -0.098983 -0.041614  0.006353
  1H   2s         0.000643  0.089487  0.219982 -0.157573 -0.066247 -0.246697
  1H   3s         0.000752  0.012017  0.097848 -0.070089 -0.029467 -1.125878
  1H   1pz       -0.000196 -0.004569 -0.005043  0.005621  0.005524 -0.007064
  1H   1px        0.000196  0.004569  0.009065 -0.001641 -0.001635  0.007064
  1H   1py        0.000196  0.004569  0.005968 -0.007119  0.001113  0.007064
  1H   2pz       -0.000176 -0.001163 -0.004717  0.007850  0.010335  0.093071
  1H   2px        0.000176  0.001163  0.013670  0.001009 -0.001679 -0.093071
  1H   2py        0.000176  0.001163  0.006777 -0.011184  0.004436 -0.093071
  1H   1dz2       0.000000  0.000000 -0.000652 -0.000327 -0.001388 -0.000000
  1H   1dxz      -0.000153 -0.000610 -0.002160  0.000823  0.001391  0.005329
  1H   1dyz      -0.000153 -0.000610 -0.001371  0.002218  0.000692  0.005329
  1H   1dx2y2    -0.000000  0.000000  0.000707  0.001251 -0.000627  0.000000
  1H   1dxy       0.000153  0.000610  0.002396 -0.001205  0.000298 -0.005329
  2H   1s        -0.000132  0.082408 -0.015943  0.129775 -0.116315  0.006353
  2H   2s         0.000643  0.089487 -0.025381  0.206592 -0.185164 -0.246697
  2H   3s         0.000752  0.012017 -0.011289  0.091892 -0.082361 -1.125878
  2H   1pz        0.000196  0.004569  0.002835  0.007605 -0.004654  0.007064
  2H   1px       -0.000196 -0.004569  0.001187 -0.003625  0.008543 -0.007064
  2H   1py        0.000196  0.004569 -0.003964  0.007623 -0.003701  0.007064
  2H   2pz        0.000176  0.001163  0.007061  0.010817 -0.004881 -0.093071
  2H   2px       -0.000176 -0.001163  0.001891 -0.001958  0.013538  0.093071
  2H   2py        0.000176  0.001163 -0.008074  0.010858 -0.002761 -0.093071
  2H   1dz2      -0.000000 -0.000000  0.001427  0.000522  0.000387  0.000000
  2H   1dxz      -0.000153 -0.000610 -0.000585 -0.001515  0.002155  0.005329
  2H   1dyz       0.000153  0.000610 -0.000122  0.002533 -0.000922 -0.005329
  2H   1dx2y2     0.000000  0.000000  0.000634 -0.000913 -0.001106 -0.000000
  2H   1dxy      -0.000153 -0.000610  0.001147 -0.001519  0.001912  0.005329
  3H   1s        -0.000132  0.082408 -0.144822 -0.098221 -0.001972  0.006353
  3H   2s         0.000643  0.089487 -0.230547 -0.156360 -0.003139 -0.246697
  3H   3s         0.000752  0.012017 -0.102547 -0.069549 -0.001396 -1.125878
  3H   1pz        0.000196  0.004569 -0.005470 -0.007088  0.002715  0.007064
  3H   1px        0.000196  0.004569 -0.009173 -0.001592  0.000920  0.007064
  3H   1py       -0.000196 -0.004569  0.006396  0.005590  0.003921 -0.007064
  3H   2pz        0.000176  0.001163 -0.005357 -0.011151  0.006136 -0.093071
  3H   2px        0.000176  0.001163 -0.013599  0.001082  0.002141 -0.093071
  3H   2py       -0.000176 -0.001163  0.007417  0.007817  0.008636  0.093071
  3H   1dz2      -0.000000 -0.000000  0.000610 -0.000922  0.001112 -0.000000
  3H   1dxz       0.000153  0.000610 -0.002228 -0.001192  0.000946 -0.005329
  3H   1dyz      -0.000153 -0.000610  0.001521  0.002210  0.000287  0.005329
  3H   1dx2y2    -0.000000  0.000000 -0.000634  0.000913  0.001106  0.000000
  3H   1dxy      -0.000153 -0.000610  0.002463  0.000811  0.000744  0.005329
  4H   1s        -0.000132  0.082408  0.022580  0.067429  0.159901  0.006353
  4H   2s         0.000643  0.089487  0.035945  0.107342  0.254550 -0.246697
  4H   3s         0.000752  0.012017  0.015988  0.047746  0.113224 -1.125878
  4H   1pz       -0.000196 -0.004569  0.002407 -0.005103 -0.007462 -0.007064
  4H   1px       -0.000196 -0.004569 -0.001296  0.000393 -0.009257 -0.007064
  4H   1py       -0.000196 -0.004569 -0.004392 -0.005085 -0.006510 -0.007064
  4H   2pz       -0.000176 -0.001163  0.006422 -0.008184 -0.009081  0.093071
  4H   2px       -0.000176 -0.001163 -0.001821  0.004049 -0.013076  0.093071
  4H   2py       -0.000176 -0.001163 -0.008713 -0.008144 -0.006961  0.093071
  4H   1dz2       0.000000  0.000000 -0.001385  0.000727 -0.000111  0.000000
  4H   1dxz       0.000153  0.000610 -0.000517  0.000501  0.002600 -0.005329
  4H   1dyz       0.000153  0.000610  0.000271  0.001896  0.001901 -0.005329
  4H   1dx2y2     0.000000  0.000000 -0.000707 -0.001251  0.000627 -0.000000
  4H   1dxy       0.000153  0.000610  0.001214  0.000496  0.002358 -0.005329
                      6         7         8         9        10        11   
                   0.22985   0.22985   0.22985   0.36408   0.36408   0.36408
                   0.00000   0.00000   0.00000   0.00000   0.00000   0.00000
                  --------  --------  --------  --------  --------  --------
  0C   1s        -0.000000  0.000000 -0.000000 -0.000000  0.000000 -0.000000
  0C   2s        -0.000000  0.000000 -0.000000 -0.000000  0.000000 -0.000000
  0C   3s        -0.000000  0.000000 -0.000000 -0.000000  0.000000 -0.000000
  0C   4s        -0.000000  0.000000 -0.000000 -0.000000  0.000000 -0.000000
  0C   1pz       -0.056398 -0.107841 -0.048433  0.014367 -0.084265  0.020945
  0C   1px        0.078108 -0.074274  0.074424 -0.053014 -0.025326 -0.065527
  0C   1py       -0.088739  0.003163  0.096289 -0.068766  0.001919  0.054893
  0C   2pz       -0.180421 -0.344990 -0.154941 -0.098362  0.576899 -0.143393
  0C   2px        0.249873 -0.237605  0.238085  0.362945  0.173390  0.448615
  0C   2py       -0.283882  0.010119  0.308035  0.470791 -0.013139 -0.375808
  0C   3pz       -0.781150 -1.493666 -0.670831 -0.385970  2.263726 -0.562668
  0C   3px        1.081845 -1.028732  1.030809  1.424183  0.680374  1.760346
  0C   3py       -1.229090  0.043811  1.333666  1.847364 -0.051559 -1.474656
  0C   1dz2       0.000000 -0.000000  0.000000  0.000000 -0.000000  0.000000
  0C   1dxz       0.002074 -0.000074 -0.002250 -0.000923  0.000026  0.000737
  0C   1dyz      -0.001825  0.001736 -0.001739 -0.000712 -0.000340 -0.000880
  0C   1dx2y2    -0.000000  0.000000 -0.000000 -0.000000 -0.000000 -0.000000
  0C   1dxy       0.001318  0.002520  0.001132  0.000193 -0.001131  0.000281
  0C   2dz2      -0.000000 -0.000000 -0.000000 -0.000000  0.000000 -0.000000
  0C   2dxz      -0.107871  0.003845  0.117049  0.436769 -0.012190 -0.348650
  0C   2dyz       0.094948 -0.090286  0.090469  0.336717  0.160860  0.416195
  0C   2dx2y2     0.000000 -0.000000  0.000000  0.000000  0.000000  0.000000
  0C   2dxy      -0.068557 -0.131091 -0.058875 -0.091254  0.535209 -0.133031
  0C   1f0        0.001060  0.002026  0.000910  0.009002 -0.052800  0.013124
  0C   1f+1       0.000899 -0.000855  0.000856  0.020342  0.009718  0.025143
  0C   1f-1      -0.001021  0.000036  0.001108  0.026386 -0.000736 -0.021063
  0C   1f+2      -0.000000 -0.000000  0.000000  0.000000  0.000000 -0.000000
  0C   1f-2       0.000000 -0.000000  0.000000  0.000000 -0.000000  0.000000
  0C   1f+3       0.001160 -0.001103  0.001106  0.026261  0.012546  0.032460
  0C   1f-3       0.001318 -0.000047 -0.001430 -0.034064  0.000951  0.027192
  1H   1s         0.003130  0.002512  0.014986  0.038252 -0.017099  0.008873
  1H   2s         0.052385  0.042042  0.250832  1.877493 -0.839240  0.435483
  1H   3s         0.613346  0.492245  2.936864  0.671583 -0.300198  0.155773
  1H   1pz       -0.000546 -0.005705  0.016035 -0.012340  0.022781 -0.006769
  1H   1px        0.002373 -0.009621 -0.013847  0.020911  0.001526  0.016657
  1H   1py       -0.011668 -0.003105 -0.012007  0.024405 -0.004517 -0.010052
  1H   2pz       -0.018367  0.002671 -0.149606 -0.270869  0.080484 -0.053643
  1H   2px        0.012326  0.047999  0.142375  0.250715 -0.137635  0.030394
  1H   2py        0.058749  0.026454  0.136291  0.242500 -0.123427  0.093192
  1H   1dz2       0.000493  0.001146 -0.000295 -0.002968 -0.006123  0.000997
  1H   1dxz       0.000269 -0.001209 -0.008694 -0.025913  0.008198  0.002310
  1H   1dyz      -0.002926  0.000274 -0.008275 -0.024063  0.004999 -0.011833
  1H   1dx2y2     0.001155 -0.000536 -0.000151 -0.000870  0.001505  0.006654
  1H   1dxy       0.002511  0.003213  0.007778  0.019524 -0.017869  0.006597
  2H   1s        -0.015267 -0.002079 -0.001817  0.000389  0.016020 -0.039718
  2H   2s        -0.255524 -0.034801 -0.030409  0.019102  0.786307 -1.949437
  2H   3s        -2.991801 -0.407465 -0.356040  0.006833  0.281264 -0.697317
  2H   1pz        0.015740 -0.006285 -0.001638 -0.003093  0.022523 -0.014149
  2H   1px       -0.013913 -0.009041  0.003825  0.011665  0.001784  0.024038
  2H   1py        0.013019  0.003056  0.010541  0.015345  0.003408 -0.021679
  2H   2pz       -0.150441  0.007379 -0.006295  0.010325  0.072636 -0.278106
  2H   2px        0.144400  0.043292 -0.000937 -0.030479 -0.129787  0.254856
  2H   2py       -0.141442 -0.023506 -0.046562 -0.033029  0.117581 -0.260402
  2H   1dz2       0.000216 -0.001172 -0.000475 -0.001419  0.006246  0.002505
  2H   1dxz       0.008677  0.000890 -0.001013 -0.008258 -0.007245  0.024967
  2H   1dyz      -0.008474  0.000472 -0.002255 -0.006045  0.004496 -0.026216
  2H   1dx2y2     0.000074  0.000492 -0.001182 -0.006729 -0.001293 -0.000588
  2H   1dxy       0.008058  0.003015  0.001758  0.001506 -0.017366  0.020980
  3H   1s         0.007553 -0.012670 -0.004807 -0.008463  0.031330  0.027949
  3H   2s         0.126419 -0.212067 -0.080464 -0.415357  1.537745  1.371775
  3H   3s         1.480171 -2.482980 -0.942108 -0.148574  0.550054  0.490686
  3H   1pz       -0.014882  0.007927  0.002375 -0.005212  0.026186  0.002042
  3H   1px       -0.003562  0.010752  0.012714  0.009733  0.013114  0.021221
  3H   1py        0.002668 -0.016736  0.001652  0.017277 -0.007923 -0.018863
  3H   2pz        0.097885 -0.107873 -0.038839 -0.054089  0.184046  0.214305
  3H   2px        0.060460 -0.117213 -0.073022 -0.089228  0.214782  0.169211
  3H   2py       -0.057503  0.136998  0.025524  0.025720 -0.226989 -0.174756
  3H   1dz2      -0.001118 -0.000553 -0.000300 -0.000414  0.004507 -0.005178
  3H   1dxz       0.005152 -0.005852 -0.004041 -0.012022  0.014834  0.019479
  3H   1dyz      -0.004948  0.007214  0.000772 -0.002280 -0.017583 -0.020728
  3H   1dx2y2    -0.000074 -0.000492  0.001182  0.006729  0.001293  0.000588
  3H   1dxy      -0.002373  0.007856  0.003125  0.005633 -0.024505 -0.010572
  4H   1s         0.004584  0.012238 -0.008362 -0.030179 -0.030252  0.002897
  4H   2s         0.076721  0.204826 -0.139960 -1.481237 -1.484812  0.142180
  4H   3s         0.898285  2.398200 -1.638715 -0.529842 -0.531120  0.050858
  4H   1pz        0.001405  0.007347 -0.015297  0.004035  0.025928 -0.005339
  4H   1px        0.012724  0.010171 -0.004958  0.018980  0.012856  0.013840
  4H   1py       -0.001317  0.016688 -0.003118  0.022473  0.006813 -0.012868
  4H   2pz       -0.034189 -0.103165  0.104473  0.227104  0.176198 -0.010157
  4H   2px       -0.071614 -0.112505  0.070290  0.191965  0.206934 -0.055252
  4H   2py       -0.025191 -0.134051  0.064206  0.183751  0.221143  0.007546
  4H   1dz2       0.000408  0.000578  0.001070  0.004802 -0.004630  0.001676
  4H   1dxz       0.003794  0.005533 -0.005666 -0.022148 -0.013881  0.007798
  4H   1dyz       0.000600  0.007016 -0.005247 -0.020298 -0.017080 -0.006345
  4H   1dx2y2    -0.001155  0.000536  0.000151  0.000870 -0.001505 -0.006654
  4H   1dxy       0.003175  0.007659 -0.002895 -0.012385 -0.024002  0.003811
                     12        13        14        15        16        17   
                   0.64346   0.64951   0.64951   0.64951   0.68537   0.68537
                   0.00000   0.00000   0.00000   0.00000   0.00000   0.00000
                  --------  --------  --------  --------  --------  --------
  0C   1s        -0.069966  0.000000  0.000000  0.000000 -0.000000  0.000000
  0C   2s         0.277794 -0.000000 -0.000000 -0.000000 -0.000000  0.000000
  0C   3s         0.143646 -0.000000 -0.000000 -0.000000  0.000000 -0.000000
  0C   4s        -7.430938  0.000000  0.000000  0.000000 -0.000000  0.000000
  0C   1pz       -0.000000 -0.192425  0.040098 -0.220046 -0.000000  0.000000
  0C   1px        0.000000 -0.000907  0.290130  0.053663  0.000000  0.000000
  0C   1py        0.000000 -0.223668 -0.035674  0.189092  0.000000 -0.000000
  0C   2pz        0.000000  0.377311 -0.078625  0.431471 -0.000000  0.000000
  0C   2px       -0.000000  0.001779 -0.568892 -0.105223  0.000000  0.000000
  0C   2py       -0.000000  0.438572  0.069950 -0.370775  0.000000 -0.000000
  0C   3pz        0.000000  1.747648 -0.364180  1.998506  0.000000 -0.000000
  0C   3px       -0.000000  0.008239 -2.635019 -0.487375 -0.000000 -0.000000
  0C   3py       -0.000000  2.031400  0.323998 -1.717372 -0.000000  0.000000
  0C   1dz2      -0.000000  0.000000  0.000000  0.000000  0.014403 -0.005426
  0C   1dxz      -0.000000  0.041417  0.006606 -0.035014 -0.000000 -0.000000
  0C   1dyz      -0.000000  0.000168 -0.053724 -0.009937 -0.000000 -0.000000
  0C   1dx2y2    -0.000000 -0.000000 -0.000000 -0.000000 -0.005426 -0.014403
  0C   1dxy       0.000000  0.035632 -0.007425  0.040746  0.000000 -0.000000
  0C   2dz2      -0.000000  0.000000  0.000000  0.000000  0.051036 -0.019228
  0C   2dxz      -0.000000  0.697149  0.111192 -0.589379  0.000000 -0.000000
  0C   2dyz      -0.000000  0.002828 -0.904303 -0.167261  0.000000  0.000000
  0C   2dx2y2    -0.000000 -0.000000 -0.000000 -0.000000 -0.019228 -0.051036
  0C   2dxy       0.000000  0.599769 -0.124982  0.685860  0.000000 -0.000000
  0C   1f0       -0.000000 -0.026315  0.005484 -0.030092 -0.000000  0.000000
  0C   1f+1      -0.000000  0.000076 -0.024297 -0.004494 -0.000000 -0.000000
  0C   1f-1      -0.000000  0.018731  0.002988 -0.015835  0.000000  0.000000
  0C   1f+2      -0.000000  0.000000  0.000000 -0.000000  0.000000  0.000000
  0C   1f-2      -0.114746  0.000000  0.000000  0.000000 -0.000000  0.000000
  0C   1f+3      -0.000000  0.000098 -0.031367 -0.005802 -0.000000 -0.000000
  0C   1f-3       0.000000 -0.024182 -0.003857  0.020444  0.000000 -0.000000
  1H   1s        -0.067402 -0.007720  0.051475  0.111135  0.000000 -0.000000
  1H   2s         0.842551  0.068900 -0.459391 -0.991832  0.000000 -0.000000
  1H   3s         1.342080  0.178545 -1.190440 -2.570174 -0.000000  0.000000
  1H   1pz       -0.001362  0.010479 -0.007250 -0.000206 -0.027214  0.010253
  1H   1px        0.001362 -0.000739 -0.009387  0.008588 -0.022486 -0.018442
  1H   1py        0.001362  0.010484  0.007027  0.001765 -0.004728  0.028695
  1H   2pz       -0.383891 -0.187260  0.346153  0.524729  0.352070 -0.132639
  1H   2px        0.383891  0.046892 -0.106392 -0.645531  0.290904  0.238582
  1H   2py        0.383891 -0.114843 -0.342941 -0.547203  0.061166 -0.371221
  1H   1dz2       0.000000  0.001560 -0.000857  0.000505 -0.002035  0.000767
  1H   1dxz      -0.023331 -0.012244  0.010485  0.035036  0.002083 -0.012639
  1H   1dyz      -0.023331 -0.001864  0.025666  0.028726  0.009905  0.008123
  1H   1dx2y2     0.000000  0.000988  0.001445 -0.000601  0.000767  0.002035
  1H   1dxy       0.023331 -0.007144 -0.010278 -0.036478  0.011987 -0.004516
  2H   1s        -0.067402 -0.099701 -0.068608 -0.020320 -0.000000 -0.000000
  2H   2s         0.842551  0.889789  0.612298  0.181343  0.000000 -0.000000
  2H   3s         1.342080  2.305746  1.586672  0.469922  0.000000 -0.000000
  2H   1pz        0.001362 -0.000436 -0.008991  0.009022  0.027214 -0.010253
  2H   1px       -0.001362  0.010176 -0.007646 -0.000639  0.022486  0.018442
  2H   1py        0.001362  0.001138 -0.005174 -0.011591 -0.004728  0.028695
  2H   2pz        0.383891  0.474360  0.451678 -0.034613 -0.352070  0.132639
  2H   2px       -0.383891 -0.614728 -0.211917 -0.086189 -0.290904 -0.238582
  2H   2py        0.383891  0.451676  0.396664  0.262440  0.061166 -0.371221
  2H   1dz2      -0.000000 -0.000415  0.001039 -0.001473 -0.002035  0.000767
  2H   1dxz      -0.023331 -0.033949 -0.017852  0.004016  0.002083 -0.012639
  2H   1dyz       0.023331  0.023485  0.029709  0.007295 -0.009905 -0.008123
  2H   1dx2y2    -0.000000  0.000996 -0.001128 -0.001076  0.000767  0.002035
  2H   1dxy      -0.023331 -0.032493 -0.014322 -0.015048 -0.011987  0.004516
  3H   1s        -0.067402  0.007285  0.087866 -0.085362 -0.000000 -0.000000
  3H   2s         0.842551 -0.065012 -0.784167  0.761822  0.000000 -0.000000
  3H   3s         1.342080 -0.168468 -2.032044  1.974142  0.000000 -0.000000
  3H   1pz        0.001362  0.010435  0.006908  0.002413  0.027214 -0.010253
  3H   1px        0.001362  0.000786 -0.005689 -0.011377 -0.022486 -0.018442
  3H   1py       -0.001362  0.010529 -0.007130 -0.000853  0.004728 -0.028695
  3H   2pz        0.383891 -0.184576 -0.512064  0.365992 -0.352070  0.132639
  3H   2px        0.383891 -0.045525 -0.330529  0.564718  0.290904  0.238582
  3H   2py       -0.383891 -0.117527  0.515276 -0.388467 -0.061166  0.371221
  3H   1dz2      -0.000000 -0.001556 -0.000629 -0.000780 -0.002035  0.000767
  3H   1dxz       0.023331 -0.012141 -0.022397  0.028954 -0.002083  0.012639
  3H   1dyz      -0.023331  0.001677  0.034253 -0.017643  0.009905  0.008123
  3H   1dx2y2     0.000000 -0.000996  0.001128  0.001076  0.000767  0.002035
  3H   1dxy      -0.023331 -0.007247  0.022603 -0.030397 -0.011987  0.004516
  4H   1s        -0.067402  0.100137 -0.070733 -0.005453  0.000000 -0.000000
  4H   2s         0.842551 -0.893677  0.631261  0.048666  0.000000 -0.000000
  4H   3s         1.342080 -2.315823  1.635812  0.126111 -0.000000  0.000000
  4H   1pz       -0.001362 -0.000480  0.005167  0.011640 -0.027214  0.010253
  4H   1px       -0.001362 -0.010129 -0.007430 -0.002150  0.022486  0.018442
  4H   1py       -0.001362  0.001094  0.008984 -0.008973  0.004728 -0.028695
  4H   2pz       -0.383891  0.477043 -0.406539 -0.193350  0.352070 -0.132639
  4H   2px       -0.383891  0.616095 -0.225004  0.005376 -0.290904 -0.238582
  4H   2py       -0.383891  0.454360 -0.461553  0.103703 -0.061166  0.371221
  4H   1dz2       0.000000  0.000410  0.000446  0.001748 -0.002035  0.000767
  4H   1dxz       0.023331 -0.034052  0.015029  0.010098 -0.002083  0.012639
  4H   1dyz       0.023331 -0.023672  0.030210  0.003787 -0.009905 -0.008123
  4H   1dx2y2    -0.000000 -0.000988 -0.001445  0.000601  0.000767  0.002035
  4H   1dxy       0.023331 -0.032596  0.018560 -0.008966  0.011987 -0.004516
                     18        19        20        21        22        23   
                   0.75910   1.07813   1.07813   1.07813   1.15847   1.15847
                   0.00000   0.00000   0.00000   0.00000   0.00000   0.00000
                  --------  --------  --------  --------  --------  --------
  0C   1s         0.002143  0.000000 -0.000000  0.000000  0.000000  0.000000
  0C   2s         0.066790  0.000000 -0.000000  0.000000  0.000000  0.000000
  0C   3s        -0.122464  0.000000  0.000000  0.000000  0.000000  0.000000
  0C   4s         6.085167 -0.000000  0.000000  0.000000 -0.000000  0.000000
  0C   1pz        0.000000  0.000000 -0.000000 -0.000000 -0.037148  0.091809
  0C   1px       -0.000000 -0.000000  0.000000 -0.000000 -0.061919 -0.077713
  0C   1py       -0.000000  0.000000  0.000000 -0.000000  0.097272 -0.014407
  0C   2pz        0.000000  0.000000 -0.000000  0.000000 -0.506343  1.251386
  0C   2px       -0.000000 -0.000000  0.000000 -0.000000 -0.843979 -1.059252
  0C   2py       -0.000000  0.000000 -0.000000 -0.000000  1.325843 -0.196370
  0C   3pz       -0.000000  0.000000 -0.000000 -0.000000 -0.541107  1.337303
  0C   3px        0.000000 -0.000000  0.000000 -0.000000 -0.901924 -1.131977
  0C   3py        0.000000  0.000000  0.000000 -0.000000  1.416871 -0.209852
  0C   1dz2       0.000000 -0.000000 -0.000000  0.000000  0.000000  0.000000
  0C   1dxz      -0.000000  0.000000  0.000000 -0.000000  0.019219 -0.002847
  0C   1dyz      -0.000000 -0.000000 -0.000000 -0.000000 -0.012234 -0.015355
  0C   1dx2y2     0.000000 -0.000000 -0.000000  0.000000 -0.000000 -0.000000
  0C   1dxy      -0.000000 -0.000000 -0.000000 -0.000000 -0.007340  0.018140
  0C   2dz2       0.000000 -0.000000 -0.000000  0.000000 -0.000000  0.000000
  0C   2dxz       0.000000  0.000000  0.000000 -0.000000  1.737203 -0.257297
  0C   2dyz       0.000000 -0.000000  0.000000 -0.000000 -1.105835 -1.387899
  0C   2dx2y2     0.000000 -0.000000 -0.000000  0.000000 -0.000000 -0.000000
  0C   2dxy      -0.000000  0.000000 -0.000000  0.000000 -0.663442  1.639645
  0C   1f0        0.000000  0.000000  0.000000  0.000000  0.040155 -0.099241
  0C   1f+1      -0.000000  0.051232  0.017387 -0.046058 -0.040987 -0.051442
  0C   1f-1      -0.000000 -0.046489 -0.004786 -0.053518  0.064388 -0.009537
  0C   1f+2       0.000000  0.020490 -0.086931 -0.010025 -0.000000 -0.000000
  0C   1f-2       0.129215 -0.000000 -0.000000 -0.000000 -0.000000 -0.000000
  0C   1f+3      -0.000000 -0.039684 -0.013468  0.035676 -0.052914 -0.066411
  0C   1f-3       0.000000 -0.036010 -0.003707 -0.041455 -0.083125  0.012312
  1H   1s        -0.042080 -0.000000 -0.000000  0.000000 -0.027506  0.069782
  1H   2s        -1.621070  0.000000  0.000000 -0.000000  1.232330 -3.126332
  1H   3s        -0.587349  0.000000  0.000000 -0.000000  0.090641 -0.229949
  1H   1pz        0.021576 -0.002153 -0.005721  0.045208 -0.021547  0.054233
  1H   1px       -0.021576  0.013752  0.033374  0.027896  0.004066 -0.051746
  1H   1py       -0.021576 -0.015905 -0.039095  0.017312  0.032156 -0.040575
  1H   2pz        0.093970  0.032632  0.086702 -0.685119 -0.082210  0.210624
  1H   2px       -0.093970 -0.208407 -0.505781 -0.422756  0.166199 -0.222574
  1H   2py       -0.093970  0.241039  0.592483 -0.262363  0.031238 -0.276245
  1H   1dz2      -0.000000 -0.001240 -0.003296  0.026043  0.003634 -0.008537
  1H   1dxz       0.017939  0.000190  0.000468 -0.000207 -0.001081  0.036947
  1H   1dyz       0.017939 -0.000164 -0.000399 -0.000334 -0.024514  0.027628
  1H   1dx2y2     0.000000 -0.009864 -0.024103 -0.003520 -0.025727 -0.010231
  1H   1dxy      -0.017939  0.000026  0.000068 -0.000541  0.009931 -0.025553
  2H   1s        -0.042080 -0.000000  0.000000 -0.000000 -0.046302 -0.058850
  2H   2s        -1.621070  0.000000 -0.000000  0.000000  2.074419  2.636570
  2H   3s        -0.587349  0.000000  0.000000 -0.000000  0.152578  0.193926
  2H   1pz       -0.021576 -0.044365 -0.010067 -0.003387  0.018681  0.048275
  2H   1px        0.021576 -0.028460  0.029028 -0.020699 -0.036162 -0.045788
  2H   1py       -0.021576  0.015905  0.039095 -0.017312  0.042400  0.029533
  2H   2pz       -0.093970  0.672355  0.152559  0.051330  0.222895  0.165435
  2H   2px        0.093970  0.431316 -0.439924  0.313693 -0.138907 -0.177385
  2H   2py       -0.093970 -0.241039 -0.592483  0.262363  0.108935  0.255484
  2H   1dz2       0.000000  0.025558  0.005799  0.001951 -0.021785  0.011226
  2H   1dxz       0.017939 -0.000190 -0.000468  0.000207 -0.011604 -0.035068
  2H   1dyz      -0.017939  0.000340 -0.000347  0.000248  0.016808  0.021508
  2H   1dx2y2    -0.000000 -0.004176  0.022658 -0.012642 -0.005713  0.014887
  2H   1dxy       0.017939  0.000531  0.000120  0.000041 -0.031391 -0.019433
  3H   1s        -0.042080  0.000000  0.000000  0.000000  0.074490 -0.010814
  3H   2s        -1.621070 -0.000000 -0.000000 -0.000000 -3.337276  0.484479
  3H   3s        -0.587349 -0.000000 -0.000000 -0.000000 -0.245465  0.035635
  3H   1pz       -0.021576  0.044365  0.010067  0.003387 -0.047154  0.022094
  3H   1px       -0.021576 -0.013752 -0.033374 -0.027896 -0.051525 -0.007819
  3H   1py        0.021576  0.030614 -0.023307 -0.024509  0.057763 -0.008436
  3H   2pz       -0.093970 -0.672355 -0.152559 -0.051330 -0.276428 -0.033133
  3H   2px       -0.093970  0.208407  0.505781  0.422756 -0.255427  0.110586
  3H   2py        0.093970 -0.463948  0.353221  0.371426  0.225456 -0.032488
  3H   1dz2       0.000000 -0.025558 -0.005799 -0.001951  0.007921  0.023039
  3H   1dxz      -0.017939 -0.000366  0.000279  0.000293 -0.027385  0.003933
  3H   1dyz       0.017939  0.000164  0.000399  0.000334  0.032589 -0.017494
  3H   1dx2y2     0.000000 -0.005608  0.018852  0.017429  0.005713 -0.014887
  3H   1dxy       0.017939 -0.000531 -0.000120 -0.000041  0.036235  0.007460
  4H   1s        -0.042080  0.000000  0.000000 -0.000000 -0.000681 -0.000118
  4H   2s        -1.621070 -0.000000  0.000000  0.000000  0.030527  0.005283
  4H   3s        -0.587349 -0.000000 -0.000000  0.000000  0.002245  0.000389
  4H   1pz        0.021576  0.002153  0.005721 -0.045208 -0.006926  0.016136
  4H   1px        0.021576  0.028460 -0.029028  0.020699 -0.011297 -0.013777
  4H   1py        0.021576 -0.030614  0.023307  0.024509  0.016792 -0.002606
  4H   2pz        0.093970 -0.032632 -0.086702  0.685119  0.028677 -0.078322
  4H   2px        0.093970 -0.431316  0.439924 -0.313693  0.049678  0.065397
  4H   2py        0.093970  0.463948 -0.353221 -0.371426 -0.085283  0.011727
  4H   1dz2      -0.000000  0.001240  0.003296 -0.026043  0.010231 -0.025728
  4H   1dxz      -0.017939  0.000366 -0.000279 -0.000293  0.014700 -0.002055
  4H   1dyz      -0.017939 -0.000340  0.000347 -0.000248 -0.008733 -0.011373
  4H   1dx2y2    -0.000000  0.019648 -0.017407 -0.001267  0.025727  0.010231
  4H   1dxy      -0.017939 -0.000026 -0.000068  0.000541 -0.005087  0.013580
                     24        25        26        27        28        29   
                   1.15847   1.32055   1.32055   1.32055   1.53731   1.53731
                   0.00000   0.00000   0.00000   0.00000   0.00000   0.00000
                  --------  --------  --------  --------  --------  --------
  0C   1s         0.000000  0.000000 -0.000000 -0.000000  0.000000 -0.000000
  0C   2s         0.000000  0.000000 -0.000000  0.000000 -0.000000 -0.000000
  0C   3s         0.000000 -0.000000  0.000000 -0.000000  0.000000  0.000000
  0C   4s        -0.000000  0.000000 -0.000000  0.000000 -0.000000 -0.000000
  0C   1pz       -0.069763  0.075782 -0.124799  0.021720  0.146216 -0.172855
  0C   1px       -0.069300  0.099523  0.074315  0.079762 -0.118171 -0.186013
  0C   1py       -0.070756  0.078369  0.026305 -0.122294  0.171767  0.019169
  0C   2pz       -0.950891  0.107731 -0.177413  0.030876  2.857980 -3.378681
  0C   2px       -0.944578  0.141480  0.105645  0.113389 -2.309819 -3.635885
  0C   2py       -0.964429  0.111409  0.037395 -0.173851  3.357412  0.374684
  0C   3pz       -1.016176  0.743998 -1.225225  0.213235  1.202961 -1.422130
  0C   3px       -1.009430  0.977073  0.729596  0.783070 -0.972232 -1.530391
  0C   3py       -1.030644  0.769399  0.258251 -1.200630  1.413178  0.157709
  0C   1dz2       0.000000  0.000000  0.000000  0.000000  0.000000 -0.000000
  0C   1dxz      -0.013980  0.018465  0.006198 -0.028814  0.075023  0.008372
  0C   1dyz      -0.013693  0.023449  0.017510  0.018793 -0.051614 -0.081245
  0C   1dx2y2    -0.000000 -0.000000 -0.000000 -0.000000 -0.000000 -0.000000
  0C   1dxy      -0.013784  0.017855 -0.029405  0.005117  0.063863 -0.075498
  0C   2dz2      -0.000000  0.000000 -0.000000  0.000000  0.000000 -0.000000
  0C   2dxz      -1.263655 -0.748562 -0.251257  1.168115  1.660479  0.185308
  0C   2dyz      -1.237645 -0.950612 -0.709837 -0.761863 -1.142370 -1.798204
  0C   2dx2y2    -0.000000  0.000000  0.000000  0.000000 -0.000000 -0.000000
  0C   2dxy      -1.245917 -0.723850  1.192044 -0.207460  1.413475 -1.670998
  0C   1f0        0.075410  0.050456 -0.083092  0.014461 -0.085288  0.100827
  0C   1f+1      -0.045872 -0.040577 -0.030300 -0.032521 -0.042211 -0.066444
  0C   1f-1      -0.046837 -0.031953 -0.010725  0.049862  0.061355  0.006847
  0C   1f+2       0.000000  0.000000  0.000000 -0.000000  0.000000 -0.000000
  0C   1f-2      -0.000000 -0.000000  0.000000 -0.000000 -0.000000 -0.000000
  0C   1f+3      -0.059221 -0.052385 -0.039117 -0.041984 -0.054494 -0.085779
  0C   1f-3       0.060466  0.041251  0.013846 -0.064371 -0.079209 -0.008840
  1H   1s         0.026669 -0.016875 -0.037253  0.010618 -0.004498  0.000292
  1H   2s        -1.194806 -0.218663 -0.482722  0.137591 -1.283675  0.083300
  1H   3s        -0.087881  0.323796  0.714816 -0.203745 -0.372680  0.024184
  1H   1pz        0.002225  0.068063  0.001677 -0.007524 -0.001852 -0.006991
  1H   1px       -0.026763  0.021109 -0.027356  0.059145  0.003073 -0.008630
  1H   1py       -0.027020  0.010349 -0.051778 -0.043635  0.015693  0.000301
  1H   2pz        0.169386 -0.889209  0.532430 -0.033419  0.473235 -0.033806
  1H   2px       -0.051490 -0.608467 -0.101134 -0.833566 -0.472703  0.027003
  1H   2py       -0.050255 -0.427749  0.309031  0.892649 -0.467206  0.030893
  1H   1dz2       0.026086  0.030019 -0.013574  0.000083 -0.003480  0.005155
  1H   1dxz       0.004515 -0.010336  0.016958  0.026291  0.002627 -0.003473
  1H   1dyz       0.004729 -0.016072  0.003941 -0.028493  0.034218  0.018882
  1H   1dx2y2     0.000235 -0.003338 -0.007577 -0.031888 -0.005051 -0.003574
  1H   1dxy      -0.025200 -0.031460  0.009747  0.000978 -0.037273  0.020218
  2H   1s         0.027020 -0.009028  0.028559  0.029802  0.021182  0.001570
  2H   2s        -1.210550 -0.116985  0.370061  0.386179  6.044897  0.448047
  2H   3s        -0.089039  0.173231 -0.547987 -0.571855  1.754972  0.130078
  2H   1pz       -0.027037  0.022757 -0.013530  0.063175 -0.032326 -0.010392
  2H   1px        0.002499  0.066415 -0.012149 -0.011554  0.033547 -0.005229
  2H   1py       -0.027212  0.024073  0.063332 -0.010080 -0.031214 -0.002033
  2H   2pz       -0.052550 -0.518074  0.657003 -0.612567  2.218206  0.160931
  2H   2px        0.170446 -0.979602 -0.225706 -0.254417 -2.217675 -0.167734
  2H   2py       -0.051708 -0.540177 -0.633917  0.617778  2.218691  0.164571
  2H   1dz2      -0.012883 -0.015737  0.018368 -0.022369  0.000025 -0.005541
  2H   1dxz       0.004712 -0.015410 -0.025600  0.013885 -0.119217 -0.009538
  2H   1dyz      -0.025328 -0.032822 -0.001681 -0.002354  0.113377  0.027716
  2H   1dx2y2     0.022634  0.028075  0.015880 -0.006712 -0.000934  0.002907
  2H   1dxy       0.004858 -0.014709  0.015369 -0.025161 -0.116433  0.011384
  3H   1s         0.025915 -0.016020  0.012690 -0.036981 -0.006980 -0.018359
  3H   2s        -1.161041 -0.207582  0.164439 -0.479202 -1.991931 -5.239430
  3H   3s        -0.085397  0.307387 -0.243501  0.709604 -0.578303 -1.521127
  3H   1pz       -0.026434  0.010529 -0.041285 -0.053635  0.019114  0.026011
  3H   1px       -0.026353  0.022605  0.059998 -0.024111  0.007606  0.025439
  3H   1py        0.001639  0.067884 -0.008816  0.002476 -0.005273 -0.032701
  3H   2pz       -0.047982 -0.417898  0.884366  0.344311 -0.727264 -1.923511
  3H   2px       -0.048375 -0.620719 -0.816719 -0.151559 -0.732276 -1.923760
  3H   2py        0.167113 -0.899060 -0.042905  0.514919  0.733292  1.920597
  3H   1dz2      -0.013154 -0.011883  0.027117  0.014453  0.005857 -0.001413
  3H   1dxz      -0.024924 -0.031608  0.001074  0.009243 -0.051832 -0.089199
  3H   1dyz       0.004308 -0.016625 -0.028356  0.002289  0.045993  0.107377
  3H   1dx2y2    -0.022634 -0.028075 -0.015880  0.006712  0.000934 -0.002907
  3H   1dxy       0.004239 -0.010188  0.025631  0.018026  0.017187  0.105944
  4H   1s        -0.079604  0.041922 -0.003996 -0.003439 -0.009704  0.016497
  4H   2s         3.566397  0.543229 -0.051778 -0.044568 -2.769291  4.708083
  4H   3s         0.262317 -0.804415  0.076673  0.065996 -0.803989  1.366864
  4H   1pz       -0.055697 -0.034777 -0.056492  0.017064 -0.011361  0.022610
  4H   1px       -0.055615 -0.022701  0.044791  0.046588 -0.022869  0.022038
  4H   1py       -0.055872 -0.033461  0.020370 -0.056191 -0.010248  0.030969
  4H   2pz       -0.269918 -0.046763  1.008938 -0.234837  1.017708 -1.728774
  4H   2px       -0.270311 -0.249584 -0.692146 -0.730707  1.012696 -1.729023
  4H   2py       -0.269076 -0.068866 -0.281982  0.995508  1.018192 -1.725133
  4H   1dz2      -0.000049 -0.002399 -0.031911  0.007833 -0.002402  0.001799
  4H   1dxz       0.034151  0.005862 -0.009716  0.030934 -0.064757  0.076188
  4H   1dyz       0.034365  0.000126 -0.022733 -0.023850 -0.033167  0.098543
  4H   1dx2y2    -0.000235  0.003338  0.007577  0.031888  0.005051  0.003574
  4H   1dxy       0.034297  0.006563  0.031253 -0.008113 -0.061973  0.097109
                     30        31        32        33        34        35   
                   1.53731   1.60115   1.60115   1.81494   2.42190   2.42190
                   0.00000   0.00000   0.00000   0.00000   0.00000   0.00000
                  --------  --------  --------  --------  --------  --------
  0C   1s        -0.000000  0.000000 -0.000000 -0.475289 -0.000000 -0.000000
  0C   2s         0.000000  0.000000 -0.000000 -1.589896 -0.000000 -0.000000
  0C   3s        -0.000000  0.000000 -0.000000 -0.900452 -0.000000 -0.000000
  0C   4s         0.000000 -0.000000  0.000000 -3.636205 -0.000000 -0.000000
  0C   1pz       -0.116574  0.000000 -0.000000 -0.000000  0.044492 -0.002149
  0C   1px        0.127600  0.000000  0.000000  0.000000 -0.007390 -0.061543
  0C   1py        0.187019 -0.000000  0.000000  0.000000 -0.042761  0.008400
  0C   2pz       -2.278595  0.000000 -0.000000 -0.000000 -1.380533  0.066682
  0C   2px        2.494115  0.000000  0.000000  0.000000  0.229296  1.909590
  0C   2py        3.655534 -0.000000  0.000000  0.000000  1.326824 -0.260625
  0C   3pz       -0.959090  0.000000 -0.000000 -0.000000 -0.191936  0.009271
  0C   3px        1.049805  0.000000  0.000000  0.000000  0.031879  0.265491
  0C   3py        1.538661 -0.000000  0.000000  0.000000  0.184469 -0.036235
  0C   1dz2      -0.000000  0.001177 -0.003141  0.000000  0.000000  0.000000
  0C   1dxz       0.081684  0.000000 -0.000000 -0.000000  0.238143 -0.046778
  0C   1dyz       0.055732 -0.000000 -0.000000 -0.000000  0.041155  0.342740
  0C   1dx2y2     0.000000  0.003141  0.001177  0.000000 -0.000000 -0.000000
  0C   1dxy      -0.050916  0.000000 -0.000000 -0.000000 -0.247783  0.011968
  0C   2dz2      -0.000000 -1.015427  2.710096 -0.000000  0.000000 -0.000000
  0C   2dxz       1.807922  0.000000 -0.000000  0.000000  0.413866 -0.081295
  0C   2dyz       1.233517 -0.000000 -0.000000  0.000000  0.071523  0.595645
  0C   2dx2y2     0.000000 -2.710096 -1.015427 -0.000000 -0.000000  0.000000
  0C   2dxy      -1.126927  0.000000 -0.000000 -0.000000 -0.430619  0.020800
  0C   1f0        0.067998 -0.000000  0.000000  0.000000  0.333270 -0.016098
  0C   1f+1       0.045579  0.000000 -0.000000  0.000000  0.033897  0.282296
  0C   1f-1       0.066803  0.000000 -0.000000  0.000000  0.196145 -0.038528
  0C   1f+2       0.000000 -0.000000 -0.000000 -0.000000  0.000000 -0.000000
  0C   1f-2       0.000000 -0.000000  0.000000  0.238502 -0.000000 -0.000000
  0C   1f+3       0.058842 -0.000000 -0.000000  0.000000  0.043761  0.364443
  0C   1f-3      -0.086243 -0.000000 -0.000000 -0.000000 -0.253223  0.049740
  1H   1s         0.020941 -0.000000  0.000000  0.181307 -0.876637 -0.472336
  1H   2s         5.976141 -0.000000  0.000000  0.817466  2.953464  1.591341
  1H   3s         1.735011 -0.000000  0.000000  0.653925 -0.399146 -0.215062
  1H   1pz        0.033177 -0.024429  0.065198  0.090323 -0.033386 -0.026594
  1H   1px       -0.032697  0.044249  0.053755 -0.090323  0.045608  0.005612
  1H   1py       -0.030110 -0.068678  0.011443 -0.090323  0.033956  0.028653
  1H   2pz       -2.192446  0.379227 -1.012128 -0.555130 -0.656980 -0.309148
  1H   2px        2.192655 -0.686915 -0.834484  0.555130  0.593296  0.418471
  1H   2py        2.193781  1.066142 -0.177644  0.555130  0.654009  0.298420
  1H   1dz2      -0.000819 -0.018482  0.049326 -0.000000  0.005600 -0.008283
  1H   1dxz      -0.119735  0.035831 -0.005970  0.029141 -0.080185  0.013340
  1H   1dyz      -0.113261 -0.023086 -0.028045  0.029141 -0.016569 -0.112452
  1H   1dx2y2    -0.001035 -0.049326 -0.018482  0.000000 -0.008834  0.017469
  1H   1dxy       0.112060  0.012745 -0.034016 -0.029141  0.083299 -0.002099
  2H   1s        -0.002776  0.000000 -0.000000  0.181307  0.084481  0.627938
  2H   2s        -0.792146  0.000000 -0.000000  0.817466 -0.284625 -2.115576
  2H   3s        -0.229978  0.000000 -0.000000  0.653925  0.038466  0.285910
  2H   1pz       -0.000004  0.024429 -0.065198 -0.090323  0.010027 -0.035121
  2H   1px        0.000484 -0.044249 -0.053755  0.090323  0.002195  0.014139
  2H   1py        0.013211 -0.068678  0.011443 -0.090323 -0.018717 -0.031646
  2H   2pz       -0.292529 -0.379227  1.012128  0.555130 -0.132321 -0.412206
  2H   2px        0.292738  0.686915  0.834484 -0.555130  0.068638  0.521529
  2H   2py       -0.286774  1.066142 -0.177644  0.555130  0.017443 -0.430312
  2H   1dz2      -0.002943 -0.018482  0.049326  0.000000 -0.017932  0.010705
  2H   1dxz      -0.007206  0.035831 -0.005970  0.029141 -0.076591  0.017455
  2H   1dyz      -0.027073  0.023086  0.028045 -0.029141 -0.013607 -0.113034
  2H   1dx2y2    -0.005481 -0.049326 -0.018482 -0.000000 -0.012526 -0.013273
  2H   1dxy       0.025871 -0.012745  0.034016  0.029141  0.080336 -0.001517
  3H   1s        -0.008547  0.000000 -0.000000  0.181307  0.739740 -0.667749
  3H   2s        -2.439181  0.000000 -0.000000  0.817466 -2.492247  2.249704
  3H   3s        -0.708150  0.000000 -0.000000  0.653925  0.336815 -0.304036
  3H   1pz        0.010538  0.024429 -0.065198 -0.090323 -0.025883  0.035887
  3H   1px        0.021166  0.044249  0.053755 -0.090323 -0.042975  0.016321
  3H   1py       -0.007472  0.068678 -0.011443  0.090323  0.026454 -0.033828
  3H   2pz       -0.896162 -0.379227  1.012128  0.555130 -0.566311  0.445951
  3H   2px       -0.891533 -0.686915 -0.834484  0.555130 -0.477259  0.547896
  3H   2py        0.897497 -1.066142  0.177644 -0.555130  0.563340 -0.456679
  3H   1dz2      -0.001747 -0.018482  0.049326  0.000000 -0.007731 -0.009466
  3H   1dxz      -0.060930 -0.035831  0.005970 -0.029141 -0.079673  0.017604
  3H   1dyz       0.026651 -0.023086 -0.028045  0.029141 -0.010524 -0.113183
  3H   1dx2y2     0.005481 -0.049326 -0.018482  0.000000  0.012526  0.013273
  3H   1dxy       0.053255 -0.012745  0.034016  0.029141  0.082787 -0.006362
  4H   1s        -0.009618 -0.000000  0.000000  0.181307  0.052415  0.512148
  4H   2s        -2.744814 -0.000000  0.000000  0.817466 -0.176592 -1.725469
  4H   3s        -0.796882 -0.000000  0.000000  0.653925  0.023866  0.233188
  4H   1pz       -0.022643 -0.024429  0.065198  0.090323  0.017529  0.027360
  4H   1px       -0.012014 -0.044249 -0.053755  0.090323  0.000438  0.007794
  4H   1py       -0.009428  0.068678 -0.011443  0.090323 -0.011214  0.030834
  4H   2pz        1.003755  0.379227 -1.012128 -0.555130 -0.041652  0.342893
  4H   2px        1.008384  0.686915  0.834484 -0.555130  0.047400  0.444839
  4H   2py        1.009511 -1.066142  0.177644 -0.555130  0.108113  0.324787
  4H   1dz2       0.005509 -0.018482  0.049326 -0.000000  0.020063  0.007043
  4H   1dxz      -0.066012 -0.035831  0.005970 -0.029141 -0.077103  0.013191
  4H   1dyz      -0.059538  0.023086  0.028045 -0.029141 -0.013487 -0.112601
  4H   1dx2y2     0.001035 -0.049326 -0.018482 -0.000000  0.008834 -0.017469
  4H   1dxy      -0.032934  0.012745 -0.034016 -0.029141  0.079824 -0.005780
                     36        37        38        39        40        41   
                   2.42190   2.56346   2.99228   2.99228   2.99228   3.13530
                   0.00000   0.00000   0.00000   0.00000   0.00000   0.00000
                  --------  --------  --------  --------  --------  --------
  0C   1s         0.000000  0.498307 -0.000000 -0.000000  0.000000 -0.000000
  0C   2s         0.000000  1.524158 -0.000000 -0.000000  0.000000 -0.000000
  0C   3s        -0.000000  0.816111 -0.000000 -0.000000  0.000000 -0.000000
  0C   4s         0.000000  6.482417 -0.000000  0.000000  0.000000 -0.000000
  0C   1pz       -0.043342 -0.000000  0.600298  0.283633 -0.789395  0.000000
  0C   1px       -0.004534  0.000000  0.125230 -0.990147 -0.260533  0.000000
  0C   1py       -0.044313  0.000000 -0.829404  0.055785 -0.610679  0.000000
  0C   2pz        1.344839  0.000000 -2.853906 -1.348435  3.752901 -0.000000
  0C   2px        0.140697  0.000000 -0.595362  4.707304  1.238611  0.000000
  0C   2py        1.374962  0.000000  3.943106 -0.265212  2.903257 -0.000000
  0C   3pz        0.186973  0.000000 -0.803184 -0.379494  1.056192 -0.000000
  0C   3px        0.019561  0.000000 -0.167555  1.324792  0.348586 -0.000000
  0C   3py        0.191161  0.000000  1.109722 -0.074639  0.817073  0.000000
  0C   1dz2      -0.000000  0.000000 -0.000000 -0.000000  0.000000  0.290841
  0C   1dxz       0.246783  0.000000 -0.196562  0.013221 -0.144726 -0.000000
  0C   1dyz       0.025253  0.000000  0.029678 -0.234657 -0.061744  0.000000
  0C   1dx2y2    -0.000000  0.000000 -0.000000  0.000000  0.000000  0.772740
  0C   1dxy       0.241376 -0.000000  0.142266  0.067219 -0.187080  0.000000
  0C   2dz2      -0.000000  0.000000  0.000000  0.000000 -0.000000 -0.518645
  0C   2dxz       0.428882  0.000000  1.676327 -0.112749  1.234258  0.000000
  0C   2dyz       0.043887  0.000000 -0.253105  2.001210  0.526569 -0.000000
  0C   2dx2y2    -0.000000  0.000000  0.000000 -0.000000 -0.000000 -1.377999
  0C   2dxy       0.419486 -0.000000 -1.213277 -0.573258  1.595466 -0.000000
  0C   1f0       -0.324653  0.000000  0.108276  0.051159 -0.142383  0.000000
  0C   1f+1       0.020799  0.000000 -0.013832  0.109365  0.028777  0.000000
  0C   1f-1       0.203262  0.000000  0.091610 -0.006162  0.067452 -0.000000
  0C   1f+2       0.000000  0.000000 -0.000000  0.000000 -0.000000 -0.000000
  0C   1f-2       0.000000  0.685631  0.000000  0.000000 -0.000000 -0.000000
  0C   1f+3       0.026852  0.000000 -0.017857  0.141190  0.037151 -0.000000
  0C   1f-3      -0.262410 -0.000000 -0.118269  0.007955 -0.087080 -0.000000
  1H   1s        -0.050993  0.481480 -0.277436 -0.259044 -0.017401 -0.000000
  1H   2s         0.171798 -2.397038  3.988362  3.723963  0.250150  0.000000
  1H   3s        -0.023218 -0.663278  0.289396  0.270211  0.018151  0.000000
  1H   1pz       -0.017073  0.045746 -0.168107 -0.126908  0.079232  0.061370
  1H   1px        0.001301 -0.045746  0.089351  0.203601  0.034738 -0.110524
  1H   1py       -0.011803 -0.045746  0.192976  0.090064  0.072746  0.171894
  1H   2pz        0.040620  0.456671 -0.828866 -0.852680 -0.287260  0.110316
  1H   2px        0.041556 -0.456671  1.035260  0.651695 -0.011418 -0.198674
  1H   2py        0.109833 -0.456671  0.763691  0.949236 -0.111025  0.308990
  1H   1dz2      -0.019543 -0.000000  0.012836 -0.009492 -0.063349 -0.086669
  1H   1dxz      -0.079888  0.019597 -0.047457 -0.165164  0.078348 -0.013713
  1H   1dyz      -0.008346  0.019597 -0.186423 -0.012907  0.027377  0.008817
  1H   1dx2y2    -0.009935  0.000000 -0.042753  0.046842 -0.015681 -0.230272
  1H   1dxy      -0.077761 -0.019597  0.080808  0.115755  0.125462 -0.004896
  2H   1s        -0.769903  0.481480 -0.075360  0.282773 -0.242359  0.000000
  2H   2s         2.593869 -2.397038  1.083363 -4.065085  3.484094 -0.000000
  2H   3s        -0.350548 -0.663278  0.078609 -0.294963  0.252806 -0.000000
  2H   1pz        0.027915 -0.045746 -0.037200 -0.135713  0.175618 -0.061370
  2H   1px       -0.043687  0.045746 -0.041557  0.212405 -0.061648  0.110524
  2H   1py        0.027596 -0.045746  0.117995 -0.110980  0.156218  0.171894
  2H   2pz        0.584314 -0.456671  0.442302 -0.938179  0.648684 -0.110316
  2H   2px       -0.502138  0.456671 -0.235907  0.737194 -0.947362  0.198674
  2H   2py        0.585980 -0.456671  0.035588 -1.002995  0.699524  0.308990
  2H   1dz2       0.006764  0.000000 -0.055727  0.012377  0.031769 -0.086669
  2H   1dxz      -0.082577  0.019597  0.075050  0.163308 -0.058031 -0.013713
  2H   1dyz      -0.005276 -0.019597  0.027457 -0.027293  0.184854 -0.008817
  2H   1dx2y2    -0.012200 -0.000000 -0.031536 -0.041845 -0.039017 -0.230272
  2H   1dxy      -0.080830  0.019597 -0.133072  0.130140 -0.032015  0.004896
  3H   1s        -0.033008  0.481480  0.330704 -0.162126 -0.093420 -0.000000
  3H   2s         0.111206 -2.397038 -4.754132  2.330693  1.342984 -0.000000
  3H   3s        -0.015029 -0.663278 -0.344960  0.169115  0.097447 -0.000000
  3H   1pz       -0.012469 -0.045746 -0.187872  0.029370  0.120353 -0.061370
  3H   1px        0.000315 -0.045746 -0.136304  0.167639  0.062945 -0.110524
  3H   1py       -0.016407  0.045746  0.212742 -0.066213  0.031625 -0.171894
[...]
   45. RY (11) H  2             0.00004
   46. RY (12) H  2             0.00004
   47. RY (13) H  2             0.00002
   48. RY ( 1) H  3             0.00117
   49. RY ( 2) H  3             0.00057
   50. RY ( 3) H  3             0.00057
   51. RY ( 4) H  3             0.00018
   52. RY ( 5) H  3             0.00008
   53. RY ( 6) H  3             0.00008
   54. RY ( 7) H  3             0.00008
   55. RY ( 8) H  3             0.00004
   56. RY ( 9) H  3             0.00004
   57. RY (10) H  3             0.00004
   58. RY (11) H  3             0.00004
   59. RY (12) H  3             0.00004
   60. RY (13) H  3             0.00002
   61. RY ( 1) H  4             0.00117
   62. RY ( 2) H  4             0.00057
   63. RY ( 3) H  4             0.00057
   64. RY ( 4) H  4             0.00018
   65. RY ( 5) H  4             0.00008
   66. RY ( 6) H  4             0.00008
   67. RY ( 7) H  4             0.00008
   68. RY ( 8) H  4             0.00004
   69. RY ( 9) H  4             0.00004
   70. RY (10) H  4             0.00004
   71. RY (11) H  4             0.00004
   72. RY (12) H  4             0.00004
   73. RY (13) H  4             0.00002
   74. RY ( 1) H  5             0.00117
   75. RY ( 2) H  5             0.00057
   76. RY ( 3) H  5             0.00057
   77. RY ( 4) H  5             0.00018
   78. RY ( 5) H  5             0.00008
   79. RY ( 6) H  5             0.00008
   80. RY ( 7) H  5             0.00008
   81. RY ( 8) H  5             0.00004
   82. RY ( 9) H  5             0.00004
   83. RY (10) H  5             0.00004
   84. RY (11) H  5             0.00004
   85. RY (12) H  5             0.00004
   86. RY (13) H  5             0.00002
          -------------------------------
                 Total Lewis    4.93796  ( 98.7591%)
           Valence non-Lewis    0.02756  (  0.5512%)
           Rydberg non-Lewis    0.03448  (  0.6897%)
          -------------------------------
               Total unit  1    5.00000  (100.0000%)
              Charge unit  1    0.00000

 $CHOOSE
  ALPHA
   BOND S 1 2 S 1 3 S 1 4 S 1 5 END
  END
  BETA
   BOND S 1 2 S 1 3 S 1 4 S 1 5 END
  END
 $END

 NBO analysis completed in 0.15 CPU seconds (0 wall seconds)
 Maximum scratch memory used by NBO was 457469 words (3.49 MB)
Stopping NBO...Storing NBOs: methane.pmp2re.nbo

                                *** returned from   NBO  program ***


----------------------------------
MP2 DERIVATIVE INTEGRAL GENERATION
----------------------------------


Input Wavefunction Amplitudes       ... methane.mp2tbb.tmp
Input Correlated Electron Density   ... methane.pmp2re
Input Energy Weighted Density       ... methane.wmp2.tmp
Input SCF Electron Density          ... methane.scfp

One-Electron Terms    ...
                        ... One-Electron Terms done
Prescreening matrices              ... done

Batch handling in the gradient evaluation:
Memory available                      ... 3000.0 MB
Memory per occupied orbital in Q2     ...    0.6 MB
Memory per occupied orbital in Q3     ...    0.0 MB
Total memory requirement per |i>      ...    0.6 MB
Max. Number of orbitals possible      ...   5030
Number of orbitals treated per batch  ...     10
Number of batches to be done          ...      1
Batch   0: i=    0 ...     9

---------------------------------------
MP2 TOTAL ENERGY:      -40.427993178 Eh
---------------------------------------

-----------------------------------
NORM OF THE MP2 GRADIENT:  0.000000
-----------------------------------

-------------------------   --------------------
FINAL SINGLE POINT ENERGY       -40.427993177860
-------------------------   --------------------

                                *** OPTIMIZATION RUN DONE ***

                            ***************************************
                            *     ORCA property calculations      *
                            ***************************************

                                    ---------------------
                                    Active property flags
                                    ---------------------
   (+) Dipole Moment


------------------------------------------------------------------------------
                       ORCA ELECTRIC PROPERTIES CALCULATION
------------------------------------------------------------------------------

Dipole Moment Calculation                       ... on
Quadrupole Moment Calculation                   ... off
Polarizability Calculation                      ... off
GBWName                                         ... methane.gbw
Electron density file                           ... methane.scfp
The origin for moment calculation is the CENTER OF MASS  = (-0.000000,  0.000000 -0.000000)

-------------
DIPOLE MOMENT
-------------
                                X             Y             Z
Electronic contribution:     -0.00000       0.00000      -0.00000
Nuclear contribution   :      0.00000      -0.00000       0.00000
                        -----------------------------------------
Total Dipole Moment    :      0.00000       0.00000       0.00000
                        -----------------------------------------
Magnitude (a.u.)       :      0.00000
Magnitude (Debye)      :      0.00000



--------------------
Rotational spectrum 
--------------------
 
Rotational constants in cm-1:     5.352542     5.352542     5.352542 
Rotational constants in MHz : 160465.185837 160465.185833 160465.185823 

 Dipole components along the rotational axes: 
x,y,z [a.u.] :     0.000000    -0.000000     0.000000 
x,y,z [Debye]:     0.000000    -0.000000     0.000000 

 

                         *** MP2 UNRELAXED DENSITY ***

------------------------------------------------------------------------------
                       ORCA ELECTRIC PROPERTIES CALCULATION
------------------------------------------------------------------------------

Dipole Moment Calculation                       ... on
Quadrupole Moment Calculation                   ... off
Polarizability Calculation                      ... off
GBWName                                         ... methane.gbw
Electron density file                           ... methane.pmp2ur
The origin for moment calculation is the CENTER OF MASS  = (-0.000000,  0.000000 -0.000000)

-------------
DIPOLE MOMENT
-------------
                                X             Y             Z
Electronic contribution:     -0.00000       0.00000      -0.00000
Nuclear contribution   :      0.00000      -0.00000       0.00000
                        -----------------------------------------
Total Dipole Moment    :      0.00000       0.00000       0.00000
                        -----------------------------------------
Magnitude (a.u.)       :      0.00000
Magnitude (Debye)      :      0.00000



--------------------
Rotational spectrum 
--------------------
 
Rotational constants in cm-1:     5.352542     5.352542     5.352542 
Rotational constants in MHz : 160465.185837 160465.185833 160465.185823 

 Dipole components along the rotational axes: 
x,y,z [a.u.] :     0.000000    -0.000000     0.000000 
x,y,z [Debye]:     0.000000    -0.000000     0.000000 

 

                           *** MP2 RELAXED DENSITY ***

------------------------------------------------------------------------------
                       ORCA ELECTRIC PROPERTIES CALCULATION
------------------------------------------------------------------------------

Dipole Moment Calculation                       ... on
Quadrupole Moment Calculation                   ... off
Polarizability Calculation                      ... off
GBWName                                         ... methane.gbw
Electron density file                           ... methane.pmp2re
The origin for moment calculation is the CENTER OF MASS  = (-0.000000,  0.000000 -0.000000)

-------------
DIPOLE MOMENT
-------------
                                X             Y             Z
Electronic contribution:     -0.00000       0.00000      -0.00000
Nuclear contribution   :      0.00000      -0.00000       0.00000
                        -----------------------------------------
Total Dipole Moment    :      0.00000       0.00000       0.00000
                        -----------------------------------------
Magnitude (a.u.)       :      0.00000
Magnitude (Debye)      :      0.00000



--------------------
Rotational spectrum 
--------------------
 
Rotational constants in cm-1:     5.352542     5.352542     5.352542 
Rotational constants in MHz : 160465.185837 160465.185833 160465.185823 

 Dipole components along the rotational axes: 
x,y,z [a.u.] :     0.000000    -0.000000     0.000000 
x,y,z [Debye]:     0.000000    -0.000000     0.000000 

 
------------------------------------------------------------------------------
                         ORCA MP2 H E S S I A N CALCULATION
------------------------------------------------------------------------------

Calculating analytic MP2 second derivatives ... (>methane.last_mp2) done

-----------------------
VIBRATIONAL FREQUENCIES
-----------------------

Scaling factor for frequencies =  1.000000000  (already applied!)

   0:         0.00 cm**-1
   1:         0.00 cm**-1
   2:         0.00 cm**-1
   3:         0.00 cm**-1
   4:         0.00 cm**-1
   5:         0.00 cm**-1
   6:      1358.04 cm**-1
   7:      1358.04 cm**-1
   8:      1358.04 cm**-1
   9:      1599.64 cm**-1
  10:      1599.64 cm**-1
  11:      3092.99 cm**-1
  12:      3215.21 cm**-1
  13:      3215.21 cm**-1
  14:      3215.21 cm**-1


------------
NORMAL MODES
------------

These modes are the Cartesian displacements weighted by the diagonal matrix
M(i,i)=1/sqrt(m[i]) where m[i] is the mass of the displaced atom
Thus, these vectors are normalized but *not* orthogonal

                  0          1          2          3          4          5    
      0       0.000000   0.000000   0.000000   0.000000   0.000000   0.000000
      1       0.000000   0.000000   0.000000   0.000000   0.000000   0.000000
      2       0.000000   0.000000   0.000000   0.000000   0.000000   0.000000
      3       0.000000   0.000000   0.000000   0.000000   0.000000   0.000000
      4       0.000000   0.000000   0.000000   0.000000   0.000000   0.000000
      5       0.000000   0.000000   0.000000   0.000000   0.000000   0.000000
      6       0.000000   0.000000   0.000000   0.000000   0.000000   0.000000
      7       0.000000   0.000000   0.000000   0.000000   0.000000   0.000000
      8       0.000000   0.000000   0.000000   0.000000   0.000000   0.000000
      9       0.000000   0.000000   0.000000   0.000000   0.000000   0.000000
     10       0.000000   0.000000   0.000000   0.000000   0.000000   0.000000
     11       0.000000   0.000000   0.000000   0.000000   0.000000   0.000000
     12       0.000000   0.000000   0.000000   0.000000   0.000000   0.000000
     13       0.000000   0.000000   0.000000   0.000000   0.000000   0.000000
     14       0.000000   0.000000   0.000000   0.000000   0.000000   0.000000
                  6          7          8          9         10         11    
      0       0.075597  -0.067822  -0.072758  -0.000000  -0.000000  -0.000000
      1       0.065778   0.102639  -0.027332   0.000000  -0.000000  -0.000000
      2       0.074612  -0.021769   0.097815  -0.000000   0.000000   0.000000
      3      -0.241596   0.432997  -0.015589   0.291218  -0.286110  -0.288675
      4      -0.194118  -0.391250  -0.235244  -0.393387  -0.109147  -0.288675
      5      -0.484719   0.000213  -0.105570  -0.102169  -0.395257   0.288675
      6      -0.485826   0.051905   0.085891  -0.291218   0.286110   0.288675
      7      -0.197777  -0.220257   0.398081  -0.393387  -0.109147  -0.288675
      8      -0.240490   0.381304  -0.207050   0.102169   0.395257  -0.288675
      9      -0.208798  -0.028922   0.449071   0.291218  -0.286110  -0.288675
     10      -0.474804  -0.139430   0.034902   0.393387   0.109147   0.288675
     11      -0.204033  -0.251607  -0.375716   0.102169   0.395257  -0.288675
     12       0.035431   0.352169   0.347591  -0.291218   0.286110   0.288675
     13       0.082909  -0.472077   0.127936   0.393387   0.109147   0.288675
     14       0.040196   0.129484  -0.477196  -0.102169  -0.395257   0.288675
                  12         13         14    
      0       0.032374  -0.085001   0.014128
      1      -0.076400  -0.021336   0.046698
      2       0.039848   0.028150   0.078055
      3       0.274663   0.411189   0.058015
      4       0.251449   0.424776   0.064966
      5      -0.259250  -0.423322  -0.038342
      6      -0.213123   0.274964   0.356168
      7       0.203728  -0.297657  -0.343187
      8       0.228536  -0.287096  -0.336495
      9      -0.467542   0.095235  -0.142186
     10       0.458146  -0.117928   0.155167
     11      -0.465947   0.119383  -0.128543
     12       0.020244   0.231460  -0.440339
     13      -0.002969   0.245047  -0.433388
     14       0.021839   0.255608  -0.426696


-----------
IR SPECTRUM
-----------

 Mode    freq (cm**-1)   T**2         TX         TY         TZ
-------------------------------------------------------------------
   6:      1358.04   12.507658  ( -2.139989  -1.862035  -2.112091)
   7:      1358.04   12.507658  (  1.919906  -2.905490   0.616236)
   8:      1358.04   12.507658  (  2.059628   0.773699  -2.768932)
   9:      1599.64    0.000000  ( -0.000000  -0.000000   0.000000)
  10:      1599.64    0.000000  (  0.000000   0.000000  -0.000000)
  11:      3092.99    0.000000  ( -0.000000  -0.000000   0.000000)
  12:      3215.21   15.933100  (  1.403881  -3.313036   1.728006)
  13:      3215.21   15.933100  ( -3.686039  -0.925242   1.220714)
  14:      3215.21   15.933100  (  0.612644   2.025047   3.384812)

The first frequency considered to be a vibration is 6
The total number of vibrations considered is 9


--------------------------
THERMOCHEMISTRY AT 298.15K
--------------------------

Temperature         ... 298.15 K
Pressure            ... 1.00 atm
Total Mass          ... 16.04 AMU

Throughout the following assumptions are being made:
  (1) The electronic state is orbitally nondegenerate
  (2) There are no thermally accessible electronically excited states
  (3) Hindered rotations indicated by low frequency modes are not
      treated as such but are treated as vibrations and this may
      cause some error
  (4) All equations used are the standard statistical mechanics
      equations for an ideal gas
  (5) All vibrations are strictly harmonic

freq.    1358.04  E(vib)   ...       0.01 
freq.    1358.04  E(vib)   ...       0.01 
freq.    1358.04  E(vib)   ...       0.01 
freq.    1599.64  E(vib)   ...       0.00 
freq.    1599.64  E(vib)   ...       0.00 
freq.    3092.99  E(vib)   ...       0.00 
freq.    3215.21  E(vib)   ...       0.00 
freq.    3215.21  E(vib)   ...       0.00 
freq.    3215.21  E(vib)   ...       0.00 

------------
INNER ENERGY
------------

The inner energy is: U= E(el) + E(ZPE) + E(vib) + E(rot) + E(trans)
    E(el)   - is the total energy from the electronic structure calculation
              = E(kin-el) + E(nuc-el) + E(el-el) + E(nuc-nuc)
    E(ZPE)  - the the zero temperature vibrational energy from the frequency calculation
    E(vib)  - the the finite temperature correction to E(ZPE) due to population
              of excited vibrational states
    E(rot)  - is the rotational thermal energy
    E(trans)- is the translational thermal energy

Summary of contributions to the inner energy U:
Electronic energy                ...    -40.42799318 Eh
Zero point energy                ...      0.04559077 Eh      28.61 kcal/mol
Thermal vibrational correction   ...      0.00003299 Eh       0.02 kcal/mol
Thermal rotational correction    ...      0.00141627 Eh       0.89 kcal/mol
Thermal translational correction ...      0.00141627 Eh       0.89 kcal/mol
-----------------------------------------------------------------------
Total thermal energy                    -40.37953688 Eh


Summary of corrections to the electronic energy:
(perhaps to be used in another calculation)
Total thermal correction                  0.00286553 Eh       1.80 kcal/mol
Non-thermal (ZPE) correction              0.04559077 Eh      28.61 kcal/mol
-----------------------------------------------------------------------
Total correction                          0.04845630 Eh      30.41 kcal/mol


--------
ENTHALPY
--------

The enthalpy is H = U + kB*T
                kB is Boltzmann's constant
Total free energy                 ...    -40.37953688 Eh 
Thermal Enthalpy correction       ...      0.00094421 Eh       0.59 kcal/mol
-----------------------------------------------------------------------
Total Enthalpy                    ...    -40.37859267 Eh


Note: Rotational entropy computed according to Herzberg 
Infrared and Raman Spectra, Chapter V,1, Van Nostrand Reinhold, 1945 
Point Group:  Td, Symmetry Number:  12  
Rotational constants in cm-1:     5.352542     5.352542     5.352542 

Vibrational entropy computed according to the QRRHO of S. Grimme
Chem.Eur.J. 2012 18 9955


-------
ENTROPY
-------

The entropy contributions are T*S = T*(S(el)+S(vib)+S(rot)+S(trans))
     S(el)   - electronic entropy
     S(vib)  - vibrational entropy
     S(rot)  - rotational entropy
     S(trans)- translational entropy
The entropies will be listed as mutliplied by the temperature to get
units of energy

Electronic entropy                ...      0.00000000 Eh      0.00 kcal/mol
Vibrational entropy               ...      0.00003788 Eh      0.02 kcal/mol
Rotational entropy                ...      0.00478871 Eh      3.00 kcal/mol
Translational entropy             ...      0.01627961 Eh     10.22 kcal/mol
-----------------------------------------------------------------------
Final entropy term                ...      0.02110620 Eh     13.24 kcal/mol

In case the symmetry of your molecule has not been determined correctly
or in case you have a reason to use a different symmetry number we print 
out the resulting rotational entropy values for sn=1,12 :
 --------------------------------------------------------
|  sn= 1 | S(rot)=       0.00713491 Eh      4.48 kcal/mol|
|  sn= 2 | S(rot)=       0.00648046 Eh      4.07 kcal/mol|
|  sn= 3 | S(rot)=       0.00609762 Eh      3.83 kcal/mol|
|  sn= 4 | S(rot)=       0.00582600 Eh      3.66 kcal/mol|
|  sn= 5 | S(rot)=       0.00561531 Eh      3.52 kcal/mol|
|  sn= 6 | S(rot)=       0.00544317 Eh      3.42 kcal/mol|
|  sn= 7 | S(rot)=       0.00529762 Eh      3.32 kcal/mol|
|  sn= 8 | S(rot)=       0.00517154 Eh      3.25 kcal/mol|
|  sn= 9 | S(rot)=       0.00506034 Eh      3.18 kcal/mol|
|  sn=10 | S(rot)=       0.00496086 Eh      3.11 kcal/mol|
|  sn=11 | S(rot)=       0.00487087 Eh      3.06 kcal/mol|
|  sn=12 | S(rot)=       0.00478871 Eh      3.00 kcal/mol|
 --------------------------------------------------------


-------------------
GIBBS FREE ENERGY
-------------------

The Gibbs free energy is G = H - T*S

Total enthalpy                    ...    -40.37859267 Eh 
Total entropy correction          ...     -0.02110620 Eh    -13.24 kcal/mol
-----------------------------------------------------------------------
Final Gibbs free energy         ...    -40.39969887 Eh

For completeness - the Gibbs free energy minus the electronic energy
G-E(el)                           ...      0.02829431 Eh     17.75 kcal/mol


Timings for individual modules:

Sum of individual times         ...      215.211 sec (=   3.587 min)
GTO integral calculation        ...        2.123 sec (=   0.035 min)   1.0 %
SCF iterations                  ...        7.175 sec (=   0.120 min)   3.3 %
MP2 module                      ...       12.616 sec (=   0.210 min)   5.9 %
Geometry relaxation             ...        0.060 sec (=   0.001 min)   0.0 %
Analytical frequency calculation...      193.236 sec (=   3.221 min)  89.8 %
                             ****ORCA TERMINATED NORMALLY****
TOTAL RUN TIME: 0 days 0 hours 3 minutes 36 seconds 171 msec
