
                                 *****************
                                 * O   R   C   A *
                                 *****************

           --- An Ab Initio, DFT and Semiempirical electronic structure package ---

                  #######################################################
                  #                        -***-                        #
                  #          Department of theory and spectroscopy      #
                  #               Directorship: Frank Neese             #
                  #        Max Planck Institute fuer Kohlenforschung    #
                  #                Kaiser Wilhelm Platz 1               #
                  #                 D-45470 Muelheim/Ruhr               #
                  #                      Germany                        #
                  #                                                     #
                  #                  All rights reserved                #
                  #                        -***-                        #
                  #######################################################


                         Program Version 4.2.1 -  RELEASE  -


 With contributions from (in alphabetic order):
   Daniel Aravena         : Magnetic Suceptibility
   Michael Atanasov       : Ab Initio Ligand Field Theory (pilot matlab implementation)
   Alexander A. Auer      : GIAO ZORA, VPT2
   Ute Becker             : Parallelization
   Giovanni Bistoni       : ED, misc. LED, open-shell LED, HFLD
   Martin Brehm           : Molecular dynamics
   Dmytro Bykov           : SCF Hessian
   Vijay G. Chilkuri      : MRCI spin determinant printing, contributions to CSF-ICE
   Dipayan Datta          : RHF DLPNO-CCSD density
   Achintya Kumar Dutta   : EOM-CC, STEOM-CC
   Dmitry Ganyushin       : Spin-Orbit,Spin-Spin,Magnetic field MRCI
   Miquel Garcia          : C-PCM Hessian, Gaussian charge scheme
   Yang Guo               : DLPNO-NEVPT2, CIM, IAO-localization
   Andreas Hansen         : Spin unrestricted coupled pair/coupled cluster methods
   Benjamin Helmich-Paris : CASSCF linear response (MC-RPA)
   Lee Huntington         : MR-EOM, pCC
   Robert Izsak           : Overlap fitted RIJCOSX, COSX-SCS-MP3, EOM
   Christian Kollmar      : KDIIS, OOCD, Brueckner-CCSD(T), CCSD density
   Simone Kossmann        : Meta GGA functionals, TD-DFT gradient, OOMP2, MP2 Hessian
   Martin Krupicka        : AUTO-CI
   Lucas Lang             : DCDCAS
   Dagmar Lenk            : GEPOL surface, SMD
   Dimitrios Liakos       : Extrapolation schemes; Compound Job, initial MDCI parallelization
   Dimitrios Manganas     : Further ROCIS development; embedding schemes
   Dimitrios Pantazis     : SARC Basis sets
   Taras Petrenko         : DFT Hessian,TD-DFT gradient, ASA, ECA, R-Raman, ABS, FL, XAS/XES, NRVS
   Peter Pinski           : DLPNO-MP2, DLPNO-MP2 Gradient
   Christoph Reimann      : Effective Core Potentials
   Marius Retegan         : Local ZFS, SOC
   Christoph Riplinger    : Optimizer, TS searches, QM/MM, DLPNO-CCSD(T), (RO)-DLPNO pert. Triples
   Tobias Risthaus        : Range-separated hybrids, TD-DFT gradient, RPA, STAB
   Michael Roemelt        : Original ROCIS implementation
   Masaaki Saitow         : Open-shell DLPNO-CCSD energy and density
   Barbara Sandhoefer     : DKH picture change effects
   Avijit Sen             : IP-ROCIS
   Kantharuban Sivalingam : CASSCF convergence, NEVPT2, FIC-MRCI
   Bernardo de Souza      : ESD, SOC TD-DFT
   Georgi Stoychev        : AutoAux, RI-MP2 NMR
   Willem Van den Heuvel  : Paramagnetic NMR
   Boris Wezisla          : Elementary symmetry handling
   Frank Wennmohs         : Technical directorship


 We gratefully acknowledge several colleagues who have allowed us to
 interface, adapt or use parts of their codes:
   Stefan Grimme, W. Hujo, H. Kruse,             : VdW corrections, initial TS optimization,
                  C. Bannwarth                     DFT functionals, gCP, sTDA/sTD-DF
   Ed Valeev, F. Pavosevic, A. Kumar             : LibInt (2-el integral package), F12 methods
   Garnet Chan, S. Sharma, J. Yang, R. Olivares  : DMRG
   Ulf Ekstrom                                   : XCFun DFT Library
   Mihaly Kallay                                 : mrcc  (arbitrary order and MRCC methods)
   Andreas Klamt, Michael Diedenhofen            : otool_cosmo (COSMO solvation model)
   Jiri Pittner, Ondrej Demel                    : Mk-CCSD
   Frank Weinhold                                : gennbo (NPA and NBO analysis)
   Christopher J. Cramer and Donald G. Truhlar   : smd solvation model
   Lars Goerigk                                  : TD-DFT with DH, B97 family of functionals
   V. Asgeirsson, H. Jonsson                     : NEB implementation
   FAccTs GmbH                                   : IRC, NEB, NEB-TS, Multilevel, MM, QM/MM, CI optimization
   S Lehtola, MJT Oliveira, MAL Marques          : LibXC Library


 Your calculation uses the libint2 library for the computation of 2-el integrals
 For citations please refer to: http://libint.valeyev.net

 Your ORCA version has been built with support for libXC version: 4.2.3
 For citations please refer to: https://tddft.org/programs/libxc/

 This ORCA versions uses:
   CBLAS   interface :  Fast vector & matrix operations
   LAPACKE interface :  Fast linear algebra routines
   SCALAPACK package :  Parallel linear algebra routines


----- Orbital basis set information -----
Your calculation utilizes the basis: def2-TZVP
   F. Weigend and R. Ahlrichs, Phys. Chem. Chem. Phys. 7, 3297 (2005).

================================================================================
                                        WARNINGS
                       Please study these warnings very carefully!
================================================================================


WARNING: Geometry Optimization
  ===> : Switching off AutoStart
         For restart on a previous wavefunction, please use MOREAD

WARNING: Post HF methods need fully converged wavefunctions
  ===> : Setting SCFConvForced true
         You can overwrite this default with %scf ConvForced false 


INFO   : the flag for use of LIBINT has been found!

================================================================================
                                       INPUT FILE
================================================================================
NAME = NH3.inp
|  1> ! MP2 def2-TZVP Opt Freq NoFrozenCore TightOpt TightSCF Grid4 FinalGrid5 PrintBasis PrintMOs NBO
|  2> 
|  3> %pal
|  4>  nprocs 8
|  5> end
|  6> 
|  7> *xyz 0 1
|  8>   N   -2.44654546502746     -2.76792262752335      0.01532602931109
|  9>   H   -1.43693760178232     -2.81562116086730     -0.00935031033139
| 10>   H   -2.75775174158686     -3.60202014599648      0.49451373307894
| 11>   H   -2.75775519160334     -2.85876606561286     -0.94231945205862
| 12> *
| 13> 
| 14>                          ****END OF INPUT****
================================================================================

                       *****************************
                       * Geometry Optimization Run *
                       *****************************

Geometry optimization settings:
Update method            Update   .... BFGS
Choice of coordinates    CoordSys .... Z-matrix Internals
Initial Hessian          InHess   .... Almoef's Model

Convergence Tolerances:
Energy Change            TolE     ....  1.0000e-06 Eh
Max. Gradient            TolMAXG  ....  1.0000e-04 Eh/bohr
RMS Gradient             TolRMSG  ....  3.0000e-05 Eh/bohr
Max. Displacement        TolMAXD  ....  1.0000e-03 bohr
RMS Displacement         TolRMSD  ....  6.0000e-04 bohr
Strict Convergence                ....  False
------------------------------------------------------------------------------
                        ORCA OPTIMIZATION COORDINATE SETUP
------------------------------------------------------------------------------

The optimization will be done in new redundant internal coordinates
Making redundant internal coordinates   ...  (new redundants) done
Evaluating the initial hessian          ...  (Almloef) done
Evaluating the coordinates              ...  done
Calculating the B-matrix                .... done
Calculating the G-matrix                .... done
Diagonalizing the G-matrix              .... done
The first mode is                       ....    1
The number of degrees of freedom        ....    6

    -----------------------------------------------------------------
                    Redundant Internal Coordinates


    -----------------------------------------------------------------
         Definition                    Initial Value    Approx d2E/dq
    -----------------------------------------------------------------
      1. B(H   1,N   0)                  1.0110         0.431066   
      2. B(H   2,N   0)                  1.0110         0.431068   
      3. B(H   3,N   0)                  1.0110         0.431068   
      4. A(H   1,N   0,H   3)          106.2615         0.302889   
      5. A(H   2,N   0,H   3)          106.2635         0.302889   
      6. A(H   1,N   0,H   2)          106.2615         0.302889   
      7. I(H   1,H   3,H   2,N   0)    -62.1784         0.003661   
    -----------------------------------------------------------------

Number of atoms                         .... 4
Number of degrees of freedom            .... 7

         *************************************************************
         *                GEOMETRY OPTIMIZATION CYCLE   1            *
         *************************************************************
---------------------------------
CARTESIAN COORDINATES (ANGSTROEM)
---------------------------------
  N     -2.446545   -2.767923    0.015326
  H     -1.436938   -2.815621   -0.009350
  H     -2.757752   -3.602020    0.494514
  H     -2.757755   -2.858766   -0.942319

----------------------------
CARTESIAN COORDINATES (A.U.)
----------------------------
  NO LB      ZA    FRAG     MASS         X           Y           Z
   0 N     7.0000    0    14.007   -4.623301   -5.230616    0.028962
   1 H     1.0000    0     1.008   -2.715419   -5.320753   -0.017670
   2 H     1.0000    0     1.008   -5.211396   -6.806832    0.934496
   3 H     1.0000    0     1.008   -5.211402   -5.402285   -1.780726

--------------------------------
INTERNAL COORDINATES (ANGSTROEM)
--------------------------------
 N      0   0   0     0.000000000000     0.00000000     0.00000000
 H      1   0   0     1.011035167216     0.00000000     0.00000000
 H      1   2   0     1.011033566374   106.26150890     0.00000000
 H      1   2   3     1.011033576172   106.26149875   247.10975711

---------------------------
INTERNAL COORDINATES (A.U.)
---------------------------
 N      0   0   0     0.000000000000     0.00000000     0.00000000
 H      1   0   0     1.910579577802     0.00000000     0.00000000
 H      1   2   0     1.910576552649   106.26150890     0.00000000
 H      1   2   3     1.910576571164   106.26149875   247.10975711

---------------------
BASIS SET INFORMATION
---------------------
There are 2 groups of distinct atoms

 Group   1 Type N   : 11s6p2d1f contracted to 5s3p2d1f pattern {62111/411/11/1}
 Group   2 Type H   : 5s1p contracted to 3s1p pattern {311/1}

Atom   0N    basis set group =>   1
Atom   1H    basis set group =>   2
Atom   2H    basis set group =>   2
Atom   3H    basis set group =>   2

-------------------------
BASIS SET IN INPUT FORMAT
-------------------------

 # Basis set for element : H 
 NewGTO H 
 S 3 
   1      34.0613410000      0.0254393072
   2       5.1235746000      0.1900859489
   3       1.1646626000      0.8524411301
 S 1 
   1       0.3272304100      1.0000000000
 S 1 
   1       0.1030724100      1.0000000000
 P 1 
   1       0.8000000000      1.0000000000
  end;

 # Basis set for element : N 
 NewGTO N 
 S 6 
   1   19730.8006470000      0.0005862639
   2    2957.8958745000      0.0045428821
   3     673.2213359500      0.0235584136
   4     190.6824949400      0.0947091933
   5      62.2954418980      0.2971978492
   6      22.6541611820      0.6691624689
 S 2 
   1       8.9791477428      0.6459668363
   2       3.6863002370      0.3870057440
 S 1 
   1       0.8466007680      1.0000000000
 S 1 
   1       0.3364713377      1.0000000000
 S 1 
   1       0.1364765367      1.0000000000
 P 4 
   1      49.2003805100      0.0114488252
   2      11.3467905370      0.0784223379
   3       3.4273972411      0.3081809474
   4       1.1785525134      0.7202719637
 P 1 
   1       0.4164220497      1.0000000000
 P 1 
   1       0.1426082601      1.0000000000
 D 1 
   1       1.6540000000      1.0000000000
 D 1 
   1       0.4690000000      1.0000000000
 F 1 
   1       1.0930000000      1.0000000000
  end;



           ************************************************************
           *        Program running with 8 parallel MPI-processes     *
           *              working on a common directory               *
           ************************************************************
------------------------------------------------------------------------------
                           ORCA GTO INTEGRAL CALCULATION
------------------------------------------------------------------------------

                         BASIS SET STATISTICS AND STARTUP INFO

 # of primitive gaussian shells          ...   38
 # of primitive gaussian functions       ...   70
 # of contracted shells                  ...   23
 # of contracted basis functions         ...   49
 Highest angular momentum                ...    3
 Maximum contraction depth               ...    6
 Integral package used                   ... LIBINT
 Integral threshhold            Thresh   ...  2.500e-11
 Primitive cut-off              TCut     ...  2.500e-12


------------------------------ INTEGRAL EVALUATION ----------------------------


 * One electron integrals 
 Pre-screening matrix                    ... done
 Shell pair data                         ... done (   0.000 sec)



           ************************************************************
           *        Program running with 8 parallel MPI-processes     *
           *              working on a common directory               *
           ************************************************************
-------------------------------------------------------------------------------
                                 ORCA SCF
-------------------------------------------------------------------------------

------------
SCF SETTINGS
------------
Hamiltonian:
 Ab initio Hamiltonian  Method          .... Hartree-Fock(GTOs)


General Settings:
 Integral files         IntName         .... NH3
 Hartree-Fock type      HFTyp           .... RHF
 Total Charge           Charge          ....    0
 Multiplicity           Mult            ....    1
 Number of Electrons    NEL             ....   10
 Basis Dimension        Dim             ....   49
 Nuclear Repulsion      ENuc            ....     11.9728067089 Eh

Convergence Acceleration:
 DIIS                   CNVDIIS         .... on
   Start iteration      DIISMaxIt       ....    12
   Startup error        DIISStart       ....  0.200000
   # of expansion vecs  DIISMaxEq       ....     5
   Bias factor          DIISBfac        ....   1.050
   Max. coefficient     DIISMaxC        ....  10.000
 Newton-Raphson         CNVNR           .... off
 SOSCF                  CNVSOSCF        .... on
   Start iteration      SOSCFMaxIt      ....   150
   Startup grad/error   SOSCFStart      ....  0.003300
 Level Shifting         CNVShift        .... on
   Level shift para.    LevelShift      ....    0.2500
   Turn off err/grad.   ShiftErr        ....    0.0010
 Zerner damping         CNVZerner       .... off
 Static damping         CNVDamp         .... on
   Fraction old density DampFac         ....    0.7000
   Max. Damping (<1)    DampMax         ....    0.9800
   Min. Damping (>=0)   DampMin         ....    0.0000
   Turn off err/grad.   DampErr         ....    0.1000
 Fernandez-Rico         CNVRico         .... off

SCF Procedure:
 Maximum # iterations   MaxIter         ....   125
 SCF integral mode      SCFMode         .... Direct
   Integral package                     .... LIBINT
 Reset frequency        DirectResetFreq ....    20
 Integral Threshold     Thresh          ....  2.500e-11 Eh
 Primitive CutOff       TCut            ....  2.500e-12 Eh

Convergence Tolerance:
 Convergence Check Mode ConvCheckMode   .... Total+1el-Energy
 Convergence forced     ConvForced      .... 1
 Energy Change          TolE            ....  1.000e-08 Eh
 1-El. energy change                    ....  1.000e-05 Eh
 Orbital Gradient       TolG            ....  1.000e-05
 Orbital Rotation angle TolX            ....  1.000e-05
 DIIS Error             TolErr          ....  5.000e-07


Diagonalization of the overlap matrix:
Smallest eigenvalue                        ... 4.933e-03
Time for diagonalization                   ...    0.004 sec
Threshold for overlap eigenvalues          ... 1.000e-08
Number of eigenvalues below threshold      ... 0
Time for construction of square roots      ...    0.001 sec
Total time needed                          ...    0.005 sec

-------------------
DFT GRID GENERATION
-------------------

General Integration Accuracy     IntAcc      ...  4.670
Radial Grid Type                 RadialGrid  ... Gauss-Chebyshev
Angular Grid (max. acc.)         AngularGrid ... Lebedev-302
Angular grid pruning method      GridPruning ... 3 (G Style)
Weight generation scheme         WeightScheme... Becke
Basis function cutoff            BFCut       ...    1.0000e-11
Integration weight cutoff        WCut        ...    1.0000e-14
Grids for H and He will be reduced by one unit

# of grid points (after initial pruning)     ...  16394 (   0.0 sec)
# of grid points (after weights+screening)   ...  16130 (   0.0 sec)
nearest neighbour list constructed           ...    0.0 sec
Grid point re-assignment to atoms done       ...    0.0 sec
Grid point division into batches done        ...    0.1 sec
Reduced shell lists constructed in    0.1 sec

Total number of grid points                  ...    16130
Total number of batches                      ...      255
Average number of points per batch           ...       63
Average number of grid points per atom       ...     4032
Average number of shells per batch           ...    20.12 (87.48%)
Average number of basis functions per batch  ...    43.15 (88.06%)
Average number of large shells per batch     ...    19.27 (95.78%)
Average number of large basis fcns per batch ...    41.52 (96.21%)
Maximum spatial batch extension              ...  12.33, 10.83, 13.15 au
Average spatial batch extension              ...   0.32,  0.32,  0.31 au

Time for grid setup =    0.221 sec

------------------------------
INITIAL GUESS: MODEL POTENTIAL
------------------------------
Loading Hartree-Fock densities                     ... done
Calculating cut-offs                               ... done
Setting up the integral package                    ... done
Initializing the effective Hamiltonian             ... done
Starting the Coulomb interaction                   ... done (   0.0 sec)
Reading the grid                                   ... done
Mapping shells                                     ... done
Starting the XC term evaluation                    ... done (   0.0 sec)
Transforming the Hamiltonian                       ... done (   0.0 sec)
Diagonalizing the Hamiltonian                      ... done (   0.0 sec)
Back transforming the eigenvectors                 ... done (   0.0 sec)
Now organizing SCF variables                       ... done
                      ------------------
                      INITIAL GUESS DONE (   0.5 sec)
                      ------------------
--------------
SCF ITERATIONS
--------------
ITER       Energy         Delta-E        Max-DP      RMS-DP      [F,P]     Damp
               ***  Starting incremental Fock matrix formation  ***
  0    -56.0763556936   0.000000000000 0.04690738  0.00244737  0.3639004 0.7000
  1    -56.1319879867  -0.055632293097 0.03250911  0.00179256  0.2199763 0.7000
                               ***Turning on DIIS***
  2    -56.1620815217  -0.030093535063 0.01882556  0.00104882  0.1416710 0.7000
  3    -56.3631559451  -0.201074423364 0.00819138  0.00048675  0.1071022 0.7000
  4    -56.3272942910   0.035861654074 0.01673557  0.00100815  0.0763521 0.0000
                      *** Initiating the SOSCF procedure ***
                           *** Shutting down DIIS ***
                      *** Re-Reading the Fockian *** 
                      *** Removing any level shift *** 
ITER      Energy       Delta-E        Grad      Rot      Max-DP    RMS-DP
  5    -56.22035120   0.1069430904  0.002100  0.002100  0.002349  0.000139
               *** Restarting incremental Fock matrix formation ***
  6    -56.21827728   0.0020739178  0.000782  0.001138  0.001350  0.000099
  7    -56.21828633  -0.0000090493  0.000457  0.000926  0.001251  0.000080
  8    -56.21828819  -0.0000018536  0.000129  0.000116  0.000118  0.000008
  9    -56.21828828  -0.0000000923  0.000036  0.000020  0.000029  0.000002
 10    -56.21828829  -0.0000000073  0.000007  0.000017  0.000012  0.000001
                  ***Gradient check signals convergence***
              ***Rediagonalizing the Fockian in SOSCF/NRSCF***

               *****************************************************
               *                     SUCCESS                       *
               *           SCF CONVERGED AFTER  11 CYCLES          *
               *****************************************************


----------------
TOTAL SCF ENERGY
----------------

Total Energy       :          -56.21828829 Eh           -1529.77740 eV

Components:
Nuclear Repulsion  :           11.97280671 Eh             325.79663 eV
Electronic Energy  :          -68.19109499 Eh           -1855.57403 eV
One Electron Energy:          -99.65811073 Eh           -2711.83506 eV
Two Electron Energy:           31.46701573 Eh             856.26103 eV

Virial components:
Potential Energy   :         -112.38375839 Eh           -3058.11754 eV
Kinetic Energy     :           56.16547010 Eh            1528.34014 eV
Virial Ratio       :            2.00094040


---------------
SCF CONVERGENCE
---------------

  Last Energy change         ...   -5.5326e-10  Tolerance :   1.0000e-08
  Last MAX-Density change    ...    4.2597e-06  Tolerance :   1.0000e-07
  Last RMS-Density change    ...    3.9147e-07  Tolerance :   5.0000e-09
  Last Orbital Gradient      ...    2.3868e-06  Tolerance :   1.0000e-05
  Last Orbital Rotation      ...    7.7951e-06  Tolerance :   1.0000e-05

             **** THE GBW FILE WAS UPDATED (NH3.gbw) ****
             **** DENSITY FILE WAS UPDATED (NH3.scfp) ****
             **** ENERGY FILE WAS UPDATED (NH3.en.tmp) ****
             **** THE GBW FILE WAS UPDATED (NH3.gbw) ****
             **** DENSITY FILE WAS UPDATED (NH3.scfp) ****
----------------
ORBITAL ENERGIES
----------------

  NO   OCC          E(Eh)            E(eV) 
   0   2.0000     -15.537361      -422.7931 
   1   2.0000      -1.141759       -31.0688 
   2   2.0000      -0.626821       -17.0567 
   3   2.0000      -0.626815       -17.0565 
   4   2.0000      -0.429279       -11.6813 
   5   0.0000       0.128283         3.4907 
   6   0.0000       0.213134         5.7997 
   7   0.0000       0.213136         5.7997 
   8   0.0000       0.442623        12.0444 
   9   0.0000       0.442627        12.0445 
  10   0.0000       0.503368        13.6973 
  11   0.0000       0.629977        17.1425 
  12   0.0000       0.676381        18.4053 
  13   0.0000       0.724814        19.7232 
  14   0.0000       0.724816        19.7232 
  15   0.0000       1.132474        30.8162 
  16   0.0000       1.132478        30.8163 
  17   0.0000       1.365943        37.1692 
  18   0.0000       1.464451        39.8497 
  19   0.0000       1.464452        39.8498 
  20   0.0000       1.883948        51.2648 
  21   0.0000       2.004770        54.5526 
  22   0.0000       2.004775        54.5527 
  23   0.0000       2.082131        56.6577 
  24   0.0000       2.284800        62.1726 
  25   0.0000       2.344050        63.7849 
  26   0.0000       2.344052        63.7849 
  27   0.0000       2.615365        71.1677 
  28   0.0000       2.615372        71.1679 
  29   0.0000       2.618061        71.2411 
  30   0.0000       2.776743        75.5590 
  31   0.0000       2.836568        77.1869 
  32   0.0000       2.836570        77.1870 
  33   0.0000       3.330770        90.6349 
  34   0.0000       3.584056        97.5271 
  35   0.0000       3.584096        97.5282 
  36   0.0000       4.427744       120.4850 
  37   0.0000       4.685605       127.5018 
  38   0.0000       4.685614       127.5020 
  39   0.0000       4.815036       131.0238 
  40   0.0000       5.019732       136.5939 
  41   0.0000       5.019738       136.5940 
  42   0.0000       5.040219       137.1513 
  43   0.0000       5.304041       144.3303 
  44   0.0000       5.304043       144.3304 
  45   0.0000       5.820855       158.3935 
  46   0.0000       5.820891       158.3945 
  47   0.0000       6.163009       167.7040 
  48   0.0000      32.825275       893.2211 
------------------
MOLECULAR ORBITALS
------------------
                      0         1         2         3         4         5   
                 -15.53736  -1.14176  -0.62682  -0.62681  -0.42928   0.12828
                   2.00000   2.00000   2.00000   2.00000   2.00000   0.00000
                  --------  --------  --------  --------  --------  --------
  0N   1s         0.448948  0.091914  0.000000  0.000001  0.029501 -0.031640
  0N   2s         0.630192  0.214589  0.000000  0.000001  0.070138 -0.082660
  0N   3s         0.020178 -0.312417 -0.000000 -0.000002 -0.112204  0.264331
  0N   4s        -0.007370 -0.403936 -0.000000 -0.000003 -0.187381 -0.474241
  0N   5s         0.005155 -0.112720 -0.000000 -0.000002 -0.129045  2.535676
  0N   1pz       -0.000797  0.024715 -0.294507  0.051460 -0.170017 -0.036985
  0N   1px        0.000613 -0.019019  0.000699  0.312734  0.130828  0.028462
  0N   1py       -0.001541  0.047778  0.152623  0.097866 -0.328671 -0.071498
  0N   2pz        0.000405  0.023055 -0.252851  0.044181 -0.156873  0.006753
  0N   2px       -0.000312 -0.017742  0.000600  0.268502  0.120714 -0.005197
  0N   2py        0.000783  0.044570  0.131036  0.084024 -0.303260  0.013054
  0N   3pz       -0.000371  0.002851 -0.113464  0.019826 -0.141020 -0.206700
  0N   3px        0.000285 -0.002194  0.000269  0.120489  0.108515  0.159068
  0N   3py       -0.000716  0.005512  0.058801  0.037705 -0.272614 -0.399584
  0N   1dz2       0.000002 -0.000845  0.011113 -0.009019 -0.000688 -0.000819
  0N   1dxz       0.000002 -0.000967  0.005758 -0.002905 -0.000788 -0.000937
  0N   1dyz      -0.000005  0.002428  0.009105  0.001881  0.001979  0.002355
  0N   1dx2y2     0.000004 -0.001975  0.006456  0.012872 -0.001610 -0.001915
  0N   1dxy       0.000004 -0.001868 -0.002994 -0.005584 -0.001523 -0.001812
  0N   2dz2       0.000015 -0.000676  0.019690 -0.009192 -0.005763 -0.003602
  0N   2dxz       0.000017 -0.000774 -0.000072 -0.008068 -0.006596 -0.004121
  0N   2dyz      -0.000044  0.001944  0.016107 -0.002596  0.016570  0.010353
  0N   2dx2y2     0.000035 -0.001581  0.011423  0.019443 -0.013478 -0.008420
  0N   2dxy       0.000034 -0.001496 -0.000007 -0.015598 -0.012751 -0.007966
  0N   1f0       -0.000139  0.003641 -0.000462  0.001091 -0.002040  0.004343
  0N   1f+1      -0.000178  0.003777 -0.001625 -0.000330  0.000407  0.005553
  0N   1f-1      -0.000030  0.000688  0.001461 -0.000002 -0.000106  0.000937
  0N   1f+2      -0.000087  0.002600  0.000274  0.001464 -0.002391  0.002715
  0N   1f-2       0.000065 -0.000690 -0.001457 -0.001139 -0.002546 -0.002039
  0N   1f+3      -0.000154  0.004079  0.001254 -0.001754 -0.002417  0.004811
  0N   1f-3      -0.000025  0.000169 -0.000113 -0.000978  0.001307  0.000783
  1H   1s         0.000144 -0.087174  0.000371  0.165846  0.043927 -0.008695
  1H   2s        -0.000039 -0.084243  0.000531  0.237100  0.052481  0.063279
  1H   3s        -0.000859 -0.006634  0.000177  0.079057  0.022300 -1.140373
  1H   1pz       -0.000034  0.000429 -0.011047  0.002650 -0.007807  0.000543
  1H   1px        0.000232  0.016696 -0.000056 -0.024851 -0.003366 -0.044092
  1H   1py       -0.000066  0.000830  0.005729  0.005061 -0.015092  0.001050
  2H   1s         0.000144 -0.087174 -0.143812 -0.082601  0.043928 -0.008696
  2H   2s        -0.000039 -0.084242 -0.205599 -0.118089  0.052483  0.063281
  2H   3s        -0.000859 -0.006634 -0.068551 -0.039375  0.022301 -1.140371
  2H   1pz        0.000071  0.009089  0.004219  0.010700 -0.012574 -0.021670
  2H   1px       -0.000042 -0.006005 -0.009908  0.006027  0.009132  0.014139
  2H   1py       -0.000229 -0.012686 -0.020282 -0.011266 -0.007651  0.035721
  3H   1s         0.000144 -0.087174  0.143441 -0.083244  0.043928 -0.008696
  3H   2s        -0.000039 -0.084242  0.205068 -0.119008  0.052483  0.063281
  3H   3s        -0.000859 -0.006634  0.068374 -0.039681  0.022301 -1.140371
  3H   1pz       -0.000228 -0.015606  0.018922 -0.015462  0.001021  0.041675
  3H   1px       -0.000042 -0.006006  0.009935  0.005982  0.009132  0.014139
  3H   1py       -0.000075  0.000088  0.008285  0.002186 -0.014683  0.002953
                      6         7         8         9        10        11   
                   0.21313   0.21314   0.44262   0.44263   0.50337   0.62998
                   0.00000   0.00000   0.00000   0.00000   0.00000   0.00000
                  --------  --------  --------  --------  --------  --------
  0N   1s         0.000000 -0.000000 -0.000000  0.000000  0.026451  0.058152
  0N   2s         0.000000 -0.000001 -0.000001  0.000000  0.053921  0.116520
  0N   3s        -0.000000  0.000001  0.000002 -0.000000  0.094977  0.277508
  0N   4s         0.000000 -0.000000 -0.000000 -0.000000 -1.003590 -3.230841
  0N   5s        -0.000000  0.000011  0.000022 -0.000000  0.211460  6.135147
  0N   1pz       -0.172437 -0.030108 -0.001365 -0.007811 -0.097314  0.056768
  0N   1px        0.000386 -0.183106 -0.008296  0.000018  0.074884 -0.043685
  0N   1py        0.089353 -0.057312 -0.002596  0.004048 -0.188124  0.109742
  0N   2pz        0.083136  0.014514 -0.040655 -0.232722 -0.263410  0.201078
  0N   2px       -0.000186  0.088272 -0.247110  0.000547  0.202691 -0.154734
  0N   2py       -0.043079  0.027629 -0.077331  0.120602 -0.509214  0.388717
  0N   3pz       -0.898053 -0.156802 -0.290289 -1.661582  0.594707 -0.528269
  0N   3px        0.002012 -0.953606 -1.764343  0.003906 -0.457658  0.406538
  0N   3py        0.465352 -0.298479 -0.552160  0.861070  1.149664 -1.021229
  0N   1dz2      -0.000734 -0.001878 -0.020691 -0.023872 -0.000933 -0.000982
  0N   1dxz      -0.002322  0.000361 -0.005672 -0.014362 -0.001068 -0.001124
  0N   1dyz      -0.000606  0.001245  0.005191 -0.019563  0.002682  0.002825
  0N   1dx2y2    -0.000429  0.001486  0.028304 -0.013872 -0.002181 -0.002297
  0N   1dxy       0.001199  0.000709 -0.010887  0.007460 -0.002064 -0.002173
  0N   2dz2      -0.054364 -0.057568  0.143503  0.174469 -0.003583 -0.005000
  0N   2dxz      -0.048531 -0.008411  0.044778  0.093287 -0.004100 -0.005721
  0N   2dyz      -0.044584  0.020957 -0.031199  0.142951  0.010303  0.014372
  0N   2dx2y2    -0.031604  0.069639 -0.203037  0.101364 -0.008382 -0.011688
  0N   2dxy       0.025147 -0.016007  0.086054 -0.048498 -0.007925 -0.011059
  0N   1f0        0.002944  0.008241 -0.017741 -0.006571  0.006618  0.010528
  0N   1f+1       0.006792 -0.003761  0.007549 -0.016974  0.008314  0.011640
  0N   1f-1       0.003099  0.002373 -0.004082 -0.000602  0.001411  0.002069
  0N   1f+2      -0.004730  0.003166 -0.010200  0.009041  0.004192  0.007255
  0N   1f-2       0.006079 -0.001596  0.006442 -0.015199 -0.002935 -0.002828
  0N   1f+3      -0.005241 -0.006745  0.017310  0.013096  0.007340  0.011758
  0N   1f-3      -0.003775  0.004437 -0.004474  0.006139  0.001111  0.000888
  1H   1s        -0.000019  0.008943  0.092422 -0.000205  0.010782  0.047143
  1H   2s         0.000778 -0.368414  1.576986 -0.003495  0.454345  0.044573
  1H   3s        -0.005167  2.446642  0.338984 -0.000751 -0.063457 -1.423339
  1H   1pz       -0.006039 -0.003849 -0.001519 -0.008194 -0.004071  0.002397
  1H   1px       -0.000181  0.085829 -0.145849  0.000323 -0.036440 -0.036336
  1H   1py        0.003144 -0.007409 -0.002893  0.004247 -0.007870  0.004633
  2H   1s         0.007753 -0.004456 -0.046035  0.080141  0.010782  0.047144
  2H   2s        -0.319449  0.183533 -0.785481  1.367489  0.454323  0.044592
  2H   3s         2.121432 -1.218853 -0.168841  0.293993 -0.063473 -1.423342
  2H   1pz        0.031270 -0.022493  0.033372 -0.068794 -0.024197 -0.015149
  2H   1px       -0.024163  0.007471 -0.031517  0.039738  0.016323  0.009653
  2H   1py       -0.063567  0.036312 -0.056894  0.098556  0.023543  0.032015
  3H   1s        -0.007734 -0.004489 -0.046390 -0.079936  0.010782  0.047144
  3H   2s         0.318670  0.184881 -0.791534 -1.363994  0.454323  0.044592
  3H   3s        -2.116264 -1.227803 -0.170142 -0.293242 -0.063473 -1.423342
  3H   1pz        0.069769  0.042929 -0.066251 -0.119896  0.033196  0.034883
  3H   1px        0.024131  0.007574 -0.031693 -0.039598  0.016323  0.009653
  3H   1py        0.011196  0.002670 -0.005640 -0.000773 -0.006146  0.006134
                     12        13        14        15        16        17   
                   0.67638   0.72481   0.72482   1.13247   1.13248   1.36594
                   0.00000   0.00000   0.00000   0.00000   0.00000   0.00000
                  --------  --------  --------  --------  --------  --------
  0N   1s        -0.018537 -0.000000  0.000000  0.000000  0.000000 -0.002110
  0N   2s        -0.047628 -0.000001  0.000000  0.000000  0.000000 -0.009514
  0N   3s        -0.026384  0.000000 -0.000000 -0.000000 -0.000001  0.217828
  0N   4s         0.316809 -0.000004  0.000000  0.000000  0.000005 -0.446336
  0N   5s         3.328032  0.000084 -0.000001 -0.000000 -0.000028 -2.720800
  0N   1pz       -0.048381  0.051142  0.292578 -0.035481  0.006198  0.041206
  0N   1px        0.037224  0.310689 -0.000716  0.000083  0.037678 -0.031707
  0N   1py       -0.093528  0.097214 -0.151632  0.018387  0.011790  0.079657
  0N   2pz       -0.257137  0.193618  1.107676 -0.080792  0.014113  0.148203
  0N   2px        0.197857  1.176233 -0.002710  0.000189  0.085788 -0.114026
  0N   2py       -0.497088  0.368039 -0.574065  0.041868  0.026847  0.286500
  0N   3pz       -0.296571 -0.274667 -1.571258 -0.126298  0.022066  0.362624
  0N   3px        0.228312 -1.668518  0.003844  0.000296  0.134109 -0.279051
  0N   3py       -0.573319 -0.522103  0.814322  0.065450  0.041974  0.701011
  0N   1dz2      -0.003419  0.003453 -0.000907  0.005291  0.003418  0.004695
  0N   1dxz      -0.003912 -0.002039  0.005869 -0.008929 -0.004702  0.005373
  0N   1dyz       0.009830 -0.003504 -0.000727  0.004306 -0.005839 -0.013498
  0N   1dx2y2    -0.007996 -0.001026 -0.000517  0.003055  0.002306  0.010980
  0N   1dxy      -0.007563 -0.003975 -0.003025  0.004593 -0.009138  0.010387
  0N   2dz2      -0.003281 -0.035016 -0.043189 -0.248498 -0.292968 -0.237298
  0N   2dxz      -0.003756 -0.011308 -0.022317  0.619810  0.277850 -0.271530
  0N   2dyz       0.009432  0.007273 -0.035388 -0.201745  0.389860  0.682179
  0N   2dx2y2    -0.007673  0.050006 -0.025097 -0.143188 -0.042667 -0.554867
  0N   2dxy      -0.007262 -0.021734  0.011608 -0.319110  0.540481 -0.524911
  0N   1f0       -0.022319  0.010200  0.003830 -0.002273  0.006103  0.029307
  0N   1f+1      -0.027270 -0.004218  0.010286 -0.005960 -0.002569  0.024006
  0N   1f-1      -0.004673  0.002117 -0.001013  0.000105  0.001351  0.004830
  0N   1f+2      -0.014419  0.006622 -0.004943  0.003051  0.003683  0.023300
  0N   1f-2       0.009009 -0.004377  0.009212 -0.005338 -0.002372  0.001880
  0N   1f+3      -0.024790 -0.010578 -0.007935  0.004599 -0.006099  0.033165
  0N   1f-3      -0.003322  0.001435 -0.003085  0.002010  0.001278 -0.002191
  1H   1s        -0.044179 -0.080448  0.000186  0.000035  0.016042 -0.020047
  1H   2s        -1.606658 -1.029534  0.002374 -0.000454 -0.205834  1.245875
  1H   3s        -0.169269  2.106504 -0.004858  0.000013  0.005692  0.272796
  1H   1pz       -0.014502  0.002468  0.025065  0.145284  0.072970 -0.047839
  1H   1px        0.092798  0.064603 -0.000149  0.000059  0.026673 -0.114321
  1H   1py       -0.028034  0.004629 -0.012979 -0.074757  0.141848 -0.092482
  2H   1s        -0.044182  0.040062 -0.069761 -0.013910 -0.007988 -0.020051
  2H   2s        -1.606644  0.512662 -0.892774  0.178494  0.102535  1.245935
  2H   3s        -0.169179 -1.049055  1.826714 -0.004931 -0.002830  0.272776
  2H   1pz        0.027017 -0.003916  0.039511 -0.053251 -0.139252 -0.124722
  2H   1px       -0.016054  0.031941 -0.009341  0.139362 -0.073799  0.087191
  2H   1py       -0.092843  0.024604 -0.041334 -0.063499 -0.041501  0.027502
  3H   1s        -0.044182  0.040384  0.069576  0.013875 -0.008050 -0.020051
  3H   2s        -1.606644  0.516774  0.890400 -0.178039  0.103322  1.245935
  3H   3s        -0.169179 -1.057469 -1.821856  0.004918 -0.002852  0.272776
  3H   1pz       -0.091387  0.022604  0.056462  0.021263  0.046495  0.094511
  3H   1px       -0.016054  0.031984  0.009194 -0.139686 -0.073183  0.087191
  3H   1py       -0.031594  0.010981 -0.008416  0.079544 -0.137986 -0.085904
                     18        19        20        21        22        23   
                   1.46445   1.46445   1.88395   2.00477   2.00478   2.08213
                   0.00000   0.00000   0.00000   0.00000   0.00000   0.00000
                  --------  --------  --------  --------  --------  --------
  0N   1s         0.000000 -0.000000 -0.000000  0.000000 -0.000000  0.061262
  0N   2s         0.000000 -0.000000 -0.000000  0.000000 -0.000001  0.208861
  0N   3s         0.000001 -0.000000  0.000000 -0.000000  0.000011 -2.054025
  0N   4s        -0.000023  0.000000 -0.000000  0.000000 -0.000033  5.352970
  0N   5s         0.000061 -0.000000  0.000000 -0.000000  0.000020 -0.986327
  0N   1pz       -0.006951 -0.039831 -0.000013  0.247356  0.043199  0.203496
  0N   1px       -0.042292  0.000086 -0.000000 -0.000569  0.262653 -0.156593
  0N   1py       -0.013241  0.020638  0.000007 -0.128180  0.082198  0.393392
  0N   2pz        0.212380  1.217017  0.000066 -0.543223 -0.094862 -0.609012
  0N   2px        1.292267 -0.002613  0.000000  0.001249 -0.576755  0.468662
  0N   2py        0.404534 -0.630587 -0.000034  0.281500 -0.180500 -1.177318
  0N   3pz        0.150517  0.862590 -0.000015  0.458839  0.080136  0.033279
  0N   3px        0.915897 -0.001852 -0.000000 -0.001055  0.487218 -0.025582
  0N   3py        0.286699 -0.446944  0.000008 -0.237772  0.152479  0.064334
  0N   1dz2       0.005640  0.006758  0.000000 -0.016396 -0.007764  0.004680
  0N   1dxz       0.001698  0.003740 -0.000000 -0.000109 -0.006670  0.005355
  0N   1dyz      -0.001282  0.005537  0.000000 -0.013412 -0.002063 -0.013454
  0N   1dx2y2    -0.007907  0.003924  0.000000 -0.009511  0.016246  0.010943
  0N   1dxy       0.003263 -0.001943  0.000000  0.000092 -0.012894  0.010352
  0N   2dz2      -1.031768 -1.100775 -0.000040  0.398290  0.237160  0.122673
  0N   2dxz      -0.227782 -0.780304 -0.000021  0.076182  0.141117  0.140360
  0N   2dyz       0.307634 -0.902171 -0.000032  0.325989  0.007707 -0.352654
  0N   2dx2y2     1.343765 -0.639462 -0.000023  0.231158 -0.418690  0.286839
  0N   2dxy      -0.436452  0.404759  0.000011 -0.040155  0.272393  0.271338
  0N   1f0        0.067885  0.024432 -0.009248 -0.010373 -0.028903 -0.134559
  0N   1f+1      -0.030588  0.057668  0.004557 -0.024291  0.013083 -0.154421
  0N   1f-1       0.018793  0.021084  0.007675 -0.009668 -0.008119 -0.027070
  0N   1f+2       0.028559 -0.038123  0.010560  0.016365 -0.011770 -0.090628
  0N   1f-2      -0.015353  0.051616  0.004081 -0.021740  0.006190  0.042710
  0N   1f+3      -0.057600 -0.044505 -0.003530  0.018741  0.024210 -0.149980
  0N   1f-3       0.032836 -0.029636  0.005504  0.012848 -0.014556 -0.014481
  1H   1s         0.196446 -0.000398  0.000000  0.000052 -0.024175  0.450308
  1H   2s        -2.865085  0.005799 -0.000000 -0.001270  0.585686 -2.136116
  1H   3s         0.449072 -0.000909  0.000000  0.001027 -0.473375  0.583756
  1H   1pz       -0.040333 -0.045817 -0.549245 -0.397824 -0.347639 -0.110172
  1H   1px        0.509919 -0.001032 -0.000001  0.000689 -0.318072  0.635987
  1H   1py       -0.077741  0.023900  0.284117  0.207631 -0.669926 -0.212977
  2H   1s        -0.097880  0.170327  0.000015 -0.020980  0.012039  0.450303
  2H   2s         1.427508 -2.484139 -0.000089  0.507933 -0.291731 -2.136107
  2H   3s        -0.223765  0.389338  0.000040 -0.410501  0.235790  0.583776
  2H   1pz       -0.127169  0.161480  0.356689 -0.687565  0.096541  0.170184
  2H   1px        0.027531 -0.132595  0.504905  0.217980 -0.547729 -0.098966
  2H   1py        0.227008 -0.397799  0.016497 -0.184599  0.092261 -0.650556
  3H   1s        -0.098569 -0.169929 -0.000015  0.020928  0.012130  0.450303
  3H   2s         1.437551  2.478340  0.000089 -0.506663 -0.293930 -2.136107
  3H   3s        -0.225340 -0.388429 -0.000040  0.409475  0.237568  0.583776
  3H   1pz        0.260447  0.416926  0.192634 -0.246693  0.018452 -0.629301
  3H   1px        0.028068  0.132484 -0.504904 -0.215605 -0.548669 -0.098968
  3H   1py        0.027770  0.097942 -0.300654  0.667256  0.134997 -0.236993
                     24        25        26        27        28        29   
                   2.28480   2.34405   2.34405   2.61536   2.61537   2.61806
                   0.00000   0.00000   0.00000   0.00000   0.00000   0.00000
                  --------  --------  --------  --------  --------  --------
  0N   1s        -0.066173 -0.000000  0.000001  0.000002  0.000369 -0.057546
  0N   2s        -0.227345 -0.000000  0.000004  0.000009  0.001374 -0.214425
  0N   3s         1.657603  0.000000 -0.000023 -0.000067 -0.010010  1.563606
  0N   4s        -2.901509 -0.000000  0.000035  0.000097  0.014434 -2.250835
  0N   5s         1.124654  0.000000 -0.000010 -0.000125 -0.018511  2.896868
  0N   1pz        0.299801  0.733982  0.128365 -0.054954  0.008091  0.241186
  0N   1px       -0.230678 -0.001868  0.779443  0.000144  0.059566 -0.185186
  0N   1py        0.579563 -0.380423  0.243838  0.028456  0.015326  0.466256
  0N   2pz       -0.161509 -2.183555 -0.381881  0.573094 -0.097173 -0.481327
  0N   2px        0.124195  0.005556 -2.318720 -0.001436 -0.610947  0.366077
  0N   2py       -0.312224  1.131737 -0.725413 -0.296970 -0.184572 -0.930522
  0N   3pz        0.232681  0.790204  0.138201  0.151444 -0.025418 -0.164499
  0N   3px       -0.179039 -0.002011  0.839154 -0.000381 -0.161557  0.125457
  0N   3py        0.449810 -0.409563  0.262523 -0.078472 -0.048271 -0.318014
  0N   1dz2      -0.003899  0.017841  0.011699 -0.022249  0.035888  0.013046
  0N   1dxz      -0.004464  0.005031  0.005863 -0.038632 -0.001979  0.014656
  0N   1dyz       0.011214  0.014608 -0.000586 -0.018300 -0.019168 -0.036977
  0N   1dx2y2    -0.009124  0.010363 -0.019285 -0.012976 -0.034840  0.029758
  0N   1dxy      -0.008630 -0.002637  0.011304  0.019971 -0.004047  0.028335
  0N   2dz2       0.105334  0.038548  0.342882 -0.185024 -0.591946 -0.124783
  0N   2dxz       0.120571  0.491454 -0.123895  1.028403  0.368774 -0.136129
  0N   2dyz      -0.302847  0.032854 -0.278565 -0.148689  0.615179  0.351828
  0N   2dx2y2     0.246349  0.023211 -0.199147 -0.105651  0.155743 -0.282032
  0N   2dxy       0.233083 -0.253487 -0.242400 -0.529845  0.718789 -0.263230
  0N   1f0        0.030273 -0.035652 -0.098380  0.030397 -0.080152 -0.048855
  0N   1f+1       0.051357 -0.086439  0.043627  0.083053  0.033423 -0.095886
  0N   1f-1       0.007929 -0.023167 -0.025994 -0.012932 -0.015770 -0.014325
  0N   1f+2       0.014246  0.053870 -0.045479 -0.038058 -0.054882 -0.017886
  0N   1f-2      -0.028904 -0.077373  0.025875  0.074383  0.036576  0.062771
  0N   1f+3       0.032886  0.066666  0.086879 -0.064067  0.086035 -0.051228
  0N   1f-3       0.012481  0.040545 -0.041395 -0.022712 -0.007009 -0.027807
  1H   1s        -0.161805  0.001194 -0.497822 -0.001088 -0.461650  0.352411
  1H   2s         0.572062 -0.004971  2.072662  0.001975  0.836756 -0.738704
  1H   3s        -0.239638  0.003001 -1.251169 -0.000537 -0.233718 -0.330093
  1H   1pz       -0.198806 -0.163103  0.195016 -0.869360 -0.216964  0.256668
  1H   1px       -0.167209  0.001872 -0.780760 -0.000629 -0.267189  0.105337
  1H   1py       -0.384325  0.083223  0.377950  0.448437 -0.424402  0.496242
  2H   1s        -0.161769 -0.431729  0.247880  0.398376  0.226529  0.356789
  2H   2s         0.571942  1.797488 -1.032036 -0.721506 -0.409627 -0.746602
  2H   3s        -0.239587 -1.085035  0.622988  0.204481  0.119546 -0.327854
  2H   1pz       -0.361619 -0.161189 -0.029236  0.098884  0.704742  0.417987
  2H   1px        0.259706 -0.022610 -0.159442 -0.668187  0.539210 -0.297077
  2H   1py       -0.130165  0.759162 -0.441501  0.052777  0.058806  0.256663
  3H   1s        -0.161769  0.430535  0.249948 -0.397333  0.228388  0.356767
  3H   2s         0.571942 -1.792517 -1.040646  0.719626 -0.412994 -0.746562
  3H   3s        -0.239587  1.082034  0.628186 -0.203902  0.120500 -0.327865
  3H   1pz        0.102707 -0.711090 -0.346864  0.012381 -0.359270 -0.032031
  3H   1px        0.259707  0.023372 -0.159332  0.670715  0.536080 -0.297041
  3H   1py       -0.370354 -0.305746 -0.280433 -0.108380  0.609685  0.489445
                     30        31        32        33        34        35   
                   2.77674   2.83657   2.83657   3.33077   3.58406   3.58410
                   0.00000   0.00000   0.00000   0.00000   0.00000   0.00000
                  --------  --------  --------  --------  --------  --------
  0N   1s        -0.072701 -0.000003  0.000000  0.028670 -0.000001 -0.000000
  0N   2s        -0.262278 -0.000011  0.000000  0.061799  0.000000  0.000000
  0N   3s         1.695882  0.000060 -0.000000  1.121844 -0.000087 -0.000001
  0N   4s        -1.787609 -0.000028  0.000000 -5.764244  0.000332  0.000002
  0N   5s         3.017501  0.000128 -0.000001  0.145555 -0.000019 -0.000000
  0N   1pz       -0.348225  0.136699  0.780095 -0.047823 -0.080527  0.460991
  0N   1px        0.267920  0.828449 -0.002268  0.036781 -0.489521 -0.001077
  0N   1py       -0.673177  0.259026 -0.404436 -0.092450 -0.153186 -0.238893
  0N   2pz        0.397178  0.085770  0.489412  0.898795  0.528399 -3.025037
  0N   2px       -0.305621  0.519732 -0.001423 -0.691472  3.212232  0.007065
  0N   2py        0.767809  0.162524 -0.253733  1.737518  1.005171  1.567624
  0N   3pz       -0.359714  0.100429  0.573158  0.037801 -0.003764  0.021524
  0N   3px        0.276783  0.608682 -0.001666 -0.029095 -0.022870 -0.000050
  0N   3py       -0.695386  0.190299 -0.297150  0.073076 -0.007160 -0.011154
  0N   1dz2       0.005419  0.028691  0.025189  0.022265  0.143679 -0.108601
  0N   1dxz       0.006200  0.003062  0.025501  0.025470  0.004476 -0.140336
  0N   1dyz      -0.015577 -0.011436  0.020686 -0.063991 -0.066882 -0.089183
  0N   1dx2y2     0.012669 -0.033262  0.014679  0.052039 -0.153332 -0.063221
  0N   1dxy       0.011985  0.005748 -0.013211  0.049238  0.007894  0.072616
  0N   2dz2       0.080854 -0.545023 -0.418275 -0.128789 -0.867874  1.168590
  0N   2dxz       0.092541 -0.021403 -0.527277 -0.147305 -0.340059  0.483638
  0N   2dyz      -0.232458  0.249762 -0.343829  0.370091  0.127504  0.957118
  0N   2dx2y2     0.189088  0.586389 -0.243962 -0.300931  1.313741  0.678684
  0N   2dxy       0.178897 -0.037828  0.272886 -0.284765 -0.654763 -0.252004
  0N   1f0       -0.113483  0.111634  0.040677  0.016767 -0.163396  0.061452
  0N   1f+1      -0.112286 -0.048857  0.100744  0.060121  0.067383  0.165605
  0N   1f-1      -0.020843  0.028339  0.019425  0.007900 -0.033553 -0.018346
  0N   1f+2      -0.083069  0.055402 -0.059851 -0.003830 -0.107278 -0.078778
  0N   1f-2       0.015183 -0.032724  0.090183 -0.052806  0.071197  0.148319
  0N   1f+3      -0.127408 -0.101760 -0.077653  0.016569  0.170430 -0.127786
  0N   1f-3      -0.002251  0.041220 -0.043772  0.024506 -0.021223 -0.048725
  1H   1s         0.357049  0.140076 -0.000384  0.329849 -0.898971 -0.001979
  1H   2s        -0.845281 -1.759442  0.004820  2.002176 -2.246628 -0.004947
  1H   3s        -0.419514 -0.046236  0.000127 -0.253776  0.472334  0.001040
  1H   1pz       -0.133664 -0.058494  0.194092 -0.050858 -0.008330  0.465594
  1H   1px        0.356740  1.281646 -0.003510 -1.378430  1.352367  0.002979
  1H   1py       -0.258393 -0.114374 -0.100005 -0.098323 -0.013585 -0.240885
  2H   1s         0.357086 -0.069683  0.121469  0.329917  0.447733  0.779508
  2H   2s        -0.845367  0.875468 -1.526059  2.002382  1.118873  1.948026
  2H   3s        -0.419518  0.022984 -0.040112 -0.253820 -0.235243 -0.409555
  2H   1pz       -0.004479 -0.174301  0.556847 -0.771946 -0.599639 -0.437048
  2H   1px        0.018212  0.337064 -0.229299  0.511671 -0.150377  0.597546
  2H   1py       -0.459977  0.550152 -0.947291  1.027115  0.527341  0.946199
  3H   1s         0.357086 -0.070348 -0.121086  0.329916  0.451161 -0.777529
  3H   2s        -0.845366  0.883815  1.521240  2.002381  1.127441 -1.943081
  3H   3s        -0.419518  0.023203  0.039985 -0.253820 -0.237044  0.408515
  3H   1pz       -0.372834  0.555721  1.091876  1.284337  0.781382 -1.021360
  3H   1px        0.018211  0.338317  0.227453  0.511676 -0.147741 -0.598206
  3H   1py       -0.269432  0.176126  0.091899 -0.036572 -0.183873 -0.190822
                     36        37        38        39        40        41   
                   4.42774   4.68560   4.68561   4.81504   5.01973   5.01974
                   0.00000   0.00000   0.00000   0.00000   0.00000   0.00000
                  --------  --------  --------  --------  --------  --------
  0N   1s        -0.002313  0.000000  0.000000  0.000000 -0.000000  0.000000
  0N   2s        -0.004493  0.000000  0.000000 -0.000000  0.000000 -0.000000
  0N   3s        -0.105099  0.000003  0.000000  0.000000 -0.000025  0.000000
  0N   4s         0.504666 -0.000009 -0.000000  0.000000  0.000099 -0.000001
  0N   5s         0.307282 -0.000014 -0.000000  0.000000 -0.000025  0.000000
  0N   1pz        0.044586  0.017185 -0.098341  0.000009 -0.005560 -0.031843
  0N   1px       -0.034323  0.104424  0.000236  0.000000 -0.033806  0.000076
  0N   1py        0.086193  0.032677  0.050964 -0.000005 -0.010574  0.016502
  0N   2pz       -0.203659 -0.099783  0.571033 -0.000043  0.049582  0.283926
  0N   2px        0.156798 -0.606352 -0.001368 -0.000000  0.301448 -0.000675
  0N   2py       -0.393705 -0.189739 -0.295933  0.000022  0.094292 -0.147140
  0N   3pz       -0.055288 -0.016692  0.095536 -0.000016  0.000915  0.005234
  0N   3px        0.042554 -0.101438 -0.000229 -0.000000  0.005557 -0.000012
  0N   3py       -0.106880 -0.031739 -0.049511  0.000008  0.001740 -0.002712
  0N   1dz2      -0.023462  0.072102  0.257825 -0.000034 -0.356929  0.403111
  0N   1dxz      -0.026866 -0.188459 -0.292203  0.000017  0.399793 -0.826446
  0N   1dyz       0.067472 -0.202044  0.210170 -0.000028  0.529095  0.327682
  0N   1dx2y2    -0.054894  0.159170  0.149119 -0.000020 -0.127793  0.232557
  0N   1dxy      -0.051937 -0.365938  0.150107 -0.000009  0.777405  0.425304
  0N   2dz2      -0.027761  0.180997 -0.235727  0.000020  0.198542 -0.416941
  0N   2dxz      -0.031762  0.066061 -0.106505 -0.000004 -0.340045  0.596531
  0N   2dyz       0.079769 -0.030878 -0.193101  0.000017 -0.398253 -0.339573
  0N   2dx2y2    -0.064858 -0.267929 -0.136938  0.000012  0.216759 -0.240947
  0N   2dxy      -0.061401  0.127114  0.055457  0.000002 -0.660638 -0.306703
  0N   1f0       -0.226232  0.109844 -0.008200 -0.579533  0.113582  0.025291
  0N   1f+1       0.397385 -0.122372  0.220835  0.285267 -0.087330 -0.059435
  0N   1f-1       0.027250  0.167597 -0.844681  0.480791  0.099543  0.437676
  0N   1f+2      -0.395435 -0.406243  0.214212  0.661739 -0.176831 -0.139487
  0N   1f-2      -0.691488  0.377045  0.198851  0.255459  0.173802 -0.053787
  0N   1f+3      -0.286382  0.279448 -0.170642 -0.220973  0.088594  0.045992
  0N   1f-3       0.340534  0.731246  0.313470  0.344953  0.391565 -0.181382
  1H   1s        -0.009082  0.174918  0.000395  0.000000 -0.107166  0.000240
  1H   2s        -0.311917  0.452290  0.001021  0.000000 -0.208469  0.000468
  1H   3s        -0.011932 -0.049255 -0.000111  0.000000  0.043123 -0.000097
  1H   1pz        0.120223  0.181467 -0.078435 -0.299083  0.149453 -0.162491
  1H   1px        0.138473 -0.175652 -0.000397 -0.000001  0.141286 -0.000317
  1H   1py        0.232411  0.350368  0.041576  0.154712  0.289810  0.083231
  2H   1s        -0.009054 -0.087117 -0.151686  0.000010  0.053365 -0.092943
  2H   2s        -0.311841 -0.225248 -0.392216  0.000030  0.103791 -0.180790
  2H   3s        -0.011944  0.024533  0.042710  0.000002 -0.021467  0.037397
  2H   1pz        0.237678 -0.036758 -0.166731  0.194235 -0.230880  0.190634
  2H   1px       -0.169507  0.126306  0.074459  0.274955 -0.029263 -0.248370
  2H   1py        0.049073 -0.186781 -0.329968  0.009010 -0.047040  0.072092
  3H   1s        -0.009054 -0.087801  0.151291 -0.000011  0.053782  0.092703
  3H   2s        -0.311842 -0.227017  0.391195 -0.000030  0.104601  0.180323
  3H   3s        -0.011943  0.024726 -0.042599 -0.000002 -0.021634 -0.037301
  3H   1pz       -0.097279 -0.131988  0.172381  0.104877  0.095240  0.050882
  3H   1px       -0.169508  0.126641 -0.073888 -0.274955 -0.028149  0.248500
  3H   1py        0.222341 -0.139397  0.326112 -0.163737 -0.216500 -0.196277
                     42        43        44        45        46        47   
                   5.04022   5.30404   5.30404   5.82086   5.82089   6.16301
                   0.00000   0.00000   0.00000   0.00000   0.00000   0.00000
                  --------  --------  --------  --------  --------  --------
  0N   1s         0.001446  0.000000  0.000000 -0.000000 -0.000000 -0.003673
  0N   2s         0.002902  0.000000  0.000001 -0.000000 -0.000002 -0.045860
  0N   3s         0.143067 -0.000000 -0.000002  0.000001  0.000075  1.729282
  0N   4s        -0.765003 -0.000000 -0.000015 -0.000002 -0.000235 -5.575391
  0N   5s         0.716292  0.000000  0.000006  0.000000  0.000037  0.972389
  0N   1pz       -0.005173 -0.048957  0.008546 -0.322533  0.056331 -0.069424
  0N   1px        0.003979  0.000107  0.051985  0.000742  0.342493  0.053409
  0N   1py       -0.010001  0.025367  0.016273  0.167138  0.107183 -0.134208
  0N   2pz        0.125225 -0.355108  0.061986  2.680369 -0.468119  0.711775
  0N   2px       -0.096343  0.000775  0.377081 -0.006167 -2.846208 -0.547597
  0N   2py        0.242080  0.184001  0.118042 -1.388975 -0.890714  1.375977
  0N   3pz       -0.062996  0.311550 -0.054378 -0.128987  0.022526 -0.054336
  0N   3px        0.048486 -0.000680 -0.330813  0.000297  0.136963  0.041808
  0N   3py       -0.121781 -0.161431 -0.103554  0.066842  0.042861 -0.105041
  0N   1dz2      -0.258586  0.697987 -0.733977 -0.174733  0.092674 -0.023233
  0N   1dxz      -0.295861  0.615409 -0.110132 -0.016200  0.066802 -0.026580
  0N   1dyz       0.743408  0.572357  0.264668 -0.142973  0.013310  0.066776
  0N   1dx2y2    -0.604689  0.405691  0.891562 -0.101385 -0.178046 -0.054306
  0N   1dxy      -0.571948 -0.318889 -0.209791  0.008735  0.129050 -0.051383
  0N   2dz2       0.158438 -0.396762  0.476375 -1.067417  1.155985 -0.155341
  0N   2dxz       0.181271 -0.439365  0.037119 -0.991580  0.154219 -0.177688
  0N   2dyz      -0.455499 -0.325555 -0.202114 -0.875564 -0.433731  0.446431
  0N   2dx2y2     0.370508 -0.230741 -0.536101 -0.620719 -1.380071 -0.363032
  0N   2dxy       0.350426  0.227458  0.069535  0.513735  0.292842 -0.343500
  0N   1f0       -0.034582  0.070187 -0.203363  0.273948 -0.755227  0.705736
  0N   1f+1      -0.122864  0.142806  0.098577  0.664122  0.335027  0.838171
  0N   1f-1      -0.016161  0.140524 -0.069371  0.176495 -0.199283  0.145113
  0N   1f+2       0.007452 -0.128758 -0.042393 -0.413246 -0.350036  0.464846
  0N   1f-2       0.107600  0.127714  0.007643  0.594487  0.199480 -0.256900
  0N   1f+3      -0.034224 -0.110178  0.137009 -0.512412  0.667597  0.785077
  0N   1f-3      -0.049874 -0.114101 -0.163058 -0.310753 -0.316688  0.091686
  1H   1s         0.017190  0.000231  0.112151  0.002865  1.320798  0.854594
  1H   2s         0.019695 -0.000166 -0.080748  0.004252  1.960141  1.229893
  1H   3s        -0.122865  0.000413  0.200588 -0.001055 -0.486296 -0.295545
  1H   1pz       -0.060090  0.156599 -0.032797  0.178849  0.023891  0.051473
  1H   1px       -0.176959  0.000807  0.392262 -0.002871 -1.323598 -0.953798
  1H   1py       -0.116165 -0.081170 -0.062610 -0.092387  0.047129  0.099501
  2H   1s         0.017200 -0.097244 -0.055880 -1.145241 -0.657869  0.854697
  2H   2s         0.019723  0.069999  0.040239 -1.699611 -0.976307  1.230035
  2H   3s        -0.122865 -0.173922 -0.099939  0.421665  0.242216 -0.295579
  2H   1pz       -0.173655 -0.083120 -0.165099  0.612289  0.217833 -0.413556
  2H   1px        0.120650  0.156235 -0.076325 -0.279070 -0.349852  0.265146
  2H   1py        0.061007  0.309572  0.172461 -0.936224 -0.543984  0.825306
  3H   1s         0.017200  0.097013 -0.056280  1.142377 -0.662831  0.854696
  3H   2s         0.019723 -0.069833  0.040526  1.695360 -0.983671  1.230034
  3H   3s        -0.122865  0.173509 -0.100654 -0.420610  0.244043 -0.295578
  3H   1pz        0.150130 -0.299718  0.237388  1.115423 -0.574694  0.912548
  3H   1px        0.120651 -0.156549 -0.075680  0.277554 -0.351061  0.265149
  3H   1py       -0.106483 -0.111175 -0.034645  0.040626 -0.136704  0.139331
                     48   
                  32.82528
                   0.00000
                  --------
  0N   1s        -1.388026
  0N   2s         1.692430
  0N   3s        -1.492108
  0N   4s         1.497195
  0N   5s        -1.150239
  0N   1pz        0.008788
  0N   1px       -0.006763
  0N   1py        0.016989
  0N   2pz       -0.011515
  0N   2px        0.008862
  0N   2py       -0.022260
  0N   3pz        0.057735
  0N   3px       -0.044430
  0N   3py        0.111611
  0N   1dz2      -0.000867
  0N   1dxz      -0.000992
  0N   1dyz       0.002492
  0N   1dx2y2    -0.002027
  0N   1dxy      -0.001917
  0N   2dz2       0.000017
  0N   2dxz       0.000019
  0N   2dyz      -0.000048
  0N   2dx2y2     0.000038
  0N   2dxy       0.000036
  0N   1f0       -0.005110
  0N   1f+1      -0.007318
  0N   1f-1      -0.001189
  0N   1f+2      -0.002904
  0N   1f-2       0.003311
  0N   1f+3      -0.005620
  0N   1f-3      -0.001357
  1H   1s        -0.027378
  1H   2s         0.027791
  1H   3s         0.196093
  1H   1pz       -0.002173
  1H   1px       -0.037807
  1H   1py       -0.004201
  2H   1s        -0.027378
  2H   2s         0.027790
  2H   3s         0.196095
  2H   1pz       -0.022254
  2H   1px        0.014831
  2H   1py        0.027140
  3H   1s        -0.027378
  3H   2s         0.027790
  3H   3s         0.196095
  3H   1pz        0.035009
  3H   1px        0.014832
  3H   1py       -0.002482



                    ********************************
                    * MULLIKEN POPULATION ANALYSIS *
                    ********************************

-----------------------
MULLIKEN ATOMIC CHARGES
-----------------------
   0 N :   -0.704663
   1 H :    0.234886
   2 H :    0.234888
   3 H :    0.234888
Sum of atomic charges:    0.0000000

--------------------------------
MULLIKEN REDUCED ORBITAL CHARGES
--------------------------------
  0 N s       :     3.567325  s :     3.567325
      pz      :     1.277987  p :     4.100187
      px      :     1.231375
      py      :     1.590825
      dz2     :     0.012013  d :     0.035189
      dxz     :     0.001258
      dyz     :     0.005820
      dx2y2   :     0.012979
      dxy     :     0.003120
      f0      :     0.000456  f :     0.001962
      f+1     :     0.000445
      f-1     :     0.000004
      f+2     :     0.000281
      f-2     :     0.000141
      f+3     :     0.000654
      f-3     :    -0.000020
  1 H s       :     0.729219  s :     0.729219
      pz      :     0.006813  p :     0.035894
      px      :     0.019563
      py      :     0.009518
  2 H s       :     0.729217  s :     0.729217
      pz      :     0.010288  p :     0.035895
      px      :     0.007906
      py      :     0.017701
  3 H s       :     0.729217  s :     0.729217
      pz      :     0.018454  p :     0.035895
      px      :     0.007906
      py      :     0.009534


                     *******************************
                     * LOEWDIN POPULATION ANALYSIS *
                     *******************************

----------------------
LOEWDIN ATOMIC CHARGES
----------------------
   0 N :   -0.385725
   1 H :    0.128575
   2 H :    0.128575
   3 H :    0.128575

-------------------------------
LOEWDIN REDUCED ORBITAL CHARGES
-------------------------------
  0 N s       :     3.176056  s :     3.176056
      pz      :     1.300071  p :     4.131184
      px      :     1.259633
      py      :     1.571480
      dz2     :     0.025689  d :     0.073046
      dxz     :     0.006473
      dyz     :     0.010752
      dx2y2   :     0.025601
      dxy     :     0.004531
      f0      :     0.001246  f :     0.005440
      f+1     :     0.001332
      f-1     :     0.000087
      f+2     :     0.000572
      f-2     :     0.000525
      f+3     :     0.001475
      f-3     :     0.000203
  1 H s       :     0.757776  s :     0.757776
      pz      :     0.022068  p :     0.113649
      px      :     0.059929
      py      :     0.031652
  2 H s       :     0.757776  s :     0.757776
      pz      :     0.031776  p :     0.113649
      px      :     0.024785
      py      :     0.057089
  3 H s       :     0.757776  s :     0.757776
      pz      :     0.057085  p :     0.113649
      px      :     0.024785
      py      :     0.031779


                      *****************************
                      * MAYER POPULATION ANALYSIS *
                      *****************************

  NA   - Mulliken gross atomic population
  ZA   - Total nuclear charge
  QA   - Mulliken gross atomic charge
  VA   - Mayer's total valence
  BVA  - Mayer's bonded valence
  FA   - Mayer's free valence

  ATOM       NA         ZA         QA         VA         BVA        FA
  0 N      7.7047     7.0000    -0.7047     2.8315     2.8315     0.0000
  1 H      0.7651     1.0000     0.2349     0.9439     0.9439     0.0000
  2 H      0.7651     1.0000     0.2349     0.9439     0.9439     0.0000
  3 H      0.7651     1.0000     0.2349     0.9439     0.9439     0.0000

  Mayer bond orders larger than 0.100000
B(  0-N ,  1-H ) :   0.9438 B(  0-N ,  2-H ) :   0.9438 B(  0-N ,  3-H ) :   0.9438 


Now starting NBO....

 *********************************** NBO 7.0 ***********************************
             N A T U R A L   A T O M I C   O R B I T A L   A N D
          N A T U R A L   B O N D   O R B I T A L   A N A L Y S I S
 *********************** Giovanni  F. Caramori (I101916) ***********************
  (c) Copyright 1996-2020 Board of Regents of the University of Wisconsin System
      on behalf of the Theoretical Chemistry Institute.  All rights reserved.

          Cite this program [NBO 7.0.8 (11-Feb-2020)] as:

          NBO 7.0.  E. D. Glendening, J. K. Badenhoop, A. E. Reed,
          J. E. Carpenter, J. A. Bohmann, C. M. Morales, P. Karafiloglou,
          C. R. Landis, and F. Weinhold, Theoretical Chemistry Institute,
          University of Wisconsin, Madison, WI (2018)

       /NPA    / : Natural Population Analysis
       /NBO    / : Natural Bond Orbital Analysis
       /AONBO  / : Checkpoint the AO to NBO transformation
       /ARCHIVE/ : Write the archive file to lfn47

 Job title: ORCA Job: NH3


 NATURAL POPULATIONS:  Natural atomic orbital occupancies

  NAO Atom No lang   Type(AO)    Occupancy      Energy
 -------------------------------------------------------
   1    N  1  s      Cor( 1s)     2.00000     -15.53731
   2    N  1  s      Val( 2s)     1.50193      -0.63865
   3    N  1  s      Ryd( 3s)     0.00015       1.98009
   4    N  1  s      Ryd( 4s)     0.00000       5.47608
   5    N  1  s      Ryd( 5s)     0.00000      28.69542
   6    N  1  px     Val( 2p)     1.38783      -0.22226
   7    N  1  px     Ryd( 3p)     0.00192       0.75263
   8    N  1  px     Ryd( 4p)     0.00002       3.04979
   9    N  1  py     Val( 2p)     1.68498      -0.30689
  10    N  1  py     Ryd( 3p)     0.00401       0.65801
  11    N  1  py     Ryd( 4p)     0.00014       2.69610
  12    N  1  pz     Val( 2p)     1.42637      -0.23323
  13    N  1  pz     Ryd( 3p)     0.00220       0.74037
  14    N  1  pz     Ryd( 4p)     0.00004       3.00393
  15    N  1  dxy    Ryd( 3d)     0.00242       1.62251
  16    N  1  dxy    Ryd( 4d)     0.00001       4.80110
  17    N  1  dxz    Ryd( 3d)     0.00087       1.68590
  18    N  1  dxz    Ryd( 4d)     0.00002       4.82080
  19    N  1  dyz    Ryd( 3d)     0.00381       1.75734
  20    N  1  dyz    Ryd( 4d)     0.00002       4.82897
  21    N  1  dx2y2  Ryd( 3d)     0.00643       2.01502
  22    N  1  dx2y2  Ryd( 4d)     0.00001       4.87418
  23    N  1  dz2    Ryd( 3d)     0.00543       2.01130
  24    N  1  dz2    Ryd( 4d)     0.00001       4.87440
  25    N  1  f(0)   Ryd( 4f)     0.00018       5.07219
  26    N  1  f(c1)  Ryd( 4f)     0.00018       5.05204
  27    N  1  f(s1)  Ryd( 4f)     0.00001       4.71203
  28    N  1  f(c2)  Ryd( 4f)     0.00012       4.80443
  29    N  1  f(s2)  Ryd( 4f)     0.00008       4.65386
  30    N  1  f(c3)  Ryd( 4f)     0.00026       5.06510
  31    N  1  f(s3)  Ryd( 4f)     0.00001       4.73071

  32    H  2  s      Val( 1s)     0.65586       0.19617
  33    H  2  s      Ryd( 2s)     0.00019       1.04981
  34    H  2  s      Ryd( 3s)     0.00002       1.85801
  35    H  2  px     Ryd( 2p)     0.00048       3.04682
  36    H  2  py     Ryd( 2p)     0.00020       2.25981
  37    H  2  pz     Ryd( 2p)     0.00008       2.28234

  38    H  3  s      Val( 1s)     0.65586       0.19618
  39    H  3  s      Ryd( 2s)     0.00019       1.04984
  40    H  3  s      Ryd( 3s)     0.00002       1.85798
  41    H  3  px     Ryd( 2p)     0.00009       2.36146
  42    H  3  py     Ryd( 2p)     0.00052       2.76645
  43    H  3  pz     Ryd( 2p)     0.00015       2.46105

  44    H  4  s      Val( 1s)     0.65586       0.19618
  45    H  4  s      Ryd( 2s)     0.00019       1.04984
  46    H  4  s      Ryd( 3s)     0.00002       1.85798
  47    H  4  px     Ryd( 2p)     0.00009       2.36146
  48    H  4  py     Ryd( 2p)     0.00020       2.26338
  49    H  4  pz     Ryd( 2p)     0.00046       2.96411


 Summary of Natural Population Analysis:

                                     Natural Population
             Natural    ---------------------------------------------
  Atom No    Charge        Core      Valence    Rydberg      Total
 --------------------------------------------------------------------
    N  1   -1.02948      2.00000     6.00111    0.02838     8.02948
    H  2    0.34316      0.00000     0.65586    0.00097     0.65684
    H  3    0.34316      0.00000     0.65586    0.00097     0.65684
    H  4    0.34316      0.00000     0.65586    0.00097     0.65684
 ====================================================================
 * Total *  0.00000      2.00000     7.96870    0.03131    10.00000

                                 Natural Population
 ---------------------------------------------------------
   Core                       2.00000 ( 99.9998% of    2)
   Valence                    7.96870 ( 99.6087% of    8)
   Natural Minimal Basis      9.96869 ( 99.6869% of   10)
   Natural Rydberg Basis      0.03131 (  0.3131% of   10)
 ---------------------------------------------------------

    Atom No         Natural Electron Configuration
 ----------------------------------------------------------------------------
      N  1      [core]2s( 1.50)2p( 4.50)3p( 0.01)3d( 0.02)
      H  2            1s( 0.66)
      H  3            1s( 0.66)
      H  4            1s( 0.66)


 NATURAL BOND ORBITAL ANALYSIS:

                            Occupancies       Lewis Structure    Low   High
         Max    Occ     -------------------  -----------------   occ   occ
  Cycle  Ctr   Thresh    Lewis   non-Lewis     CR  BD  nC  LP    (L)   (NL)
 ============================================================================
    1     2     1.90     9.99818   0.00182      1   3   0   1     0      0
 ----------------------------------------------------------------------------

 Structure accepted: No low occupancy Lewis orbitals

 -------------------------------------------------------
   Core                      2.00000 (100.000% of   2)
   Valence Lewis             7.99819 ( 99.977% of   8)
  ==================      =============================
   Total Lewis               9.99818 ( 99.982% of  10)
  -----------------------------------------------------
   Valence non-Lewis         0.00002 (  0.000% of  10)
   Rydberg non-Lewis         0.00180 (  0.018% of  10)
  ==================      =============================
   Total non-Lewis           0.00182 (  0.018% of  10)
 -------------------------------------------------------


     (Occupancy)   Bond orbital / Coefficients / Hybrids
 ------------------ Lewis ------------------------------------------------------
   1. (2.00000) CR ( 1) N  1            s(100.00%)
                                         1.0000  0.0000  0.0000  0.0000  0.0000
                                         0.0000  0.0000  0.0000  0.0000  0.0000
                                         0.0000  0.0000  0.0000  0.0000  0.0000
                                         0.0000  0.0000  0.0000  0.0000  0.0000
                                         0.0000  0.0000  0.0000  0.0000  0.0000
                                         0.0000  0.0000  0.0000  0.0000  0.0000
                                         0.0000
   2. (1.99880) LP ( 1) N  1            s( 24.02%)p 3.16( 75.82%)d 0.01(  0.16%)
                                                  f 0.00(  0.00%)
                                         0.0000  0.4901  0.0072  0.0000  0.0000
                                        -0.2898 -0.0167 -0.0007  0.7279  0.0420
                                         0.0018  0.3766  0.0217  0.0009  0.0190
                                        -0.0021  0.0098 -0.0011 -0.0247  0.0027
                                         0.0201 -0.0022  0.0086 -0.0009  0.0016
                                        -0.0023 -0.0001  0.0026  0.0043  0.0020
                                        -0.0021
   3. (1.99980) BD ( 1) N  1- H  2
               ( 67.18%)   0.8197* N  1 s( 25.27%)p 2.94( 74.31%)d 0.02(  0.40%)
                                                  f 0.00(  0.02%)
                                         0.0000  0.5027 -0.0035  0.0000  0.0000
                                         0.8616 -0.0251 -0.0011  0.0035 -0.0104
                                         0.0060  0.0018 -0.0054  0.0031 -0.0249
                                         0.0014 -0.0129  0.0007 -0.0034  0.0009
                                         0.0497  0.0017 -0.0259 -0.0017 -0.0024
                                        -0.0071 -0.0006 -0.0012 -0.0019 -0.0113
                                        -0.0010
               ( 32.82%)   0.5728* H  2 s( 99.94%)p 0.00(  0.06%)
                                         0.9997  0.0000  0.0000 -0.0239  0.0000
                                         0.0000
   4. (1.99980) BD ( 1) N  1- H  3
               ( 67.18%)   0.8197* N  1 s( 25.27%)p 2.94( 74.31%)d 0.02(  0.40%)
                                                  f 0.00(  0.02%)
                                         0.0000  0.5027 -0.0035  0.0000  0.0000
                                        -0.2890  0.0139 -0.0028 -0.6816  0.0128
                                         0.0050  0.4407 -0.0203  0.0038  0.0222
                                         0.0010 -0.0006 -0.0023 -0.0352 -0.0015
                                        -0.0414 -0.0005 -0.0223  0.0007 -0.0066
                                        -0.0013 -0.0032 -0.0074  0.0051 -0.0074
                                         0.0001
               ( 32.82%)   0.5728* H  3 s( 99.94%)p 0.00(  0.06%)
                                         0.9997  0.0000  0.0000  0.0080  0.0190
                                        -0.0121
   5. (1.99980) BD ( 1) N  1- H  4
               ( 67.18%)   0.8197* N  1 s( 25.27%)p 2.94( 74.31%)d 0.02(  0.40%)
                                                  f 0.00(  0.02%)
                                         0.0000  0.5027 -0.0035  0.0000  0.0000
                                        -0.2890  0.0139 -0.0028 -0.0341 -0.0092
                                         0.0060 -0.8109  0.0222  0.0019  0.0124
                                        -0.0013  0.0184  0.0021  0.0261 -0.0008
                                         0.0019  0.0000  0.0526  0.0016 -0.0091
                                        -0.0088  0.0006 -0.0050 -0.0016 -0.0016
                                         0.0010
               ( 32.82%)   0.5728* H  4 s( 99.94%)p 0.00(  0.06%)
                                         0.9997  0.0000  0.0000  0.0080  0.0010
                                         0.0225
 ---------------- non-Lewis ----------------------------------------------------
   6. (0.00001) BD*( 1) N  1- H  2
               ( 32.82%)   0.5728* N  1 s( 25.27%)p 2.94( 74.31%)d 0.02(  0.40%)
                                                  f 0.00(  0.02%)
               ( 67.18%)  -0.8197* H  2 s( 99.94%)p 0.00(  0.06%)
   7. (0.00001) BD*( 1) N  1- H  3
               ( 32.82%)   0.5728* N  1 s( 25.27%)p 2.94( 74.31%)d 0.02(  0.40%)
                                                  f 0.00(  0.02%)
               ( 67.18%)  -0.8197* H  3 s( 99.94%)p 0.00(  0.06%)
   8. (0.00001) BD*( 1) N  1- H  4
               ( 32.82%)   0.5728* N  1 s( 25.27%)p 2.94( 74.31%)d 0.02(  0.40%)
                                                  f 0.00(  0.02%)
               ( 67.18%)  -0.8197* H  4 s( 99.94%)p 0.00(  0.06%)
   9. (0.00000) RY ( 1) N  1            s(  5.62%)p15.84( 89.03%)d 0.07(  0.38%)
                                                  f 0.88(  4.97%)
  10. (0.00000) RY ( 2) N  1            s( 81.83%)p 0.18( 14.49%)d 0.01(  1.07%)
                                                  f 0.03(  2.61%)
  11. (0.00000) RY ( 3) N  1            s( 77.29%)p 0.14( 11.14%)d 0.07(  5.73%)
                                                  f 0.08(  5.83%)
  12. (0.00000) RY ( 4) N  1            s(100.00%)
  13. (0.00000) RY ( 5) N  1            s(  1.69%)p27.70( 46.72%)d 0.00(  0.00%)
                                                  f30.58( 51.59%)
  14. (0.00000) RY ( 6) N  1            s(  7.76%)p 9.35( 72.57%)d 0.72(  5.60%)
                                                  f 1.81( 14.07%)
  15. (0.00000) RY ( 7) N  1            s(  0.27%)p99.99( 98.38%)d 0.00(  0.00%)
                                                  f 4.96(  1.35%)
  16. (0.00000) RY ( 8) N  1            s(  0.52%)p99.99( 99.48%)d 0.00(  0.00%)
                                                  f 0.00(  0.00%)
  17. (0.00000) RY ( 9) N  1            s( 12.95%)p 3.27( 42.42%)d 3.42( 44.29%)
                                                  f 0.03(  0.34%)
  18. (0.00000) RY (10) N  1            s(  0.03%)p 8.72(  0.22%)d99.99( 99.75%)
                                                  f 0.00(  0.00%)
  19. (0.00000) RY (11) N  1            s(  0.00%)p 0.00(  0.01%)d 1.00( 99.99%)
                                                  f 0.00(  0.00%)
  20. (0.00000) RY (12) N  1            s(  0.01%)p 1.00(  0.08%)d99.99( 99.92%)
                                                  f 0.00(  0.00%)
  21. (0.00000) RY (13) N  1            s(  0.00%)p 0.00(  0.00%)d 1.00(100.00%)
                                                  f 0.00(  0.00%)
  22. (0.00000) RY (14) N  1            s(  2.57%)p 0.30(  0.77%)d37.55( 96.65%)
                                                  f 0.00(  0.01%)
  23. (0.00000) RY (15) N  1            s(  0.00%)p 1.00(  0.01%)d99.99( 99.99%)
                                                  f 0.05(  0.00%)
  24. (0.00000) RY (16) N  1            s(  0.69%)p 5.66(  3.93%)d99.99( 94.87%)
                                                  f 0.73(  0.51%)
  25. (0.00000) RY (17) N  1            s(  0.76%)p 0.18(  0.14%)d99.99( 99.11%)
                                                  f 0.00(  0.00%)
  26. (0.00000) RY (18) N  1            s(  3.35%)p13.70( 45.85%)d15.17( 50.76%)
                                                  f 0.01(  0.04%)
  27. (0.00000) RY (19) N  1            s(  0.00%)p 0.00(  0.00%)d 1.00(100.00%)
                                                  f 0.00(  0.00%)
  28. (0.00000) RY (20) N  1            s(  1.17%)p 1.01(  1.19%)d 0.06(  0.06%)
                                                  f83.20( 97.57%)
  29. (0.00000) RY (21) N  1            s(  1.52%)p 1.16(  1.76%)d 0.05(  0.08%)
                                                  f63.68( 96.64%)
  30. (0.00000) RY (22) N  1            s(  0.00%)p 1.00(  0.05%)d 0.00(  0.00%)
                                                  f99.99( 99.95%)
  31. (0.00000) RY (23) N  1            s(  0.69%)p 0.66(  0.46%)d 0.06(  0.04%)
                                                  f99.99( 98.81%)
  32. (0.00000) RY (24) N  1            s(  0.01%)p15.30(  0.21%)d 0.05(  0.00%)
                                                  f99.99( 99.77%)
  33. (0.00000) RY (25) N  1            s(  1.41%)p51.17( 72.32%)d 0.26(  0.37%)
                                                  f18.32( 25.89%)
  34. (0.00000) RY (26) N  1            s(  0.00%)p 1.00(  0.03%)d 0.00(  0.00%)
                                                  f99.99( 99.97%)
  35. (0.00040) RY ( 1) H  2            s( 28.24%)p 2.54( 71.76%)
                                         0.0088  0.5041  0.1677  0.3675 -0.6779
                                        -0.3507
  36. (0.00016) RY ( 2) H  2            s( 65.29%)p 0.53( 34.71%)
                                        -0.0135  0.7558 -0.2854 -0.5659  0.1455
                                         0.0753
  37. (0.00004) RY ( 3) H  2            s(  0.00%)p 1.00(100.00%)
  38. (0.00000) RY ( 4) H  2            s( 36.99%)p 1.70( 63.01%)
  39. (0.00000) RY ( 5) H  2            s( 69.55%)p 0.44( 30.45%)
  40. (0.00040) RY ( 1) H  3            s( 28.24%)p 2.54( 71.76%)
                                         0.0088  0.5041  0.1678  0.2373 -0.7554
                                        -0.3010
  41. (0.00016) RY ( 2) H  3            s( 65.29%)p 0.53( 34.71%)
                                        -0.0135  0.7558 -0.2854  0.1114  0.5488
                                        -0.1831
  42. (0.00004) RY ( 3) H  3            s(  0.00%)p 1.00(100.00%)
  43. (0.00000) RY ( 4) H  3            s( 69.55%)p 0.44( 30.45%)
  44. (0.00000) RY ( 5) H  3            s( 36.98%)p 1.70( 63.02%)
  45. (0.00040) RY ( 1) H  4            s( 28.24%)p 2.54( 71.76%)
                                         0.0088  0.5041  0.1678  0.2373 -0.6822
                                        -0.4426
  46. (0.00016) RY ( 2) H  4            s( 65.29%)p 0.53( 34.71%)
                                        -0.0135  0.7558 -0.2854  0.1114  0.1676
                                         0.5537
[...]
                                         0.4445
  49. (0.00022) RY ( 5) H  4            s( 42.84%)p 1.33( 57.16%)
                                         0.0164 -0.3355  0.5618 -0.2195 -0.0911
                                        -0.7177


 NHO DIRECTIONALITY AND BOND BENDING (deviation from line of nuclear centers at
                                      the position of maximum hybrid amplitude)

         [Thresholds for printing:  angular deviation  >  1.0 degree]
                                    p- or d-character  > 25.0%
                                    orbital occupancy  >  0.10e

                        Line of Centers        Hybrid 1             Hybrid 2
                        ---------------  -------------------  ------------------
           NBO            Theta   Phi    Theta   Phi    Dev   Theta   Phi    Dev
 ===============================================================================
   2. LP ( 1) N  1          --     --     64.4  111.4   --      --     --    --
   4. BD ( 1) N  1- H  3   61.1  249.0    60.2  248.4   1.1     --     --    --
   5. BD ( 1) N  1- H  4  161.1  194.0   160.8  191.0   1.0     --     --    --


 NATURAL BOND ORBITALS (Summary):

           NBO                 Occupancy
 ========================================
 Molecular unit  1  (H3N)
 ------ Lewis ---------------------------
    1. CR ( 1) N  1             1.99943
    2. LP ( 1) N  1             1.96379
    3. BD ( 1) N  1- H  2       1.96949
    4. BD ( 1) N  1- H  3       1.96949
    5. BD ( 1) N  1- H  4       1.96949
 ------ non-Lewis -----------------------
    6. BD*( 1) N  1- H  2       0.01686
    7. BD*( 1) N  1- H  3       0.01686
    8. BD*( 1) N  1- H  4       0.01686
    9. RY ( 1) N  1             0.01834
   10. RY ( 2) N  1             0.00766
   11. RY ( 3) N  1             0.00766
   12. RY ( 4) N  1             0.00632
   13. RY ( 5) N  1             0.00613
   14. RY ( 6) N  1             0.00613
   15. RY ( 7) N  1             0.00215
   16. RY ( 8) N  1             0.00215
   17. RY ( 9) N  1             0.00214
   18. RY (10) N  1             0.00063
   19. RY (11) N  1             0.00047
   20. RY (12) N  1             0.00047
   21. RY (13) N  1             0.00041
   22. RY (14) N  1             0.00038
   23. RY (15) N  1             0.00038
   24. RY (16) N  1             0.00037
   25. RY (17) N  1             0.00036
   26. RY (18) N  1             0.00034
   27. RY (19) N  1             0.00034
   28. RY (20) N  1             0.00030
   29. RY (21) N  1             0.00030
   30. RY (22) N  1             0.00027
   31. RY (23) N  1             0.00019
   32. RY (24) N  1             0.00014
   33. RY (25) N  1             0.00014
   34. RY (26) N  1             0.00010
   35. RY ( 1) H  2             0.00203
   36. RY ( 2) H  2             0.00113
   37. RY ( 3) H  2             0.00076
   38. RY ( 4) H  2             0.00036
   39. RY ( 5) H  2             0.00022
   40. RY ( 1) H  3             0.00203
   41. RY ( 2) H  3             0.00113
   42. RY ( 3) H  3             0.00076
   43. RY ( 4) H  3             0.00036
   44. RY ( 5) H  3             0.00022
   45. RY ( 1) H  4             0.00203
   46. RY ( 2) H  4             0.00113
   47. RY ( 3) H  4             0.00076
   48. RY ( 4) H  4             0.00036
   49. RY ( 5) H  4             0.00022
          -------------------------------
                 Total Lewis    9.87170  ( 98.7170%)
           Valence non-Lewis    0.05057  (  0.5057%)
           Rydberg non-Lewis    0.07773  (  0.7773%)
          -------------------------------
               Total unit  1   10.00000  (100.0000%)
              Charge unit  1    0.00000

 $CHOOSE
   LONE 1 1 END
   BOND S 1 2 S 1 3 S 1 4 END
 $END

 NBO analysis completed in 0.06 CPU seconds (0 wall seconds)
 Maximum scratch memory used by NBO was 424789 words (3.24 MB)
Stopping NBO...Storing NBOs: NH3.pmp2re.nbo

                                *** returned from   NBO  program ***


----------------------------------
MP2 DERIVATIVE INTEGRAL GENERATION
----------------------------------


Input Wavefunction Amplitudes       ... NH3.mp2tsaa.tmp
Input Correlated Electron Density   ... NH3.pmp2re
Input Energy Weighted Density       ... NH3.wmp2.tmp
Input SCF Electron Density          ... NH3.scfp

One-Electron Terms    ...
                        ... One-Electron Terms done
Prescreening matrices              ... done

Batch handling in the gradient evaluation:
Memory available                      ...  256.0 MB
Memory per occupied orbital in Q2     ...    0.1 MB
Memory per occupied orbital in Q3     ...    0.0 MB
Total memory requirement per |i>      ...    0.1 MB
Max. Number of orbitals possible      ...   2329
Number of orbitals treated per batch  ...      5
Number of batches to be done          ...      1
Batch   0: i=    0 ...     4

---------------------------------------
MP2 TOTAL ENERGY:      -56.461944827 Eh
---------------------------------------

-----------------------------------
NORM OF THE MP2 GRADIENT:  0.000013
-----------------------------------

-------------------------   --------------------
FINAL SINGLE POINT ENERGY       -56.461944826956
-------------------------   --------------------

                                *** OPTIMIZATION RUN DONE ***

                            ***************************************
                            *     ORCA property calculations      *
                            ***************************************

                                    ---------------------
                                    Active property flags
                                    ---------------------
   (+) Dipole Moment


------------------------------------------------------------------------------
                       ORCA ELECTRIC PROPERTIES CALCULATION
------------------------------------------------------------------------------

Dipole Moment Calculation                       ... on
Quadrupole Moment Calculation                   ... off
Polarizability Calculation                      ... off
GBWName                                         ... NH3.gbw
Electron density file                           ... NH3.scfp
The origin for moment calculation is the CENTER OF MASS  = (-4.575624, -5.350386 -0.032994)

-------------
DIPOLE MOMENT
-------------
                                X             Y             Z
Electronic contribution:     -0.06157       0.15464       0.07999
Nuclear contribution   :      0.28928      -0.72667      -0.37590
                        -----------------------------------------
Total Dipole Moment    :      0.22771      -0.57203      -0.29591
                        -----------------------------------------
Magnitude (a.u.)       :      0.68311
Magnitude (Debye)      :      1.73632



--------------------
Rotational spectrum 
--------------------
 
Rotational constants in cm-1:     9.993955     9.993672     6.304344 
Rotational constants in MHz : 299611.226537 299602.756448 188999.482275 

 Dipole components along the rotational axes: 
x,y,z [a.u.] :    -0.000000     0.000016    -0.683108 
x,y,z [Debye]:    -0.000000     0.000040    -1.736323 

 

                         *** MP2 UNRELAXED DENSITY ***

------------------------------------------------------------------------------
                       ORCA ELECTRIC PROPERTIES CALCULATION
------------------------------------------------------------------------------

Dipole Moment Calculation                       ... on
Quadrupole Moment Calculation                   ... off
Polarizability Calculation                      ... off
GBWName                                         ... NH3.gbw
Electron density file                           ... NH3.pmp2ur
The origin for moment calculation is the CENTER OF MASS  = (-4.575624, -5.350386 -0.032994)

-------------
DIPOLE MOMENT
-------------
                                X             Y             Z
Electronic contribution:     -0.06296       0.15814       0.08181
Nuclear contribution   :      0.28928      -0.72667      -0.37590
                        -----------------------------------------
Total Dipole Moment    :      0.22632      -0.56853      -0.29409
                        -----------------------------------------
Magnitude (a.u.)       :      0.67892
Magnitude (Debye)      :      1.72568



--------------------
Rotational spectrum 
--------------------
 
Rotational constants in cm-1:     9.993955     9.993672     6.304344 
Rotational constants in MHz : 299611.226537 299602.756448 188999.482275 

 Dipole components along the rotational axes: 
x,y,z [a.u.] :    -0.000000     0.000016    -0.678921 
x,y,z [Debye]:    -0.000000     0.000040    -1.725680 

 

                           *** MP2 RELAXED DENSITY ***

------------------------------------------------------------------------------
                       ORCA ELECTRIC PROPERTIES CALCULATION
------------------------------------------------------------------------------

Dipole Moment Calculation                       ... on
Quadrupole Moment Calculation                   ... off
Polarizability Calculation                      ... off
GBWName                                         ... NH3.gbw
Electron density file                           ... NH3.pmp2re
The origin for moment calculation is the CENTER OF MASS  = (-4.575624, -5.350386 -0.032994)

-------------
DIPOLE MOMENT
-------------
                                X             Y             Z
Electronic contribution:     -0.06333       0.15907       0.08228
Nuclear contribution   :      0.28928      -0.72667      -0.37590
                        -----------------------------------------
Total Dipole Moment    :      0.22595      -0.56760      -0.29361
                        -----------------------------------------
Magnitude (a.u.)       :      0.67782
Magnitude (Debye)      :      1.72287



--------------------
Rotational spectrum 
--------------------
 
Rotational constants in cm-1:     9.993955     9.993672     6.304344 
Rotational constants in MHz : 299611.226537 299602.756448 188999.482275 

 Dipole components along the rotational axes: 
x,y,z [a.u.] :    -0.000000     0.000016    -0.677817 
x,y,z [Debye]:    -0.000000     0.000040    -1.722875 

 
------------------------------------------------------------------------------
                         ORCA MP2 H E S S I A N CALCULATION
------------------------------------------------------------------------------

Calculating analytic MP2 second derivatives ... (>NH3.last_mp2) done

-----------------------
VIBRATIONAL FREQUENCIES
-----------------------

Scaling factor for frequencies =  1.000000000  (already applied!)

   0:         0.00 cm**-1
   1:         0.00 cm**-1
   2:         0.00 cm**-1
   3:         0.00 cm**-1
   4:         0.00 cm**-1
   5:         0.00 cm**-1
   6:      1047.75 cm**-1
   7:      1683.12 cm**-1
   8:      1683.15 cm**-1
   9:      3493.19 cm**-1
  10:      3640.87 cm**-1
  11:      3640.89 cm**-1


------------
NORMAL MODES
------------

These modes are the Cartesian displacements weighted by the diagonal matrix
M(i,i)=1/sqrt(m[i]) where m[i] is the mass of the displaced atom
Thus, these vectors are normalized but *not* orthogonal

                  0          1          2          3          4          5    
      0       0.000000   0.000000   0.000000   0.000000   0.000000   0.000000
      1       0.000000   0.000000   0.000000   0.000000   0.000000   0.000000
      2       0.000000   0.000000   0.000000   0.000000   0.000000   0.000000
      3       0.000000   0.000000   0.000000   0.000000   0.000000   0.000000
      4       0.000000   0.000000   0.000000   0.000000   0.000000   0.000000
      5       0.000000   0.000000   0.000000   0.000000   0.000000   0.000000
      6       0.000000   0.000000   0.000000   0.000000   0.000000   0.000000
      7       0.000000   0.000000   0.000000   0.000000   0.000000   0.000000
      8       0.000000   0.000000   0.000000   0.000000   0.000000   0.000000
      9       0.000000   0.000000   0.000000   0.000000   0.000000   0.000000
     10       0.000000   0.000000   0.000000   0.000000   0.000000   0.000000
     11       0.000000   0.000000   0.000000   0.000000   0.000000   0.000000
                  6          7          8          9         10         11    
      0      -0.038600  -0.049328   0.040092   0.012333   0.074523   0.007342
      1       0.096969  -0.035028  -0.011449  -0.030990   0.026980  -0.034011
      2       0.050162   0.029755   0.052983  -0.016027   0.005188   0.071401
      3      -0.012511  -0.036943   0.030018  -0.576505  -0.809350  -0.079710
      4      -0.509223   0.027430   0.429538  -0.019571   0.022013  -0.008455
      5      -0.263418  -0.527712  -0.444565  -0.010121   0.008852   0.021418
      6       0.274447   0.083669  -0.635035   0.202572  -0.136089   0.222176
      7      -0.338378   0.131473   0.028397   0.444329  -0.383943   0.536819
      8      -0.372889   0.347462  -0.338444  -0.307353   0.242886  -0.316137
      9       0.274449   0.638726   0.047912   0.202552  -0.090119  -0.244486
     10      -0.499859   0.327841  -0.298846   0.005877  -0.012976  -0.055750
     11      -0.060730  -0.233220   0.046768   0.540181  -0.323829  -0.697457


-----------
IR SPECTRUM
-----------

 Mode    freq (cm**-1)   T**2         TX         TY         TZ
-------------------------------------------------------------------
   6:      1047.75  186.870077  (  4.556620 -11.447227  -5.921848)
   7:      1683.12   22.779366  (  3.491319   2.479663  -2.107445)
   8:      1683.15   22.777920  ( -2.837187   0.810803  -3.751118)
   9:      3493.19    0.123205  (  0.116763  -0.294094  -0.151922)
  10:      3640.87    6.748153  ( -2.437069  -0.883091  -0.170284)
  11:      3640.89    6.746989  ( -0.240459   1.112934  -2.334640)

The first frequency considered to be a vibration is 6
The total number of vibrations considered is 6


--------------------------
THERMOCHEMISTRY AT 298.15K
--------------------------

Temperature         ... 298.15 K
Pressure            ... 1.00 atm
Total Mass          ... 17.03 AMU

Throughout the following assumptions are being made:
  (1) The electronic state is orbitally nondegenerate
  (2) There are no thermally accessible electronically excited states
  (3) Hindered rotations indicated by low frequency modes are not
      treated as such but are treated as vibrations and this may
      cause some error
  (4) All equations used are the standard statistical mechanics
      equations for an ideal gas
  (5) All vibrations are strictly harmonic

freq.    1047.75  E(vib)   ...       0.02 
freq.    1683.12  E(vib)   ...       0.00 
freq.    1683.15  E(vib)   ...       0.00 
freq.    3493.19  E(vib)   ...       0.00 
freq.    3640.87  E(vib)   ...       0.00 
freq.    3640.89  E(vib)   ...       0.00 

------------
INNER ENERGY
------------

The inner energy is: U= E(el) + E(ZPE) + E(vib) + E(rot) + E(trans)
    E(el)   - is the total energy from the electronic structure calculation
              = E(kin-el) + E(nuc-el) + E(el-el) + E(nuc-nuc)
    E(ZPE)  - the the zero temperature vibrational energy from the frequency calculation
    E(vib)  - the the finite temperature correction to E(ZPE) due to population
              of excited vibrational states
    E(rot)  - is the rotational thermal energy
    E(trans)- is the translational thermal energy

Summary of contributions to the inner energy U:
Electronic energy                ...    -56.46194483 Eh
Zero point energy                ...      0.03460303 Eh      21.71 kcal/mol
Thermal vibrational correction   ...      0.00003517 Eh       0.02 kcal/mol
Thermal rotational correction    ...      0.00141627 Eh       0.89 kcal/mol
Thermal translational correction ...      0.00141627 Eh       0.89 kcal/mol
-----------------------------------------------------------------------
Total thermal energy                    -56.42447408 Eh


Summary of corrections to the electronic energy:
(perhaps to be used in another calculation)
Total thermal correction                  0.00286771 Eh       1.80 kcal/mol
Non-thermal (ZPE) correction              0.03460303 Eh      21.71 kcal/mol
-----------------------------------------------------------------------
Total correction                          0.03747074 Eh      23.51 kcal/mol


--------
ENTHALPY
--------

The enthalpy is H = U + kB*T
                kB is Boltzmann's constant
Total free energy                 ...    -56.42447408 Eh 
Thermal Enthalpy correction       ...      0.00094421 Eh       0.59 kcal/mol
-----------------------------------------------------------------------
Total Enthalpy                    ...    -56.42352988 Eh


Note: Rotational entropy computed according to Herzberg 
Infrared and Raman Spectra, Chapter V,1, Van Nostrand Reinhold, 1945 
Point Group:  Cs, Symmetry Number:   1  
Rotational constants in cm-1:     9.993955     9.993672     6.304344 

Vibrational entropy computed according to the QRRHO of S. Grimme
Chem.Eur.J. 2012 18 9955


-------
ENTROPY
-------

The entropy contributions are T*S = T*(S(el)+S(vib)+S(rot)+S(trans))
     S(el)   - electronic entropy
     S(vib)  - vibrational entropy
     S(rot)  - rotational entropy
     S(trans)- translational entropy
The entropies will be listed as mutliplied by the temperature to get
units of energy

Electronic entropy                ...      0.00000000 Eh      0.00 kcal/mol
Vibrational entropy               ...      0.00004178 Eh      0.03 kcal/mol
Rotational entropy                ...      0.00646811 Eh      4.06 kcal/mol
Translational entropy             ...      0.01636425 Eh     10.27 kcal/mol
-----------------------------------------------------------------------
Final entropy term                ...      0.02287414 Eh     14.35 kcal/mol

In case the symmetry of your molecule has not been determined correctly
or in case you have a reason to use a different symmetry number we print 
out the resulting rotational entropy values for sn=1,12 :
 --------------------------------------------------------
|  sn= 1 | S(rot)=       0.00646811 Eh      4.06 kcal/mol|
|  sn= 2 | S(rot)=       0.00581365 Eh      3.65 kcal/mol|
|  sn= 3 | S(rot)=       0.00543082 Eh      3.41 kcal/mol|
|  sn= 4 | S(rot)=       0.00515919 Eh      3.24 kcal/mol|
|  sn= 5 | S(rot)=       0.00494851 Eh      3.11 kcal/mol|
|  sn= 6 | S(rot)=       0.00477636 Eh      3.00 kcal/mol|
|  sn= 7 | S(rot)=       0.00463081 Eh      2.91 kcal/mol|
|  sn= 8 | S(rot)=       0.00450474 Eh      2.83 kcal/mol|
|  sn= 9 | S(rot)=       0.00439353 Eh      2.76 kcal/mol|
|  sn=10 | S(rot)=       0.00429405 Eh      2.69 kcal/mol|
|  sn=11 | S(rot)=       0.00420406 Eh      2.64 kcal/mol|
|  sn=12 | S(rot)=       0.00412190 Eh      2.59 kcal/mol|
 --------------------------------------------------------


-------------------
GIBBS FREE ENERGY
-------------------

The Gibbs free energy is G = H - T*S

Total enthalpy                    ...    -56.42352988 Eh 
Total entropy correction          ...     -0.02287414 Eh    -14.35 kcal/mol
-----------------------------------------------------------------------
Final Gibbs free energy         ...    -56.44640401 Eh

For completeness - the Gibbs free energy minus the electronic energy
G-E(el)                           ...      0.01554082 Eh      9.75 kcal/mol


Timings for individual modules:

Sum of individual times         ...       68.521 sec (=   1.142 min)
GTO integral calculation        ...        6.693 sec (=   0.112 min)   9.8 %
SCF iterations                  ...       19.885 sec (=   0.331 min)  29.0 %
MP2 module                      ...       19.680 sec (=   0.328 min)  28.7 %
Geometry relaxation             ...        0.088 sec (=   0.001 min)   0.1 %
Analytical frequency calculation...       22.174 sec (=   0.370 min)  32.4 %
                             ****ORCA TERMINATED NORMALLY****
TOTAL RUN TIME: 0 days 0 hours 1 minutes 9 seconds 413 msec
