
                                 *****************
                                 * O   R   C   A *
                                 *****************

           --- An Ab Initio, DFT and Semiempirical electronic structure package ---

                  #######################################################
                  #                        -***-                        #
                  #          Department of theory and spectroscopy      #
                  #               Directorship: Frank Neese             #
                  #        Max Planck Institute fuer Kohlenforschung    #
                  #                Kaiser Wilhelm Platz 1               #
                  #                 D-45470 Muelheim/Ruhr               #
                  #                      Germany                        #
                  #                                                     #
                  #                  All rights reserved                #
                  #                        -***-                        #
                  #######################################################


                         Program Version 4.2.1 -  RELEASE  -


 With contributions from (in alphabetic order):
   Daniel Aravena         : Magnetic Suceptibility
   Michael Atanasov       : Ab Initio Ligand Field Theory (pilot matlab implementation)
   Alexander A. Auer      : GIAO ZORA, VPT2
   Ute Becker             : Parallelization
   Giovanni Bistoni       : ED, misc. LED, open-shell LED, HFLD
   Martin Brehm           : Molecular dynamics
   Dmytro Bykov           : SCF Hessian
   Vijay G. Chilkuri      : MRCI spin determinant printing, contributions to CSF-ICE
   Dipayan Datta          : RHF DLPNO-CCSD density
   Achintya Kumar Dutta   : EOM-CC, STEOM-CC
   Dmitry Ganyushin       : Spin-Orbit,Spin-Spin,Magnetic field MRCI
   Miquel Garcia          : C-PCM Hessian, Gaussian charge scheme
   Yang Guo               : DLPNO-NEVPT2, CIM, IAO-localization
   Andreas Hansen         : Spin unrestricted coupled pair/coupled cluster methods
   Benjamin Helmich-Paris : CASSCF linear response (MC-RPA)
   Lee Huntington         : MR-EOM, pCC
   Robert Izsak           : Overlap fitted RIJCOSX, COSX-SCS-MP3, EOM
   Christian Kollmar      : KDIIS, OOCD, Brueckner-CCSD(T), CCSD density
   Simone Kossmann        : Meta GGA functionals, TD-DFT gradient, OOMP2, MP2 Hessian
   Martin Krupicka        : AUTO-CI
   Lucas Lang             : DCDCAS
   Dagmar Lenk            : GEPOL surface, SMD
   Dimitrios Liakos       : Extrapolation schemes; Compound Job, initial MDCI parallelization
   Dimitrios Manganas     : Further ROCIS development; embedding schemes
   Dimitrios Pantazis     : SARC Basis sets
   Taras Petrenko         : DFT Hessian,TD-DFT gradient, ASA, ECA, R-Raman, ABS, FL, XAS/XES, NRVS
   Peter Pinski           : DLPNO-MP2, DLPNO-MP2 Gradient
   Christoph Reimann      : Effective Core Potentials
   Marius Retegan         : Local ZFS, SOC
   Christoph Riplinger    : Optimizer, TS searches, QM/MM, DLPNO-CCSD(T), (RO)-DLPNO pert. Triples
   Tobias Risthaus        : Range-separated hybrids, TD-DFT gradient, RPA, STAB
   Michael Roemelt        : Original ROCIS implementation
   Masaaki Saitow         : Open-shell DLPNO-CCSD energy and density
   Barbara Sandhoefer     : DKH picture change effects
   Avijit Sen             : IP-ROCIS
   Kantharuban Sivalingam : CASSCF convergence, NEVPT2, FIC-MRCI
   Bernardo de Souza      : ESD, SOC TD-DFT
   Georgi Stoychev        : AutoAux, RI-MP2 NMR
   Willem Van den Heuvel  : Paramagnetic NMR
   Boris Wezisla          : Elementary symmetry handling
   Frank Wennmohs         : Technical directorship


 We gratefully acknowledge several colleagues who have allowed us to
 interface, adapt or use parts of their codes:
   Stefan Grimme, W. Hujo, H. Kruse,             : VdW corrections, initial TS optimization,
                  C. Bannwarth                     DFT functionals, gCP, sTDA/sTD-DF
   Ed Valeev, F. Pavosevic, A. Kumar             : LibInt (2-el integral package), F12 methods
   Garnet Chan, S. Sharma, J. Yang, R. Olivares  : DMRG
   Ulf Ekstrom                                   : XCFun DFT Library
   Mihaly Kallay                                 : mrcc  (arbitrary order and MRCC methods)
   Andreas Klamt, Michael Diedenhofen            : otool_cosmo (COSMO solvation model)
   Jiri Pittner, Ondrej Demel                    : Mk-CCSD
   Frank Weinhold                                : gennbo (NPA and NBO analysis)
   Christopher J. Cramer and Donald G. Truhlar   : smd solvation model
   Lars Goerigk                                  : TD-DFT with DH, B97 family of functionals
   V. Asgeirsson, H. Jonsson                     : NEB implementation
   FAccTs GmbH                                   : IRC, NEB, NEB-TS, Multilevel, MM, QM/MM, CI optimization
   S Lehtola, MJT Oliveira, MAL Marques          : LibXC Library


 Your calculation uses the libint2 library for the computation of 2-el integrals
 For citations please refer to: http://libint.valeyev.net

 Your ORCA version has been built with support for libXC version: 4.2.3
 For citations please refer to: https://tddft.org/programs/libxc/

 This ORCA versions uses:
   CBLAS   interface :  Fast vector & matrix operations
   LAPACKE interface :  Fast linear algebra routines
   SCALAPACK package :  Parallel linear algebra routines




***************************************
The coordinates will be read from file: init.xyz
***************************************


Your calculation utilizes the geometrical counterpoise correction gCP
Please cite in your paper:
H.Kruse, S. Grimme J.Chem.Phys., 136, (2012), 154101 
   

----- Orbital basis set information -----
Your calculation utilizes the basis: def2-TZVP
   F. Weigend and R. Ahlrichs, Phys. Chem. Chem. Phys. 7, 3297 (2005).

----- AuxC basis set information -----
Your calculation utilizes the auxiliary basis: def2-TZVP/C
  H-La, Hf-Rn : A. Hellweg, C. Hattig, S. Hofener and W. Klopper, Theor. Chem. Acc. 117, 587 (2007).
        Ce-Lu : J. Chmela and M. E. Harding, Mol. Phys. (2018).

================================================================================
                                        WARNINGS
                       Please study these warnings very carefully!
================================================================================


WARNING: MDCI localization with Augmented Hessian Foster-Boys
  ===> : Switching off randomization!

WARNING: Post HF methods need fully converged wavefunctions
  ===> : Setting SCFConvForced true
         You can overwrite this default with %scf ConvForced false 


INFO   : the flag for use of LIBINT has been found!

================================================================================
                                       INPUT FILE
================================================================================
NAME = NH3‡-sp.inp
|  1> ! DLPNO-CCSD(T) gCP(HF/TZ) def2-TZVP def2-TZVP/C TightSCF Grid5 NoFinalGrid GridX6 NoFinalGridX PrintBasis PrintMOs NBO
|  2> 
|  3> %pal
|  4>  nprocs 8
|  5> end
|  6> 
|  7> *xyzfile 0 1 init.xyz
|  8> 
|  9>                          ****END OF INPUT****
================================================================================

                       ****************************
                       * Single Point Calculation *
                       ****************************

---------------------------------
CARTESIAN COORDINATES (ANGSTROEM)
---------------------------------
  N      0.000000   -0.000000    0.000000
  H      0.994251    0.000000   -0.000000
  H     -0.497126    0.861047   -0.000000
  H     -0.497126   -0.861047   -0.000000

----------------------------
CARTESIAN COORDINATES (A.U.)
----------------------------
  NO LB      ZA    FRAG     MASS         X           Y           Z
   0 N     7.0000    0    14.007    0.000000   -0.000000    0.000000
   1 H     1.0000    0     1.008    1.878863    0.000000   -0.000000
   2 H     1.0000    0     1.008   -0.939431    1.627143   -0.000000
   3 H     1.0000    0     1.008   -0.939431   -1.627143   -0.000000

--------------------------------
INTERNAL COORDINATES (ANGSTROEM)
--------------------------------
 N      0   0   0     0.000000000000     0.00000000     0.00000000
 H      1   0   0     0.994251363452     0.00000000     0.00000000
 H      1   2   0     0.994251364094   120.00000015     0.00000000
 H      1   2   3     0.994251364103   120.00000016   179.99999791

---------------------------
INTERNAL COORDINATES (A.U.)
---------------------------
 N      0   0   0     0.000000000000     0.00000000     0.00000000
 H      1   0   0     1.878862785203     0.00000000     0.00000000
 H      1   2   0     1.878862786415   120.00000015     0.00000000
 H      1   2   3     1.878862786433   120.00000016   179.99999791

---------------------
BASIS SET INFORMATION
---------------------
There are 2 groups of distinct atoms

 Group   1 Type N   : 11s6p2d1f contracted to 5s3p2d1f pattern {62111/411/11/1}
 Group   2 Type H   : 5s1p contracted to 3s1p pattern {311/1}

Atom   0N    basis set group =>   1
Atom   1H    basis set group =>   2
Atom   2H    basis set group =>   2
Atom   3H    basis set group =>   2

-------------------------
BASIS SET IN INPUT FORMAT
-------------------------

 # Basis set for element : H 
 NewGTO H 
 S 3 
   1      34.0613410000      0.0254393072
   2       5.1235746000      0.1900859489
   3       1.1646626000      0.8524411301
 S 1 
   1       0.3272304100      1.0000000000
 S 1 
   1       0.1030724100      1.0000000000
 P 1 
   1       0.8000000000      1.0000000000
  end;

 # Basis set for element : N 
 NewGTO N 
 S 6 
   1   19730.8006470000      0.0005862639
   2    2957.8958745000      0.0045428821
   3     673.2213359500      0.0235584136
   4     190.6824949400      0.0947091933
   5      62.2954418980      0.2971978492
   6      22.6541611820      0.6691624689
 S 2 
   1       8.9791477428      0.6459668363
   2       3.6863002370      0.3870057440
 S 1 
   1       0.8466007680      1.0000000000
 S 1 
   1       0.3364713377      1.0000000000
 S 1 
   1       0.1364765367      1.0000000000
 P 4 
   1      49.2003805100      0.0114488252
   2      11.3467905370      0.0784223379
   3       3.4273972411      0.3081809474
   4       1.1785525134      0.7202719637
 P 1 
   1       0.4164220497      1.0000000000
 P 1 
   1       0.1426082601      1.0000000000
 D 1 
   1       1.6540000000      1.0000000000
 D 1 
   1       0.4690000000      1.0000000000
 F 1 
   1       1.0930000000      1.0000000000
  end;

---------------------------------
AUXILIARY/C BASIS SET INFORMATION
---------------------------------
There are 2 groups of distinct atoms

 Group   1 Type N   : 8s6p5d3f1g contracted to 8s6p4d3f1g pattern {11111111/111111/2111/111/1}
 Group   2 Type H   : 4s3p2d contracted to 4s2p1d pattern {1111/21/2}

Atom   0N    basis set group =>   1
Atom   1H    basis set group =>   2
Atom   2H    basis set group =>   2
Atom   3H    basis set group =>   2

-------------------------------------
AUXILIARY/C BASIS SET IN INPUT FORMAT
-------------------------------------

 # Auxiliary/C basis set for element : H 
 NewAuxCGTO H 
 S 1 
   1       9.3352160900      1.0000000000
 S 1 
   1       1.8611070400      1.0000000000
 S 1 
   1       0.5951246600      1.0000000000
 S 1 
   1       0.2644809900      1.0000000000
 P 2 
   1       2.4524982100      0.0844547495
   2       1.3540383000      0.9235458776
 P 1 
   1       0.5952239400      1.0000000000
 D 2 
   1       1.5816376600      1.0050058114
   2       0.6274396000     -0.0072040465
  end;

 # Auxiliary/C basis set for element : N 
 NewAuxCGTO N 
 S 1 
   1     291.1839425700      1.0000000000
 S 1 
   1      62.0305323800      1.0000000000
 S 1 
   1      21.9811322900      1.0000000000
 S 1 
   1       9.0671153400      1.0000000000
 S 1 
   1       3.6065484800      1.0000000000
 S 1 
   1       1.3728447400      1.0000000000
 S 1 
   1       0.6370908500      1.0000000000
 S 1 
   1       0.2690723100      1.0000000000
 P 1 
   1      34.1216919700      1.0000000000
 P 1 
   1       8.6692708500      1.0000000000
 P 1 
   1       3.9695844400      1.0000000000
 P 1 
   1       1.6756902700      1.0000000000
 P 1 
   1       0.6976940100      1.0000000000
 P 1 
   1       0.3358254400      1.0000000000
 D 2 
   1      12.7271734000      0.3102751905
   2       5.0291661100      0.7592406615
 D 1 
   1       2.0912502500      1.0000000000
 D 1 
   1       0.8590204300      1.0000000000
 D 1 
   1       0.3506847900      1.0000000000
 F 1 
   1       3.4686536900      1.0000000000
 F 1 
   1       1.6686504200      1.0000000000
 F 1 
   1       0.8094760000      1.0000000000
 G 1 
   1       1.7813141500      1.0000000000
  end;



           ************************************************************
           *        Program running with 8 parallel MPI-processes     *
           *              working on a common directory               *
           ************************************************************
------------------------------------------------------------------------------
                           ORCA GTO INTEGRAL CALCULATION
------------------------------------------------------------------------------

                         BASIS SET STATISTICS AND STARTUP INFO

 # of primitive gaussian shells          ...   38
 # of primitive gaussian functions       ...   70
 # of contracted shells                  ...   23
 # of contracted basis functions         ...   49
 Highest angular momentum                ...    3
 Maximum contraction depth               ...    6
 Integral package used                   ... LIBINT
 Integral threshhold            Thresh   ...  2.500e-11
 Primitive cut-off              TCut     ...  2.500e-12


------------------------------ INTEGRAL EVALUATION ----------------------------


 * One electron integrals 
 Pre-screening matrix                    ... done
 Shell pair data                         ... done (   0.000 sec)



           ************************************************************
           *        Program running with 8 parallel MPI-processes     *
           *              working on a common directory               *
           ************************************************************
-------------------------------------------------------------------------------
                                 ORCA SCF
-------------------------------------------------------------------------------

------------
SCF SETTINGS
------------
Hamiltonian:
 Ab initio Hamiltonian  Method          .... Hartree-Fock(GTOs)


General Settings:
 Integral files         IntName         .... NH3‡-sp
 Hartree-Fock type      HFTyp           .... RHF
 Total Charge           Charge          ....    0
 Multiplicity           Mult            ....    1
 Number of Electrons    NEL             ....   10
 Basis Dimension        Dim             ....   49
 Nuclear Repulsion      ENuc            ....     12.0988349850 Eh

Convergence Acceleration:
 DIIS                   CNVDIIS         .... on
   Start iteration      DIISMaxIt       ....    12
   Startup error        DIISStart       ....  0.200000
   # of expansion vecs  DIISMaxEq       ....     5
   Bias factor          DIISBfac        ....   1.050
   Max. coefficient     DIISMaxC        ....  10.000
 Newton-Raphson         CNVNR           .... off
 SOSCF                  CNVSOSCF        .... on
   Start iteration      SOSCFMaxIt      ....   150
   Startup grad/error   SOSCFStart      ....  0.003300
 Level Shifting         CNVShift        .... on
   Level shift para.    LevelShift      ....    0.2500
   Turn off err/grad.   ShiftErr        ....    0.0010
 Zerner damping         CNVZerner       .... off
 Static damping         CNVDamp         .... on
   Fraction old density DampFac         ....    0.7000
   Max. Damping (<1)    DampMax         ....    0.9800
   Min. Damping (>=0)   DampMin         ....    0.0000
   Turn off err/grad.   DampErr         ....    0.1000
 Fernandez-Rico         CNVRico         .... off

SCF Procedure:
 Maximum # iterations   MaxIter         ....   125
 SCF integral mode      SCFMode         .... Direct
   Integral package                     .... LIBINT
 Reset frequency        DirectResetFreq ....    20
 Integral Threshold     Thresh          ....  2.500e-11 Eh
 Primitive CutOff       TCut            ....  2.500e-12 Eh

Convergence Tolerance:
 Convergence Check Mode ConvCheckMode   .... Total+1el-Energy
 Convergence forced     ConvForced      .... 1
 Energy Change          TolE            ....  1.000e-08 Eh
 1-El. energy change                    ....  1.000e-05 Eh
 Orbital Gradient       TolG            ....  1.000e-05
 Orbital Rotation angle TolX            ....  1.000e-05
 DIIS Error             TolErr          ....  5.000e-07


Diagonalization of the overlap matrix:
Smallest eigenvalue                        ... 4.752e-03
Time for diagonalization                   ...    0.001 sec
Threshold for overlap eigenvalues          ... 1.000e-08
Number of eigenvalues below threshold      ... 0
Time for construction of square roots      ...    0.001 sec
Total time needed                          ...    0.002 sec

-------------------
DFT GRID GENERATION
-------------------

General Integration Accuracy     IntAcc      ...  5.010
Radial Grid Type                 RadialGrid  ... Gauss-Chebyshev
Angular Grid (max. acc.)         AngularGrid ... Lebedev-434
Angular grid pruning method      GridPruning ... 3 (G Style)
Weight generation scheme         WeightScheme... Becke
Basis function cutoff            BFCut       ...    1.0000e-11
Integration weight cutoff        WCut        ...    1.0000e-14
Grids for H and He will be reduced by one unit

# of grid points (after initial pruning)     ...  30666 (   0.0 sec)
# of grid points (after weights+screening)   ...  30107 (   0.0 sec)
nearest neighbour list constructed           ...    0.0 sec
Grid point re-assignment to atoms done       ...    0.0 sec
Grid point division into batches done        ...    0.2 sec
Reduced shell lists constructed in    0.2 sec

Total number of grid points                  ...    30107
Total number of batches                      ...      473
Average number of points per batch           ...       63
Average number of grid points per atom       ...     7527
Average number of shells per batch           ...    22.07 (95.94%)
Average number of basis functions per batch  ...    47.51 (96.96%)
Average number of large shells per batch     ...    21.77 (98.66%)
Average number of large basis fcns per batch ...    46.75 (98.41%)
Maximum spatial batch extension              ...   2.67,  2.74, 15.10 au
Average spatial batch extension              ...   0.12,  0.13,  0.17 au

Time for grid setup =    0.250 sec

------------------------------
INITIAL GUESS: MODEL POTENTIAL
------------------------------
Loading Hartree-Fock densities                     ... done
Calculating cut-offs                               ... done
Setting up the integral package                    ... done
Initializing the effective Hamiltonian             ... done
Starting the Coulomb interaction                   ... done (   0.0 sec)
Reading the grid                                   ... done
Mapping shells                                     ... done
Starting the XC term evaluation                    ... done (   0.0 sec)
Transforming the Hamiltonian                       ... done (   0.0 sec)
Diagonalizing the Hamiltonian                      ... done (   0.0 sec)
Back transforming the eigenvectors                 ... done (   0.0 sec)
Now organizing SCF variables                       ... done
                      ------------------
                      INITIAL GUESS DONE (   0.4 sec)
                      ------------------
--------------
SCF ITERATIONS
--------------
ITER       Energy         Delta-E        Max-DP      RMS-DP      [F,P]     Damp
               ***  Starting incremental Fock matrix formation  ***
  0    -56.0618513383   0.000000000000 0.05373694  0.00259241  0.3824235 0.7000
  1    -56.1203433032  -0.058491964858 0.04249302  0.00190839  0.2323237 0.7000
                               ***Turning on DIIS***
  2    -56.1520005657  -0.031657262554 0.02402975  0.00111200  0.1412264 0.7000
  3    -56.3603935192  -0.208392953496 0.00862022  0.00049550  0.1071633 0.7000
  4    -56.3230377475   0.037355771679 0.01707019  0.00097784  0.0765002 0.0000
  5    -56.2107300287   0.112307718817 0.00208227  0.00009320  0.0033640 0.0000
                      *** Initiating the SOSCF procedure ***
                           *** Shutting down DIIS ***
                      *** Re-Reading the Fockian *** 
                      *** Removing any level shift *** 
ITER      Energy       Delta-E        Grad      Rot      Max-DP    RMS-DP
  6    -56.21087236  -0.0001423275  0.000687  0.000687  0.000892  0.000051
               *** Restarting incremental Fock matrix formation ***
  7    -56.21086520   0.0000071594  0.000227  0.000250  0.000450  0.000021
  8    -56.21086561  -0.0000004113  0.000083  0.000161  0.000287  0.000014
  9    -56.21086569  -0.0000000846  0.000020  0.000023  0.000035  0.000001
 10    -56.21086569  -0.0000000018  0.000006  0.000004  0.000007  0.000000
                 **** Energy Check signals convergence ****
              ***Rediagonalizing the Fockian in SOSCF/NRSCF***

               *****************************************************
               *                     SUCCESS                       *
               *           SCF CONVERGED AFTER  11 CYCLES          *
               *****************************************************


----------------
TOTAL SCF ENERGY
----------------

Total Energy       :          -56.21086569 Eh           -1529.57542 eV

Components:
Nuclear Repulsion  :           12.09883499 Eh             329.22604 eV
Electronic Energy  :          -68.30970068 Eh           -1858.80146 eV
One Electron Energy:          -99.95288789 Eh           -2719.85635 eV
Two Electron Energy:           31.64318721 Eh             861.05490 eV

Virial components:
Potential Energy   :         -112.37651708 Eh           -3057.92049 eV
Kinetic Energy     :           56.16565138 Eh            1528.34507 eV
Virial Ratio       :            2.00080502


---------------
SCF CONVERGENCE
---------------

  Last Energy change         ...   -3.5071e-10  Tolerance :   1.0000e-08
  Last MAX-Density change    ...    2.0947e-06  Tolerance :   1.0000e-07
  Last RMS-Density change    ...    1.2516e-07  Tolerance :   5.0000e-09
  Last Orbital Gradient      ...    1.1504e-06  Tolerance :   1.0000e-05
  Last Orbital Rotation      ...    1.2883e-06  Tolerance :   1.0000e-05

             **** THE GBW FILE WAS UPDATED (NH3‡-sp.gbw) ****
             **** DENSITY FILE WAS UPDATED (NH3‡-sp.scfp) ****
             **** ENERGY FILE WAS UPDATED (NH3‡-sp.en.tmp) ****
             **** THE GBW FILE WAS UPDATED (NH3‡-sp.gbw) ****
             **** DENSITY FILE WAS UPDATED (NH3‡-sp.scfp) ****
----------------
ORBITAL ENERGIES
----------------

  NO   OCC          E(Eh)            E(eV) 
   0   2.0000     -15.518770      -422.2872 
   1   2.0000      -1.124340       -30.5948 
   2   2.0000      -0.650377       -17.6977 
   3   2.0000      -0.650377       -17.6977 
   4   2.0000      -0.389388       -10.5958 
   5   0.0000       0.135073         3.6755 
   6   0.0000       0.212929         5.7941 
   7   0.0000       0.212929         5.7941 
   8   0.0000       0.453654        12.3445 
   9   0.0000       0.453654        12.3445 
  10   0.0000       0.518423        14.1070 
  11   0.0000       0.564401        15.3581 
  12   0.0000       0.640087        17.4177 
  13   0.0000       0.742199        20.1962 
  14   0.0000       0.742199        20.1962 
  15   0.0000       1.171315        31.8731 
  16   0.0000       1.171315        31.8731 
  17   0.0000       1.424122        38.7523 
  18   0.0000       1.424122        38.7523 
  19   0.0000       1.476393        40.1747 
  20   0.0000       1.803938        49.0876 
  21   0.0000       2.060582        56.0713 
  22   0.0000       2.086873        56.7867 
  23   0.0000       2.086873        56.7867 
  24   0.0000       2.175571        59.2003 
  25   0.0000       2.283897        62.1480 
  26   0.0000       2.283897        62.1480 
  27   0.0000       2.534570        68.9691 
  28   0.0000       2.628102        71.5143 
  29   0.0000       2.740438        74.5711 
  30   0.0000       2.740438        74.5711 
  31   0.0000       2.931197        79.7619 
  32   0.0000       2.931197        79.7619 
  33   0.0000       3.258192        88.6599 
  34   0.0000       3.602929        98.0407 
  35   0.0000       3.602929        98.0407 
  36   0.0000       4.640366       126.2708 
  37   0.0000       4.640366       126.2708 
  38   0.0000       4.734913       128.8435 
  39   0.0000       5.005284       136.2007 
  40   0.0000       5.005284       136.2007 
  41   0.0000       5.045255       137.2884 
  42   0.0000       5.146472       140.0426 
  43   0.0000       5.235172       142.4563 
  44   0.0000       5.235172       142.4563 
  45   0.0000       5.707974       155.3219 
  46   0.0000       5.707974       155.3219 
  47   0.0000       6.409638       174.4151 
  48   0.0000      32.871627       894.4824 
------------------
MOLECULAR ORBITALS
------------------
                      0         1         2         3         4         5   
                 -15.51877  -1.12434  -0.65038  -0.65038  -0.38939   0.13507
                   2.00000   2.00000   2.00000   2.00000   2.00000   0.00000
                  --------  --------  --------  --------  --------  --------
  0N   1s         0.448868 -0.093690  0.000000  0.000000 -0.000000  0.035695
  0N   2s         0.630107 -0.218735  0.000000  0.000000 -0.000000  0.092324
  0N   3s         0.020446  0.316718 -0.000000 -0.000000  0.000000 -0.284395
  0N   4s        -0.006960  0.409114 -0.000000 -0.000000  0.000000  0.477209
  0N   5s         0.004950  0.129145 -0.000000 -0.000000  0.000000 -2.534483
  0N   1pz       -0.000000 -0.000000  0.000000 -0.000000  0.417600  0.000000
  0N   1px       -0.000000  0.000000 -0.333185 -0.001844 -0.000000  0.000000
  0N   1py        0.000000  0.000000 -0.001844  0.333185 -0.000000 -0.000000
  0N   2pz        0.000000 -0.000000  0.000000 -0.000000  0.390398 -0.000000
  0N   2px        0.000000 -0.000000 -0.276237 -0.001529 -0.000000  0.000000
  0N   2py        0.000000  0.000000 -0.001529  0.276237 -0.000000  0.000000
  0N   3pz       -0.000000 -0.000000 -0.000000 -0.000000  0.375575  0.000000
  0N   3px       -0.000000 -0.000000 -0.125952 -0.000697 -0.000000  0.000000
  0N   3py        0.000000 -0.000000 -0.000697  0.125952 -0.000000 -0.000000
  0N   1dz2      -0.000105 -0.008055 -0.000000 -0.000000 -0.000000 -0.004255
  0N   1dxz      -0.000000 -0.000000  0.000000  0.000000 -0.000000  0.000000
  0N   1dyz      -0.000000 -0.000000  0.000000 -0.000000  0.000000 -0.000000
  0N   1dx2y2     0.000000  0.000000 -0.013563 -0.000075  0.000000  0.000000
  0N   1dxy       0.000000  0.000000  0.000075 -0.013563 -0.000000  0.000000
  0N   2dz2      -0.000156 -0.011287 -0.000000 -0.000000 -0.000000 -0.036113
  0N   2dxz      -0.000000 -0.000000  0.000000  0.000000  0.000000  0.000000
  0N   2dyz      -0.000000 -0.000000  0.000000 -0.000000 -0.000000  0.000000
  0N   2dx2y2     0.000000  0.000000 -0.009449 -0.000052  0.000000  0.000000
  0N   2dxy      -0.000000  0.000000  0.000052 -0.009449 -0.000000  0.000000
  0N   1f0        0.000000  0.000000  0.000000 -0.000000 -0.008653  0.000000
  0N   1f+1      -0.000000  0.000000  0.006285  0.000035  0.000000 -0.000000
  0N   1f-1      -0.000000 -0.000000  0.000035 -0.006285  0.000000 -0.000000
  0N   1f+2       0.000000  0.000000  0.000000  0.000000  0.000000  0.000000
  0N   1f-2       0.000000 -0.000000 -0.000000  0.000000  0.000000 -0.000000
  0N   1f+3      -0.000392 -0.007316  0.000000  0.000000 -0.000000 -0.011854
  0N   1f-3      -0.000000  0.000000  0.000000 -0.000000  0.000000  0.000000
  1H   1s         0.000024  0.086570 -0.171588 -0.000950 -0.000000  0.018637
  1H   2s        -0.000119  0.080552 -0.233628 -0.001293 -0.000000 -0.106640
  1H   3s        -0.000789  0.004863 -0.060162 -0.000333 -0.000000  1.161478
  1H   1pz       -0.000000  0.000000 -0.000000 -0.000000  0.022965 -0.000000
  1H   1px        0.000316 -0.016103  0.026706  0.000148  0.000000  0.047871
  1H   1py        0.000000 -0.000000 -0.000058  0.010499 -0.000000 -0.000000
  2H   1s         0.000024  0.086570  0.084972  0.149075 -0.000000  0.018637
  2H   2s        -0.000119  0.080552  0.115694  0.202974 -0.000000 -0.106640
  2H   3s        -0.000789  0.004863  0.029793  0.052268 -0.000000  1.161478
  2H   1pz       -0.000000  0.000000  0.000000  0.000000  0.022965 -0.000000
  2H   1px       -0.000158  0.008052 -0.001287  0.016104 -0.000000 -0.023935
  2H   1py        0.000273 -0.013946 -0.016014 -0.017494  0.000000  0.041457
  3H   1s         0.000024  0.086570  0.086617 -0.148125 -0.000000  0.018637
  3H   2s        -0.000119  0.080552  0.117934 -0.201681 -0.000000 -0.106640
  3H   3s        -0.000789  0.004863  0.030369 -0.051935 -0.000000  1.161478
  3H   1pz       -0.000000  0.000000  0.000000 -0.000000  0.022965 -0.000000
  3H   1px       -0.000158  0.008052 -0.001109 -0.016117 -0.000000 -0.023935
  3H   1py       -0.000273  0.013946  0.016207 -0.017316 -0.000000 -0.041457
                      6         7         8         9        10        11   
                   0.21293   0.21293   0.45365   0.45365   0.51842   0.56440
                   0.00000   0.00000   0.00000   0.00000   0.00000   0.00000
                  --------  --------  --------  --------  --------  --------
  0N   1s        -0.000000  0.000000 -0.000000  0.000000  0.000000 -0.016605
  0N   2s        -0.000000  0.000000 -0.000000  0.000000  0.000000 -0.044363
  0N   3s        -0.000000 -0.000000  0.000000 -0.000000  0.000000  0.009779
  0N   4s         0.000000 -0.000000  0.000000 -0.000000 -0.000000  0.175642
  0N   5s         0.000000  0.000000  0.000000 -0.000000 -0.000000  3.055854
  0N   1pz       -0.000000  0.000000 -0.000000 -0.000000 -0.269117 -0.000000
  0N   1px       -0.183947 -0.001223 -0.000070  0.009324  0.000000  0.000000
  0N   1py       -0.001223  0.183947  0.009324  0.000070  0.000000 -0.000000
  0N   2pz       -0.000000  0.000000  0.000000  0.000000 -0.830962 -0.000000
  0N   2px        0.146049  0.000971  0.002331 -0.310450  0.000000 -0.000000
  0N   2py        0.000971 -0.146049 -0.310450 -0.002331  0.000000  0.000000
  0N   3pz       -0.000000  0.000000 -0.000000 -0.000000  1.284401  0.000000
  0N   3px       -1.105594 -0.007348  0.016978 -2.261369 -0.000000 -0.000000
  0N   3py       -0.007348  1.105594 -2.261369 -0.016978 -0.000000  0.000000
  0N   1dz2       0.000000  0.000000  0.000000 -0.000000 -0.000000  0.026793
  0N   1dxz      -0.000000 -0.000000  0.000000 -0.000000  0.000000 -0.000000
  0N   1dyz      -0.000000  0.000000 -0.000000 -0.000000 -0.000000 -0.000000
  0N   1dx2y2     0.002886  0.000019 -0.000275  0.036570  0.000000  0.000000
  0N   1dxy      -0.000019  0.002886 -0.036570 -0.000275 -0.000000  0.000000
  0N   2dz2      -0.000000 -0.000000 -0.000000  0.000000  0.000000 -0.118487
  0N   2dxz      -0.000000 -0.000000 -0.000000  0.000000 -0.000000  0.000000
  0N   2dyz      -0.000000  0.000000  0.000000  0.000000  0.000000 -0.000000
  0N   2dx2y2     0.102101  0.000679  0.002107 -0.280673 -0.000000  0.000000
  0N   2dxy      -0.000679  0.102101  0.280673  0.002107  0.000000 -0.000000
  0N   1f0        0.000000 -0.000000  0.000000  0.000000  0.003257  0.000000
  0N   1f+1      -0.009377 -0.000062 -0.000247  0.032938 -0.000000  0.000000
  0N   1f-1      -0.000062  0.009377  0.032938  0.000247  0.000000 -0.000000
  0N   1f+2      -0.000000 -0.000000 -0.000000  0.000000 -0.000000  0.000000
  0N   1f-2       0.000000 -0.000000 -0.000000 -0.000000 -0.000000  0.000000
  0N   1f+3       0.000000  0.000000 -0.000000  0.000000  0.000000 -0.041706
  0N   1f-3      -0.000000  0.000000  0.000000  0.000000  0.000000 -0.000000
  1H   1s        -0.003551 -0.000024 -0.000587  0.078242  0.000000 -0.065828
  1H   2s        -0.376704 -0.002504 -0.012856  1.712386  0.000000 -1.343604
  1H   3s         2.461816  0.016361 -0.005014  0.667819  0.000000 -0.167974
  1H   1pz       -0.000000 -0.000000 -0.000000  0.000000 -0.011402 -0.000000
  1H   1px        0.093555  0.000622  0.001228 -0.163606 -0.000000  0.082695
  1H   1py        0.000031 -0.004633 -0.060442 -0.000454 -0.000000 -0.000000
  2H   1s         0.001755  0.003087  0.068053 -0.038612  0.000000 -0.065828
  2H   2s         0.186184  0.327487  1.489398 -0.845059  0.000000 -1.343604
  2H   3s        -1.216739 -2.140176  0.580855 -0.329568  0.000000 -0.167974
  2H   1pz        0.000000  0.000000  0.000000 -0.000000 -0.011402 -0.000000
  2H   1px        0.026608  0.038683  0.045319 -0.085897  0.000000 -0.041348
  2H   1py       -0.038030 -0.071581 -0.138150  0.043637 -0.000000  0.071616
  3H   1s         0.001796 -0.003064 -0.067466 -0.039630  0.000000 -0.065828
  3H   2s         0.190520 -0.324984 -1.476542 -0.867327  0.000000 -1.343604
  3H   3s        -1.245077  2.123815 -0.575841 -0.338252  0.000000 -0.167974
  3H   1pz        0.000000 -0.000000 -0.000000 -0.000000 -0.011402 -0.000000
  3H   1px        0.027120 -0.038326 -0.044024 -0.086568  0.000000 -0.041348
  3H   1py        0.038978 -0.071069 -0.137479 -0.045706  0.000000 -0.071616
                     12        13        14        15        16        17   
                   0.64009   0.74220   0.74220   1.17131   1.17131   1.42412
                   0.00000   0.00000   0.00000   0.00000   0.00000   0.00000
                  --------  --------  --------  --------  --------  --------
  0N   1s         0.066672  0.000000 -0.000000 -0.000000 -0.000000 -0.000000
  0N   2s         0.135506  0.000000 -0.000000 -0.000000 -0.000000 -0.000000
  0N   3s         0.302160  0.000000  0.000000 -0.000000 -0.000000  0.000000
  0N   4s        -3.498700 -0.000000 -0.000000  0.000000  0.000000 -0.000000
  0N   5s         5.583690  0.000000  0.000000 -0.000000 -0.000000 -0.000000
  0N   1pz        0.000000 -0.000000 -0.000000  0.000000 -0.000000  0.000000
  0N   1px        0.000000  0.001081 -0.325058  0.000000 -0.000000  0.001025
  0N   1py        0.000000 -0.325058 -0.001081  0.000000  0.000000 -0.011776
  0N   2pz        0.000000 -0.000000 -0.000000 -0.000000 -0.000000 -0.000000
  0N   2px       -0.000000  0.004596 -1.382510  0.000000 -0.000000 -0.123907
  0N   2py        0.000000 -1.382510 -0.004596  0.000000  0.000000  1.423357
  0N   3pz       -0.000000  0.000000  0.000000  0.000000 -0.000000 -0.000000
  0N   3px       -0.000000 -0.005830  1.753707  0.000000 -0.000000 -0.117593
  0N   3py       -0.000000  1.753707  0.005830  0.000000  0.000000  1.350826
  0N   1dz2       0.008267  0.000000  0.000000 -0.000000 -0.000000 -0.000000
  0N   1dxz      -0.000000 -0.000000  0.000000 -0.015769  0.000139 -0.000000
  0N   1dyz      -0.000000  0.000000  0.000000 -0.000139 -0.015769  0.000000
  0N   1dx2y2     0.000000 -0.000023  0.006819 -0.000000  0.000000  0.000815
  0N   1dxy       0.000000 -0.006819 -0.000023  0.000000  0.000000  0.009359
  0N   2dz2       0.054337  0.000000  0.000000  0.000000  0.000000  0.000000
  0N   2dxz      -0.000000 -0.000000  0.000000  0.828515 -0.007289  0.000000
  0N   2dyz       0.000000  0.000000  0.000000  0.007289  0.828515 -0.000000
  0N   2dx2y2    -0.000000  0.000335 -0.100793  0.000000 -0.000000 -0.144902
  0N   2dxy      -0.000000  0.100793  0.000335 -0.000000 -0.000000 -1.664531
  0N   1f0       -0.000000  0.000000  0.000000  0.000000 -0.000000  0.000000
  0N   1f+1       0.000000 -0.000086  0.025969 -0.000000  0.000000  0.007351
  0N   1f-1       0.000000  0.025969  0.000086 -0.000000 -0.000000 -0.084440
  0N   1f+2      -0.000000 -0.000000  0.000000 -0.009659  0.000085  0.000000
  0N   1f-2      -0.000000 -0.000000 -0.000000  0.000085  0.009659  0.000000
  0N   1f+3       0.031648  0.000000 -0.000000  0.000000  0.000000  0.000000
  0N   1f-3       0.000000  0.000000  0.000000 -0.000000  0.000000 -0.000000
  1H   1s         0.056387 -0.000268  0.080636  0.000000 -0.000000 -0.013008
  1H   2s         0.421649 -0.003936  1.183926 -0.000000  0.000000  0.248744
  1H   3s        -1.397410  0.006995 -2.104280 -0.000000  0.000000 -0.011951
  1H   1pz        0.000000 -0.000000  0.000000  0.205825 -0.001811  0.000000
  1H   1px       -0.058365  0.000337 -0.101264  0.000000 -0.000000 -0.041803
  1H   1py        0.000000 -0.047322 -0.000157 -0.000000 -0.000000 -0.099602
  2H   1s         0.056387  0.069967 -0.040086 -0.000000  0.000000  0.135911
  2H   2s         0.421649  1.027278 -0.588554  0.000000 -0.000000 -2.598948
  2H   3s        -1.397410 -1.825858  1.046082  0.000000 -0.000000  0.124869
  2H   1pz        0.000000  0.000000 -0.000000 -0.101344  0.179155 -0.000000
  2H   1px        0.029182  0.023559 -0.060730 -0.000000 -0.000000 -0.255013
  2H   1py       -0.050545 -0.087856  0.023066 -0.000000  0.000000  0.357112
  3H   1s         0.056387 -0.069699 -0.040550 -0.000000 -0.000000 -0.122903
  3H   2s         0.421649 -1.023342 -0.595371  0.000000  0.000000  2.350204
  3H   3s        -1.397410  1.818862  1.058198  0.000000  0.000000 -0.112918
  3H   1pz        0.000000 -0.000000 -0.000000 -0.104481 -0.177344  0.000000
  3H   1px        0.029182 -0.023155 -0.060885 -0.000000  0.000000  0.247117
  3H   1py        0.050545 -0.087701 -0.023649  0.000000  0.000000  0.313400
                     18        19        20        21        22        23   
                   1.42412   1.47639   1.80394   2.06058   2.08687   2.08687
                   0.00000   0.00000   0.00000   0.00000   0.00000   0.00000
                  --------  --------  --------  --------  --------  --------
  0N   1s        -0.000000 -0.006637 -0.000000  0.000000  0.000000 -0.000000
  0N   2s        -0.000000 -0.026061 -0.000000  0.000000  0.000000 -0.000000
  0N   3s         0.000000  0.540164  0.000000 -0.000000 -0.000000  0.000000
  0N   4s        -0.000000 -1.826624 -0.000000  0.000000  0.000000 -0.000000
  0N   5s        -0.000000 -1.955281  0.000000 -0.000000 -0.000000 -0.000000
  0N   1pz        0.000000  0.000000 -0.000000  0.493659 -0.000000 -0.000000
  0N   1px        0.011776 -0.000000  0.000000 -0.000000 -0.607866  0.002429
  0N   1py        0.001025  0.000000  0.000000 -0.000000 -0.002429 -0.607866
  0N   2pz       -0.000000  0.000000  0.000000 -0.146855  0.000000  0.000000
  0N   2px       -1.423357  0.000000 -0.000000  0.000000  2.343582 -0.009365
  0N   2py       -0.123907 -0.000000 -0.000000  0.000000  0.009365  2.343582
  0N   3pz       -0.000000  0.000000 -0.000000  0.457437 -0.000000 -0.000000
  0N   3px       -1.350826  0.000000 -0.000000 -0.000000 -0.747485  0.002987
  0N   3py       -0.117593 -0.000000 -0.000000 -0.000000 -0.002987 -0.747485
  0N   1dz2      -0.000000 -0.015899 -0.000000 -0.000000 -0.000000  0.000000
  0N   1dxz      -0.000000  0.000000  0.000000 -0.000000  0.000000 -0.000000
  0N   1dyz      -0.000000  0.000000 -0.000000  0.000000  0.000000  0.000000
  0N   1dx2y2     0.009359 -0.000000 -0.000000  0.000000  0.017015 -0.000068
  0N   1dxy      -0.000815 -0.000000  0.000000 -0.000000 -0.000068 -0.017015
  0N   2dz2       0.000000  1.516835  0.000000 -0.000000 -0.000000  0.000000
  0N   2dxz       0.000000 -0.000000  0.000000  0.000000 -0.000000  0.000000
  0N   2dyz       0.000000 -0.000000 -0.000000 -0.000000 -0.000000 -0.000000
  0N   2dx2y2    -1.664531  0.000000 -0.000000  0.000000  0.977957 -0.003908
  0N   2dxy       0.144902  0.000000  0.000000 -0.000000 -0.003908 -0.977957
  0N   1f0        0.000000 -0.000000 -0.000000 -0.002201 -0.000000  0.000000
  0N   1f+1       0.084440 -0.000000  0.000000 -0.000000 -0.154578  0.000618
  0N   1f-1       0.007351  0.000000  0.000000 -0.000000 -0.000618 -0.154578
  0N   1f+2       0.000000 -0.000000 -0.000000  0.000000 -0.000000  0.000000
  0N   1f-2      -0.000000 -0.000000  0.000000 -0.000000  0.000000  0.000000
  0N   1f+3       0.000000  0.123861  0.000000 -0.000000 -0.000000  0.000000
  0N   1f-3       0.000000  0.000000 -0.053755  0.000000 -0.000000 -0.000000
  1H   1s        -0.149427 -0.091782 -0.000000  0.000000  0.454247 -0.001815
  1H   2s         2.857395  1.714776  0.000000 -0.000000 -2.442961  0.009762
  1H   3s        -0.137287  0.004108 -0.000000  0.000000  1.247987 -0.004987
  1H   1pz        0.000000 -0.000000 -0.000000 -0.613506  0.000000 -0.000000
  1H   1px       -0.480208 -0.280027 -0.000000  0.000000  0.932910 -0.003728
  1H   1py        0.008671  0.000000 -0.618608  0.000000  0.002355  0.589262
  2H   1s         0.063448 -0.091782 -0.000000  0.000000 -0.225551  0.394297
  2H   2s        -1.213279  1.714776  0.000000 -0.000000  1.213026 -2.120547
  2H   3s         0.058293  0.004108 -0.000000  0.000000 -0.619675  1.083282
  2H   1pz       -0.000000 -0.000000  0.000000 -0.613506 -0.000000  0.000000
  2H   1px       -0.023495  0.140013  0.535730 -0.000000  0.674579 -0.151502
  2H   1py        0.221880 -0.242510  0.309304  0.000000 -0.145419  0.847593
  3H   1s         0.085979 -0.091782  0.000000  0.000000 -0.228695 -0.392482
  3H   2s        -1.644116  1.714776 -0.000000 -0.000000  1.229935  2.110785
  3H   3s         0.078993  0.004108  0.000000  0.000000 -0.628313 -1.078295
  3H   1pz       -0.000000 -0.000000 -0.000000 -0.613506 -0.000000 -0.000000
  3H   1px       -0.067207  0.140013 -0.535730 -0.000000  0.675769  0.146106
  3H   1py       -0.280250  0.242510  0.309304 -0.000000  0.152189  0.846403
                     24        25        26        27        28        29   
                   2.17557   2.28390   2.28390   2.53457   2.62810   2.74044
                   0.00000   0.00000   0.00000   0.00000   0.00000   0.00000
                  --------  --------  --------  --------  --------  --------
  0N   1s        -0.076297  0.000000 -0.000000  0.000000  0.100799  0.000000
  0N   2s        -0.254802  0.000000 -0.000000  0.000000  0.373065  0.000000
  0N   3s         2.282176 -0.000000  0.000000 -0.000000 -2.749081 -0.000000
  0N   4s        -5.812744  0.000000 -0.000000  0.000000  3.954803  0.000000
  0N   5s         2.258696 -0.000000  0.000000 -0.000000 -3.483148 -0.000000
  0N   1pz        0.000000 -0.000000 -0.000000 -1.175569  0.000000 -0.000000
  0N   1px       -0.000000 -0.000000 -0.000000  0.000000 -0.000000  0.009128
  0N   1py        0.000000  0.000000 -0.000000  0.000000  0.000000 -1.028393
  0N   2pz        0.000000  0.000000  0.000000  1.764105 -0.000000  0.000000
  0N   2px        0.000000  0.000000  0.000000 -0.000000  0.000000 -0.016817
  0N   2py       -0.000000 -0.000000  0.000000 -0.000000 -0.000000  1.894786
  0N   3pz        0.000000 -0.000000 -0.000000 -0.555980  0.000000 -0.000000
  0N   3px       -0.000000 -0.000000 -0.000000  0.000000 -0.000000  0.006425
  0N   3py       -0.000000  0.000000 -0.000000  0.000000  0.000000 -0.723892
  0N   1dz2       0.051408 -0.000000 -0.000000  0.000000  0.072727  0.000000
  0N   1dxz      -0.000000 -0.000252 -0.038307  0.000000 -0.000000 -0.000000
  0N   1dyz       0.000000  0.038307 -0.000252 -0.000000 -0.000000  0.000000
  0N   1dx2y2     0.000000  0.000000  0.000000 -0.000000  0.000000 -0.000122
  0N   1dxy       0.000000  0.000000 -0.000000  0.000000  0.000000 -0.013795
  0N   2dz2       0.220634  0.000000  0.000000 -0.000000 -0.160179 -0.000000
  0N   2dxz      -0.000000  0.006758  1.028830 -0.000000  0.000000  0.000000
  0N   2dyz      -0.000000 -1.028830  0.006758  0.000000 -0.000000 -0.000000
  0N   2dx2y2     0.000000  0.000000  0.000000  0.000000 -0.000000  0.005647
  0N   2dxy      -0.000000  0.000000 -0.000000 -0.000000 -0.000000  0.636196
  0N   1f0       -0.000000 -0.000000 -0.000000  0.032171 -0.000000 -0.000000
  0N   1f+1      -0.000000 -0.000000 -0.000000 -0.000000 -0.000000 -0.000283
  0N   1f-1       0.000000  0.000000 -0.000000  0.000000  0.000000  0.031879
  0N   1f+2      -0.000000 -0.000217 -0.033035  0.000000 -0.000000 -0.000000
  0N   1f-2       0.000000 -0.033035  0.000217  0.000000  0.000000 -0.000000
  0N   1f+3       0.295470 -0.000000  0.000000  0.000000  0.197613  0.000000
  0N   1f-3       0.000000 -0.000000  0.000000 -0.000000 -0.000000 -0.000000
  1H   1s        -0.483113  0.000000  0.000000 -0.000000 -0.463570 -0.000371
  1H   2s         1.813517 -0.000000 -0.000000  0.000000  0.443449  0.003952
  1H   3s        -0.751152  0.000000  0.000000  0.000000  0.492974 -0.005540
  1H   1pz       -0.000000 -0.006871 -1.046125 -0.336914  0.000000 -0.000000
  1H   1px       -0.623589  0.000000  0.000000 -0.000000 -0.144805 -0.000071
  1H   1py        0.000000 -0.000000  0.000000  0.000000  0.000000 -0.834557
  2H   1s        -0.483113 -0.000000 -0.000000 -0.000000 -0.463570  0.036377
  2H   2s         1.813517  0.000000  0.000000  0.000000  0.443449 -0.387596
  2H   3s        -0.751153 -0.000000 -0.000000  0.000000  0.492974  0.543301
  2H   1pz       -0.000000  0.909407  0.517112 -0.336914  0.000000  0.000000
  2H   1px        0.311794  0.000000  0.000000  0.000000  0.072402 -0.359296
  2H   1py       -0.540044 -0.000000 -0.000000 -0.000000 -0.125405 -0.199408
  3H   1s        -0.483113  0.000000 -0.000000 -0.000000 -0.463570 -0.036006
  3H   2s         1.813517 -0.000000  0.000000  0.000000  0.443449  0.383644
  3H   3s        -0.751153  0.000000 -0.000000  0.000000  0.492974 -0.537762
  3H   1pz       -0.000000 -0.902536  0.529013 -0.336914  0.000000 -0.000000
  3H   1px        0.311794 -0.000000  0.000000  0.000000  0.072402  0.370372
  3H   1py        0.540044 -0.000000  0.000000  0.000000  0.125405 -0.205884
                     30        31        32        33        34        35   
                   2.74044   2.93120   2.93120   3.25819   3.60293   3.60293
                   0.00000   0.00000   0.00000   0.00000   0.00000   0.00000
                  --------  --------  --------  --------  --------  --------
  0N   1s         0.000000 -0.000000 -0.000000 -0.039794 -0.000000 -0.000000
  0N   2s         0.000000 -0.000000 -0.000000 -0.105124 -0.000000  0.000000
  0N   3s        -0.000000  0.000000  0.000000 -0.805889 -0.000000 -0.000000
  0N   4s         0.000000  0.000000  0.000000  5.635553  0.000000  0.000000
  0N   5s        -0.000000  0.000000  0.000000 -0.024248 -0.000000 -0.000000
  0N   1pz        0.000000  0.000000  0.000000 -0.000000 -0.000000  0.000000
  0N   1px        1.028393  0.002748  0.519320  0.000000 -0.284229 -0.004700
  0N   1py        0.009128 -0.519320  0.002748  0.000000 -0.004700  0.284229
  0N   2pz       -0.000000 -0.000000  0.000000 -0.000000  0.000000  0.000000
  0N   2px       -1.894786  0.009291  1.755661 -0.000000  2.738286  0.045277
  0N   2py       -0.016817 -1.755661  0.009291  0.000000  0.045277 -2.738286
  0N   3pz        0.000000  0.000000  0.000000 -0.000000 -0.000000  0.000000
  0N   3px        0.723892  0.003156  0.596428 -0.000000 -0.221662 -0.003665
  0N   3py        0.006425 -0.596428  0.003156  0.000000 -0.003665  0.221662
  0N   1dz2       0.000000  0.000000  0.000000  0.138336  0.000000  0.000000
  0N   1dxz      -0.000000  0.000000  0.000000 -0.000000  0.000000  0.000000
  0N   1dyz      -0.000000 -0.000000  0.000000 -0.000000  0.000000 -0.000000
  0N   1dx2y2    -0.013795 -0.000221 -0.041715  0.000000 -0.165167 -0.002731
  0N   1dxy       0.000122 -0.041715  0.000221  0.000000  0.002731 -0.165167
  0N   2dz2       0.000000 -0.000000 -0.000000 -1.321259 -0.000000 -0.000000
  0N   2dxz       0.000000 -0.000000 -0.000000  0.000000 -0.000000 -0.000000
  0N   2dyz       0.000000  0.000000 -0.000000 -0.000000 -0.000000  0.000000
  0N   2dx2y2     0.636196  0.001373  0.259431  0.000000  1.913619  0.031641
  0N   2dxy      -0.005647  0.259431 -0.001373  0.000000 -0.031641  1.913619
  0N   1f0       -0.000000  0.000000 -0.000000  0.000000  0.000000 -0.000000
  0N   1f+1      -0.031879 -0.000929 -0.175515 -0.000000  0.395101  0.006533
  0N   1f-1      -0.000283  0.175515 -0.000929 -0.000000  0.006533 -0.395101
  0N   1f+2      -0.000000 -0.000000 -0.000000  0.000000  0.000000  0.000000
  0N   1f-2       0.000000 -0.000000  0.000000 -0.000000 -0.000000  0.000000
  0N   1f+3       0.000000 -0.000000 -0.000000 -0.138899  0.000000  0.000000
  0N   1f-3      -0.000000  0.000000 -0.000000  0.000000  0.000000 -0.000000
  1H   1s        -0.041790  0.000975  0.184323 -0.336904 -1.006565 -0.016643
  1H   2s         0.445275 -0.011622 -2.196152 -2.051543 -1.773619 -0.029327
  1H   3s        -0.624152  0.000524  0.098966  0.239548  0.443427  0.007332
  1H   1pz       -0.000000 -0.000000 -0.000000 -0.000000 -0.000000 -0.000000
  1H   1px       -0.007991  0.007551  1.426881  1.401114  1.166901  0.019295
  1H   1py        0.007407  0.585691 -0.003100 -0.000000  0.007774 -0.470178
  2H   1s         0.020574 -0.160117 -0.091317 -0.336904  0.488869  0.880033
  2H   2s        -0.219215  1.907734  1.088010 -2.051543  0.861412  1.550663
  2H   3s         0.307278 -0.085969 -0.049029  0.239548 -0.215364 -0.387685
  2H   1pz        0.000000  0.000000  0.000000 -0.000000  0.000000  0.000000
  2H   1px        0.627158  0.871033 -0.087160 -0.700557  0.639371  0.312344
  2H   1py        0.366633 -0.928350 -0.866581  1.213400 -0.285275 -0.997708
  3H   1s         0.021216  0.159141 -0.093007 -0.336904  0.517696 -0.863390
  3H   2s        -0.226060 -1.896112  1.108141 -2.051543  0.912207 -1.521336
  3H   3s         0.316874  0.085445 -0.049937  0.239548 -0.228063  0.380353
  3H   1pz        0.000000 -0.000000  0.000000 -0.000000  0.000000 -0.000000
  3H   1px        0.620682 -0.871906 -0.077936 -0.700557  0.649347 -0.291035
  3H   1py       -0.363035 -0.919126  0.876358 -1.213400  0.318104 -0.987732
                     36        37        38        39        40        41   
                   4.64037   4.64037   4.73491   5.00528   5.00528   5.04525
                   0.00000   0.00000   0.00000   0.00000   0.00000   0.00000
                  --------  --------  --------  --------  --------  --------
  0N   1s        -0.000000 -0.000000 -0.000000  0.000000  0.000000 -0.000000
  0N   2s        -0.000000 -0.000000 -0.000000  0.000000  0.000000 -0.000000
  0N   3s         0.000000  0.000000  0.000000 -0.000000 -0.000000  0.000000
  0N   4s        -0.000000 -0.000000 -0.000000  0.000000 -0.000000  0.000000
  0N   5s         0.000000 -0.000000  0.000000  0.000000  0.000000 -0.000000
  0N   1pz       -0.000000  0.000000  0.120117  0.000000 -0.000000  0.000000
  0N   1px        0.000000 -0.000000 -0.000000  0.000000 -0.000000  0.000000
  0N   1py        0.000000  0.000000 -0.000000  0.000000  0.000000  0.000000
  0N   2pz        0.000000 -0.000000 -0.386151 -0.000000  0.000000  0.000000
  0N   2px       -0.000000  0.000000  0.000000  0.000000 -0.000000 -0.000000
  0N   2py       -0.000000 -0.000000 -0.000000  0.000000  0.000000 -0.000000
  0N   3pz        0.000000 -0.000000 -0.047333  0.000000  0.000000  0.000000
  0N   3px       -0.000000  0.000000 -0.000000 -0.000000  0.000000 -0.000000
  0N   3py       -0.000000 -0.000000 -0.000000 -0.000000 -0.000000 -0.000000
  0N   1dz2      -0.000000 -0.000000  0.000000  0.000000  0.000000 -0.000000
  0N   1dxz      -0.479864  0.005272 -0.000000  1.082214 -0.005605  0.000000
  0N   1dyz      -0.005272 -0.479864  0.000000  0.005605  1.082214 -0.000000
  0N   1dx2y2     0.000000 -0.000000  0.000000  0.000000 -0.000000  0.000000
  0N   1dxy      -0.000000 -0.000000  0.000000 -0.000000 -0.000000 -0.000000
  0N   2dz2      -0.000000  0.000000  0.000000 -0.000000 -0.000000  0.000000
  0N   2dxz      -0.107442  0.001180 -0.000000 -0.829679  0.004297 -0.000000
  0N   2dyz      -0.001180 -0.107442 -0.000000 -0.004297 -0.829679  0.000000
  0N   2dx2y2     0.000000 -0.000000 -0.000000 -0.000000  0.000000 -0.000000
  0N   2dxy      -0.000000 -0.000000  0.000000  0.000000  0.000000  0.000000
  0N   1f0       -0.000000  0.000000  1.106390  0.000000 -0.000000 -0.000000
  0N   1f+1       0.000000 -0.000000 -0.000000  0.000000 -0.000000  0.000000
  0N   1f-1       0.000000  0.000000  0.000000  0.000000  0.000000  0.000000
  0N   1f+2      -0.978756  0.010753 -0.000000 -0.513357  0.002659 -0.000000
  0N   1f-2       0.010753  0.978756 -0.000000  0.002659  0.513357  0.000000
  0N   1f+3      -0.000000  0.000000  0.000000 -0.000000  0.000000  0.000000
  0N   1f-3       0.000000  0.000000 -0.000000  0.000000 -0.000000 -1.223930
  1H   1s        -0.000000  0.000000  0.000000 -0.000000  0.000000  0.000000
  1H   2s         0.000000 -0.000000 -0.000000  0.000000 -0.000000  0.000000
  1H   3s         0.000000 -0.000000 -0.000000  0.000000 -0.000000 -0.000000
  1H   1pz        0.427177 -0.004693  0.343384  0.354057 -0.001834  0.000000
  1H   1px        0.000000 -0.000000  0.000000  0.000000 -0.000000 -0.000000
  1H   1py        0.000000  0.000000 -0.000000 -0.000000 -0.000000 -0.398265
  2H   1s         0.000000 -0.000000  0.000000  0.000000 -0.000000  0.000000
  2H   2s        -0.000000  0.000000 -0.000000 -0.000000  0.000000  0.000000
  2H   3s        -0.000000  0.000000 -0.000000 -0.000000  0.000000 -0.000000
  2H   1pz       -0.209524  0.372293  0.343384 -0.175441  0.307540 -0.000000
  2H   1px        0.000000  0.000000 -0.000000  0.000000 -0.000000  0.344907
  2H   1py        0.000000  0.000000  0.000000 -0.000000  0.000000  0.199132
  3H   1s         0.000000  0.000000  0.000000  0.000000  0.000000 -0.000000
  3H   2s        -0.000000 -0.000000 -0.000000 -0.000000 -0.000000 -0.000000
  3H   3s        -0.000000 -0.000000 -0.000000 -0.000000 -0.000000  0.000000
  3H   1pz       -0.217653 -0.367599  0.343384 -0.178617 -0.305706 -0.000000
  3H   1px        0.000000 -0.000000 -0.000000  0.000000  0.000000 -0.344907
  3H   1py       -0.000000  0.000000 -0.000000  0.000000  0.000000  0.199132
                     42        43        44        45        46        47   
                   5.14647   5.23517   5.23517   5.70797   5.70797   6.40964
                   0.00000   0.00000   0.00000   0.00000   0.00000   0.00000
                  --------  --------  --------  --------  --------  --------
  0N   1s         0.005303  0.000000  0.000000  0.000000 -0.000000  0.000929
  0N   2s         0.018039  0.000000  0.000000  0.000000 -0.000000  0.039495
  0N   3s        -0.013066 -0.000000 -0.000000 -0.000000  0.000000 -1.722112
  0N   4s        -0.620103  0.000000  0.000000  0.000000 -0.000000  5.799690
  0N   5s         0.814349  0.000000  0.000000  0.000000 -0.000000 -0.993971
  0N   1pz        0.000000 -0.000000 -0.000000  0.000000 -0.000000  0.000000
  0N   1px        0.000000 -0.192525 -0.001441  0.034077 -0.365722  0.000000
  0N   1py       -0.000000 -0.001441  0.192525  0.365722  0.034077 -0.000000
  0N   2pz        0.000000  0.000000 -0.000000 -0.000000  0.000000 -0.000000
  0N   2px       -0.000000  0.656912  0.004915 -0.336523  3.611660  0.000000
  0N   2py        0.000000  0.004915 -0.656912 -3.611660 -0.336523  0.000000
  0N   3pz       -0.000000  0.000000 -0.000000  0.000000 -0.000000  0.000000
  0N   3px       -0.000000  0.438239  0.003279  0.017139 -0.183940  0.000000
  0N   3py        0.000000  0.003279 -0.438239  0.183940  0.017139 -0.000000
  0N   1dz2       1.177469  0.000000  0.000000  0.000000 -0.000000 -0.281375
  0N   1dxz      -0.000000  0.000000  0.000000  0.000000 -0.000000  0.000000
  0N   1dyz      -0.000000  0.000000 -0.000000  0.000000  0.000000  0.000000
  0N   1dx2y2     0.000000 -1.172871 -0.008776 -0.041409  0.444413  0.000000
  0N   1dxy       0.000000  0.008776 -1.172871  0.444413  0.041409  0.000000
  0N   2dz2      -0.675372 -0.000000 -0.000000 -0.000000  0.000000 -1.181171
  0N   2dxz       0.000000 -0.000000 -0.000000  0.000000 -0.000000  0.000000
  0N   2dyz       0.000000 -0.000000  0.000000  0.000000  0.000000 -0.000000
  0N   2dx2y2    -0.000000  1.409297  0.010545 -0.152972  1.641737  0.000000
  0N   2dxy      -0.000000 -0.010545  1.409297  1.641737  0.152972  0.000000
  0N   1f0       -0.000000 -0.000000  0.000000  0.000000 -0.000000  0.000000
  0N   1f+1       0.000000 -0.445191 -0.003331  0.097464 -1.046014 -0.000000
  0N   1f-1      -0.000000 -0.003331  0.445191  1.046014  0.097464 -0.000000
  0N   1f+2       0.000000 -0.000000 -0.000000  0.000000 -0.000000  0.000000
  0N   1f-2      -0.000000  0.000000 -0.000000 -0.000000 -0.000000  0.000000
  0N   1f+3      -0.283539 -0.000000 -0.000000 -0.000000  0.000000 -1.494596
  0N   1f-3      -0.000000 -0.000000  0.000000  0.000000  0.000000 -0.000000
  1H   1s        -0.081196 -0.458504 -0.003431  0.125483 -1.346717 -0.954071
  1H   2s        -0.004855 -0.700867 -0.005244  0.206368 -2.214801 -1.257580
  1H   3s        -0.132902 -0.077896 -0.000583 -0.052918  0.567930  0.294126
  1H   1pz       -0.000000  0.000000  0.000000  0.000000 -0.000000 -0.000000
  1H   1px       -0.205306  0.032304  0.000242 -0.136267  1.462462  0.964929
  1H   1py        0.000000  0.001760 -0.235264 -0.069981 -0.006521  0.000000
  2H   1s        -0.081196  0.226281  0.398792  1.103550  0.782030 -0.954071
  2H   2s        -0.004855  0.345892  0.609591  1.814890  1.286120 -1.257580
  2H   3s        -0.132902  0.038443  0.067752 -0.465383 -0.329793  0.294126
  2H   1pz       -0.000000 -0.000000 -0.000000  0.000000  0.000000 -0.000000
  2H   1px        0.102653  0.185182 -0.086504  0.564005  0.474283 -0.482465
  2H   1py       -0.177800  0.088506 -0.082386 -1.058159 -0.706793  0.835653
  3H   1s        -0.081196  0.232223 -0.395361 -1.229032  0.564687 -0.954071
  3H   2s        -0.004855  0.354975 -0.604347 -2.021258  0.928681 -1.257580
  3H   3s        -0.132902  0.039453 -0.067169  0.518301 -0.238137  0.294126
  3H   1pz       -0.000000 -0.000000  0.000000 -0.000000  0.000000 -0.000000
  3H   1px        0.102653  0.183866  0.089265 -0.641919  0.361919 -0.482465
  3H   1py        0.177800 -0.087263 -0.083701 -1.170523  0.499131 -0.835653
                     48   
                  32.87163
                   0.00000
                  --------
  0N   1s        -1.388436
  0N   2s         1.694353
  0N   3s        -1.495819
  0N   4s         1.476400
  0N   5s        -1.088484
  0N   1pz        0.000000
  0N   1px        0.000000
  0N   1py       -0.000000
  0N   2pz       -0.000000
  0N   2px       -0.000000
  0N   2py       -0.000000
  0N   3pz        0.000000
  0N   3px        0.000000
  0N   3py       -0.000000
  0N   1dz2       0.012719
  0N   1dxz      -0.000000
  0N   1dyz       0.000000
  0N   1dx2y2    -0.000000
  0N   1dxy      -0.000000
  0N   2dz2      -0.000048
  0N   2dxz       0.000000
  0N   2dyz      -0.000000
  0N   2dx2y2     0.000000
  0N   2dxy       0.000000
  0N   1f0        0.000000
  0N   1f+1       0.000000
  0N   1f-1       0.000000
  0N   1f+2       0.000000
  0N   1f-2       0.000000
  0N   1f+3      -0.008758
  0N   1f-3      -0.000000
  1H   1s        -0.017082
  1H   2s        -0.001606
  1H   3s         0.193973
  1H   1pz        0.000000
  1H   1px       -0.046739
  1H   1py       -0.000000
  2H   1s        -0.017082
  2H   2s        -0.001606
  2H   3s         0.193973
  2H   1pz        0.000000
  2H   1px        0.023369
  2H   1py       -0.040477
  3H   1s        -0.017082
  3H   2s        -0.001606
  3H   3s         0.193973
  3H   1pz        0.000000
  3H   1px        0.023369
  3H   1py        0.040477



                    ********************************
                    * MULLIKEN POPULATION ANALYSIS *
                    ********************************

-----------------------
MULLIKEN ATOMIC CHARGES
-----------------------
   0 N :   -0.775605
   1 H :    0.258535
   2 H :    0.258535
   3 H :    0.258535
Sum of atomic charges:    0.0000000

--------------------------------
MULLIKEN REDUCED ORBITAL CHARGES
--------------------------------
  0 N s       :     3.476277  s :     3.476277
      pz      :     1.955098  p :     4.279086
      px      :     1.161994
      py      :     1.161994
      dz2     :     0.003568  d :     0.016932
      dxz     :     0.000000
      dyz     :     0.000000
      dx2y2   :     0.006682
      dxy     :     0.006682
      f0      :     0.000392  f :     0.003310
      f+1     :     0.000863
      f-1     :     0.000863
      f+2     :     0.000000
      f-2     :     0.000000
      f+3     :     0.001193
      f-3     :     0.000000
  1 H s       :     0.701473  s :     0.701473
      pz      :     0.014837  p :     0.039992
      px      :     0.020600
      py      :     0.004555
  2 H s       :     0.701473  s :     0.701473
      pz      :     0.014837  p :     0.039992
      px      :     0.008566
      py      :     0.016589
  3 H s       :     0.701473  s :     0.701473
      pz      :     0.014837  p :     0.039992
      px      :     0.008566
      py      :     0.016589


                     *******************************
                     * LOEWDIN POPULATION ANALYSIS *
                     *******************************

----------------------
LOEWDIN ATOMIC CHARGES
----------------------
   0 N :   -0.378583
   1 H :    0.126194
   2 H :    0.126194
   3 H :    0.126194

-------------------------------
LOEWDIN REDUCED ORBITAL CHARGES
-------------------------------
  0 N s       :     3.068923  s :     3.068923
      pz      :     1.866379  p :     4.251636
      px      :     1.192628
      py      :     1.192628
      dz2     :     0.002527  d :     0.053676
      dxz     :     0.000000
      dyz     :     0.000000
      dx2y2   :     0.025574
      dxy     :     0.025574
      f0      :     0.000002  f :     0.004348
      f+1     :     0.001546
      f-1     :     0.001546
      f+2     :     0.000000
      f-2     :     0.000000
      f+3     :     0.001253
      f-3     :     0.000000
  1 H s       :     0.750022  s :     0.750022
      pz      :     0.044540  p :     0.123783
      px      :     0.062624
      py      :     0.016619
  2 H s       :     0.750022  s :     0.750022
      pz      :     0.044540  p :     0.123783
      px      :     0.028121
      py      :     0.051123
  3 H s       :     0.750022  s :     0.750022
      pz      :     0.044540  p :     0.123783
      px      :     0.028121
      py      :     0.051123


                      *****************************
                      * MAYER POPULATION ANALYSIS *
                      *****************************

  NA   - Mulliken gross atomic population
  ZA   - Total nuclear charge
  QA   - Mulliken gross atomic charge
  VA   - Mayer's total valence
  BVA  - Mayer's bonded valence
  FA   - Mayer's free valence

  ATOM       NA         ZA         QA         VA         BVA        FA
  0 N      7.7756     7.0000    -0.7756     2.7980     2.7980     0.0000
  1 H      0.7415     1.0000     0.2585     0.9416     0.9416     0.0000
  2 H      0.7415     1.0000     0.2585     0.9416     0.9416     0.0000
  3 H      0.7415     1.0000     0.2585     0.9416     0.9416     0.0000

  Mayer bond orders larger than 0.100000
B(  0-N ,  1-H ) :   0.9327 B(  0-N ,  2-H ) :   0.9327 B(  0-N ,  3-H ) :   0.9327 


Now starting NBO....

 *********************************** NBO 7.0 ***********************************
             N A T U R A L   A T O M I C   O R B I T A L   A N D
          N A T U R A L   B O N D   O R B I T A L   A N A L Y S I S
 *********************** Giovanni  F. Caramori (I101916) ***********************
  (c) Copyright 1996-2020 Board of Regents of the University of Wisconsin System
      on behalf of the Theoretical Chemistry Institute.  All rights reserved.

          Cite this program [NBO 7.0.8 (11-Feb-2020)] as:

          NBO 7.0.  E. D. Glendening, J. K. Badenhoop, A. E. Reed,
          J. E. Carpenter, J. A. Bohmann, C. M. Morales, P. Karafiloglou,
          C. R. Landis, and F. Weinhold, Theoretical Chemistry Institute,
          University of Wisconsin, Madison, WI (2018)

       /NPA    / : Natural Population Analysis
       /NBO    / : Natural Bond Orbital Analysis
       /AONBO  / : Checkpoint the AO to NBO transformation
       /ARCHIVE/ : Write the archive file to lfn47

 Job title: ORCA Job: NH3‡-sp


 NATURAL POPULATIONS:  Natural atomic orbital occupancies

  NAO Atom No lang   Type(AO)    Occupancy      Energy
 -------------------------------------------------------
   1    N  1  s      Cor( 1s)     2.00000     -15.51871
   2    N  1  s      Val( 2s)     1.38320      -0.59575
   3    N  1  s      Ryd( 4s)     0.00000       6.21864
   4    N  1  s      Ryd( 3s)     0.00000       1.22300
   5    N  1  s      Ryd( 5s)     0.00000      28.78531
   6    N  1  px     Val( 2p)     1.35954      -0.21279
   7    N  1  px     Ryd( 3p)     0.00191       0.78353
   8    N  1  px     Ryd( 4p)     0.00000       3.13692
   9    N  1  py     Val( 2p)     1.35954      -0.21279
  10    N  1  py     Ryd( 3p)     0.00191       0.78353
  11    N  1  py     Ryd( 4p)     0.00000       3.13692
  12    N  1  pz     Val( 2p)     1.99287      -0.38402
  13    N  1  pz     Ryd( 3p)     0.00521       0.58799
  14    N  1  pz     Ryd( 4p)     0.00000       2.40557
  15    N  1  dxy    Ryd( 3d)     0.00444       2.27217
  16    N  1  dxy    Ryd( 4d)     0.00000       4.95163
  17    N  1  dxz    Ryd( 3d)     0.00000       1.56326
  18    N  1  dxz    Ryd( 4d)     0.00000       4.69983
  19    N  1  dyz    Ryd( 3d)     0.00000       1.56326
  20    N  1  dyz    Ryd( 4d)     0.00000       4.69983
  21    N  1  dx2y2  Ryd( 3d)     0.00444       2.27217
  22    N  1  dx2y2  Ryd( 4d)     0.00000       4.95163
  23    N  1  dz2    Ryd( 3d)     0.00257       1.88986
  24    N  1  dz2    Ryd( 4d)     0.00000       4.83748
  25    N  1  f(0)   Ryd( 4f)     0.00050       4.61842
  26    N  1  f(c1)  Ryd( 4f)     0.00041       4.86150
  27    N  1  f(s1)  Ryd( 4f)     0.00041       4.86150
  28    N  1  f(c2)  Ryd( 4f)     0.00000       4.56535
  29    N  1  f(s2)  Ryd( 4f)     0.00000       4.56535
  30    N  1  f(c3)  Ryd( 4f)     0.00070       5.48911
  31    N  1  f(s3)  Ryd( 4f)     0.00000       4.90784

  32    H  2  s      Val( 1s)     0.62644       0.23823
  33    H  2  s      Ryd( 3s)     0.00020       2.24402
  34    H  2  s      Ryd( 2s)     0.00000       0.64800
  35    H  2  px     Ryd( 2p)     0.00034       3.05602
  36    H  2  py     Ryd( 2p)     0.00000       2.36811
  37    H  2  pz     Ryd( 2p)     0.00047       2.25867

  38    H  3  s      Val( 1s)     0.62644       0.23823
  39    H  3  s      Ryd( 3s)     0.00020       2.24402
  40    H  3  s      Ryd( 2s)     0.00000       0.64800
  41    H  3  px     Ryd( 2p)     0.00009       2.54009
  42    H  3  py     Ryd( 2p)     0.00026       2.88404
  43    H  3  pz     Ryd( 2p)     0.00047       2.25867

  44    H  4  s      Val( 1s)     0.62644       0.23823
  45    H  4  s      Ryd( 3s)     0.00020       2.24402
  46    H  4  s      Ryd( 2s)     0.00000       0.64800
  47    H  4  px     Ryd( 2p)     0.00009       2.54009
  48    H  4  py     Ryd( 2p)     0.00026       2.88404
  49    H  4  pz     Ryd( 2p)     0.00047       2.25867


 Summary of Natural Population Analysis:

                                     Natural Population
             Natural    ---------------------------------------------
  Atom No    Charge        Core      Valence    Rydberg      Total
 --------------------------------------------------------------------
    N  1   -1.11764      2.00000     6.09515    0.02249     8.11764
    H  2    0.37255      0.00000     0.62644    0.00101     0.62745
    H  3    0.37255      0.00000     0.62644    0.00101     0.62745
    H  4    0.37255      0.00000     0.62644    0.00101     0.62745
 ====================================================================
 * Total *  0.00000      2.00000     7.97447    0.02553    10.00000

                                 Natural Population
 ---------------------------------------------------------
   Core                       2.00000 (100.0000% of    2)
   Valence                    7.97447 ( 99.6809% of    8)
   Natural Minimal Basis      9.97447 ( 99.7447% of   10)
   Natural Rydberg Basis      0.02553 (  0.2553% of   10)
 ---------------------------------------------------------

    Atom No         Natural Electron Configuration
 ----------------------------------------------------------------------------
      N  1      [core]2s( 1.38)2p( 4.71)3p( 0.01)3d( 0.01)
      H  2            1s( 0.63)
      H  3            1s( 0.63)
      H  4            1s( 0.63)


 NATURAL BOND ORBITAL ANALYSIS:

                            Occupancies       Lewis Structure    Low   High
         Max    Occ     -------------------  -----------------   occ   occ
  Cycle  Ctr   Thresh    Lewis   non-Lewis     CR  BD  nC  LP    (L)   (NL)
 ============================================================================
    1     2     1.90     9.99776   0.00224      1   3   0   1     0      0
 ----------------------------------------------------------------------------

 Structure accepted: No low occupancy Lewis orbitals

 -------------------------------------------------------
   Core                      2.00000 (100.000% of   2)
   Valence Lewis             7.99776 ( 99.972% of   8)
  ==================      =============================
   Total Lewis               9.99776 ( 99.978% of  10)
  -----------------------------------------------------
   Valence non-Lewis         0.00016 (  0.002% of  10)
   Rydberg non-Lewis         0.00208 (  0.021% of  10)
  ==================      =============================
   Total non-Lewis           0.00224 (  0.022% of  10)
 -------------------------------------------------------


     (Occupancy)   Bond orbital / Coefficients / Hybrids
 ------------------ Lewis ------------------------------------------------------
   1. (2.00000) CR ( 1) N  1            s(100.00%)
                                         1.0000  0.0000  0.0000  0.0000  0.0000
                                         0.0000  0.0000  0.0000  0.0000  0.0000
                                         0.0000  0.0000  0.0000  0.0000  0.0000
                                         0.0000  0.0000  0.0000  0.0000  0.0000
                                         0.0000  0.0000  0.0000  0.0000  0.0000
                                         0.0000  0.0000  0.0000  0.0000  0.0000
                                         0.0000
   2. (1.99858) LP ( 1) N  1            s(  0.00%)p 1.00( 99.98%)d 0.00(  0.00%)
                                                  f 0.00(  0.02%)
                                         0.0000  0.0000  0.0000  0.0000  0.0000
                                         0.0000  0.0000  0.0000  0.0000  0.0000
                                         0.0000  0.9986  0.0511  0.0000  0.0000
                                         0.0000  0.0000  0.0000  0.0000  0.0000
                                         0.0000  0.0000  0.0000  0.0000 -0.0158
                                         0.0000  0.0000  0.0000  0.0000  0.0000
                                         0.0000
   3. (1.99973) BD ( 1) N  1- H  2
               ( 68.66%)   0.8286* N  1 s( 33.25%)p 2.00( 66.43%)d 0.01(  0.28%)
                                                  f 0.00(  0.04%)
                                         0.0000  0.5767  0.0000  0.0000  0.0000
                                         0.8145 -0.0305  0.0000  0.0000  0.0000
                                         0.0000  0.0000  0.0000  0.0000  0.0000
                                         0.0000  0.0000  0.0000  0.0000  0.0000
                                         0.0465  0.0002 -0.0249  0.0005  0.0000
                                        -0.0141  0.0000  0.0000  0.0000 -0.0130
                                         0.0000
               ( 31.34%)   0.5598* H  2 s( 99.95%)p 0.00(  0.05%)
                                         0.9997  0.0003  0.0000 -0.0226  0.0000
                                         0.0000
   4. (1.99973) BD ( 1) N  1- H  3
               ( 68.66%)   0.8286* N  1 s( 33.25%)p 2.00( 66.43%)d 0.01(  0.28%)
                                                  f 0.00(  0.04%)
                                         0.0000  0.5767  0.0000  0.0000  0.0000
                                        -0.4072  0.0153  0.0000  0.7054 -0.0264
                                         0.0000  0.0000  0.0000  0.0000 -0.0403
                                        -0.0002  0.0000  0.0000  0.0000  0.0000
                                        -0.0233 -0.0001 -0.0249  0.0005  0.0000
                                         0.0070 -0.0122  0.0000  0.0000 -0.0130
                                         0.0000
               ( 31.34%)   0.5598* H  3 s( 99.95%)p 0.00(  0.05%)
                                         0.9997  0.0003  0.0000  0.0113 -0.0196
                                         0.0000
   5. (1.99973) BD ( 1) N  1- H  4
               ( 68.66%)   0.8286* N  1 s( 33.25%)p 2.00( 66.43%)d 0.01(  0.28%)
                                                  f 0.00(  0.04%)
                                         0.0000  0.5767  0.0000  0.0000  0.0000
                                        -0.4072  0.0153  0.0000 -0.7054  0.0264
                                         0.0000  0.0000  0.0000  0.0000  0.0403
                                         0.0002  0.0000  0.0000  0.0000  0.0000
                                        -0.0233 -0.0001 -0.0249  0.0005  0.0000
                                         0.0070  0.0122  0.0000  0.0000 -0.0130
                                         0.0000
               ( 31.34%)   0.5598* H  4 s( 99.95%)p 0.00(  0.05%)
                                         0.9997  0.0003  0.0000  0.0113  0.0196
                                         0.0000
 ---------------- non-Lewis ----------------------------------------------------
   6. (0.00005) BD*( 1) N  1- H  2
               ( 31.34%)   0.5598* N  1 s( 33.25%)p 2.00( 66.43%)d 0.01(  0.28%)
                                                  f 0.00(  0.04%)
               ( 68.66%)  -0.8286* H  2 s( 99.95%)p 0.00(  0.05%)
   7. (0.00005) BD*( 1) N  1- H  3
               ( 31.34%)   0.5598* N  1 s( 33.25%)p 2.00( 66.43%)d 0.01(  0.28%)
                                                  f 0.00(  0.04%)
               ( 68.66%)  -0.8286* H  3 s( 99.95%)p 0.00(  0.05%)
   8. (0.00005) BD*( 1) N  1- H  4
               ( 31.34%)   0.5598* N  1 s( 33.25%)p 2.00( 66.43%)d 0.01(  0.28%)
                                                  f 0.00(  0.04%)
               ( 68.66%)  -0.8286* H  4 s( 99.95%)p 0.00(  0.05%)
   9. (0.00000) RY ( 1) N  1            s( 35.64%)p 0.00(  0.00%)d 0.56( 20.12%)
                                                  f 1.24( 44.25%)
  10. (0.00000) RY ( 2) N  1            s(100.00%)
  11. (0.00000) RY ( 3) N  1            s( 95.02%)p 0.00(  0.00%)d 0.01(  1.10%)
                                                  f 0.04(  3.87%)
  12. (0.00000) RY ( 4) N  1            s(  0.00%)p 1.00(100.00%)d 0.00(  0.00%)
  13. (0.00000) RY ( 5) N  1            s(  0.73%)p99.99( 97.81%)d 0.44(  0.32%)
                                                  f 1.55(  1.14%)
  14. (0.00000) RY ( 6) N  1            s(  0.00%)p 1.00(100.00%)d 0.00(  0.00%)
  15. (0.00000) RY ( 7) N  1            s(  0.00%)p 1.00(100.00%)
  16. (0.00000) RY ( 8) N  1            s(  0.00%)p 1.00(100.00%)
  17. (0.00000) RY ( 9) N  1            s(  0.00%)p 1.00(100.00%)
  18. (0.00000) RY (10) N  1            s(  0.00%)p 1.00(  0.33%)d99.99( 99.67%)
  19. (0.00000) RY (11) N  1            s(  0.00%)p 0.00(  0.00%)d 1.00(100.00%)
                                                  f 0.00(  0.00%)
  20. (0.00000) RY (12) N  1            s(  0.00%)p 0.00(  0.00%)d 1.00(100.00%)
  21. (0.00000) RY (13) N  1            s(  0.00%)p 0.00(  0.00%)d 1.00(100.00%)
  22. (0.00000) RY (14) N  1            s(  0.00%)p 0.00(  0.00%)d 1.00(100.00%)
  23. (0.00000) RY (15) N  1            s(  0.00%)p 0.00(  0.00%)d 1.00(100.00%)
  24. (0.00000) RY (16) N  1            s(  0.00%)p 1.00(  0.33%)d99.99( 99.67%)
  25. (0.00000) RY (17) N  1            s(  0.00%)p 0.00(  0.00%)d 1.00(100.00%)
                                                  f 0.00(  0.00%)
  26. (0.00000) RY (18) N  1            s(  3.56%)p 0.22(  0.78%)d21.83( 77.74%)
                                                  f 5.03( 17.92%)
  27. (0.00000) RY (19) N  1            s(  0.82%)p 0.32(  0.26%)d99.99( 92.83%)
                                                  f 7.41(  6.09%)
  28. (0.00000) RY (20) N  1            s(  0.00%)p 1.00(  0.02%)d 0.00(  0.00%)
                                                  f99.99( 99.98%)
  29. (0.00000) RY (21) N  1            s(  0.00%)p 1.00(  0.03%)d 0.00(  0.00%)
                                                  f99.99( 99.97%)
  30. (0.00000) RY (22) N  1            s(  0.00%)p 1.00(  0.03%)d 0.00(  0.00%)
                                                  f99.99( 99.97%)
  31. (0.00000) RY (23) N  1            s(  0.00%)p 0.00(  0.00%)d 0.00(  0.00%)
                                                  f 1.00(100.00%)
  32. (0.00000) RY (24) N  1            s(  0.00%)p 0.00(  0.00%)d 0.00(  0.00%)
                                                  f 1.00(100.00%)
  33. (0.00000) RY (25) N  1            s( 64.46%)p 0.02(  1.15%)d 0.12(  7.70%)
                                                  f 0.41( 26.69%)
  34. (0.00000) RY (26) N  1            s(  0.00%)p 0.00(  0.00%)d 0.00(  0.00%)
                                                  f 1.00(100.00%)
  35. (0.00047) RY ( 1) H  2            s(  0.00%)p 1.00(100.00%)
                                         0.0000  0.0000  0.0000  0.0000  0.0000
                                         1.0000
  36. (0.00022) RY ( 2) H  2            s( 91.02%)p 0.10(  8.98%)
                                         0.0065  0.9540  0.0001  0.2997  0.0000
                                         0.0000
  37. (0.00000) RY ( 3) H  2            s( 47.13%)p 1.12( 52.87%)
  38. (0.00000) RY ( 4) H  2            s(  0.00%)p 1.00(100.00%)
  39. (0.00000) RY ( 5) H  2            s( 61.91%)p 0.62( 38.09%)
  40. (0.00047) RY ( 1) H  3            s(  0.00%)p 1.00(100.00%)
                                         0.0000  0.0000  0.0000  0.0000  0.0000
                                         1.0000
  41. (0.00022) RY ( 2) H  3            s( 91.02%)p 0.10(  8.98%)
                                         0.0065  0.9540  0.0001 -0.1498  0.2595
                                         0.0000
  42. (0.00000) RY ( 3) H  3            s(  0.00%)p 1.00(100.00%)
  43. (0.00000) RY ( 4) H  3            s( 47.13%)p 1.12( 52.87%)
  44. (0.00000) RY ( 5) H  3            s( 61.91%)p 0.62( 38.09%)
  45. (0.00047) RY ( 1) H  4            s(  0.00%)p 1.00(100.00%)
                                         0.0000  0.0000  0.0000  0.0000  0.0000
                                         1.0000
  46. (0.00022) RY ( 2) H  4            s( 91.02%)p 0.10(  8.98%)
                                         0.0065  0.9540  0.0001 -0.1498 -0.2595
                                         0.0000
  47. (0.00000) RY ( 3) H  4            s(  0.00%)p 1.00(100.00%)
  48. (0.00000) RY ( 4) H  4            s( 47.13%)p 1.12( 52.87%)
  49. (0.00000) RY ( 5) H  4            s( 61.91%)p 0.62( 38.09%)


 NHO DIRECTIONALITY AND BOND BENDING (deviation from line of nuclear centers at
                                      the position of maximum hybrid amplitude)

         [Thresholds for printing:  angular deviation  >  1.0 degree]
                                    p- or d-character  > 25.0%
                                    orbital occupancy  >  0.10e

                        Line of Centers        Hybrid 1             Hybrid 2
                        ---------------  -------------------  ------------------
[...]
--------------------------------
LOCAL RI TRANSFORMATION (IAVPAO)
--------------------------------

Orbital window:       1 to 4
Number of PAOs:      49
Basis functions:     49 (23 shells)
Aux. functions:     121 (43 shells)

Processing maps (0.0 sec)
Average map sizes:
   Aux shells -> MOs               4.0
   Aux shells -> PAOs             49.0
   MOs        -> AO shells        23.0
   PAOs       -> AO shells        23.0

Calculating integrals (0.2 sec, 0.182 MB)
Sorting integrals (0.0 sec, 0.181 MB)
Total time for the integral transformation: 0.2 sec
--------------------------------
INITIAL GUESS AND PNO GENERATION
--------------------------------

PNO truncation parameters                   .... 
    PAOOverlapThresh   =        1.000e-08

    TCutPairs          =        1.000e-04
    TCutPNO            =        3.330e-07
    TCutPNOSingles     =        9.990e-09
    TCutMP2Pairs       =        1.000e-05
    TCutMKN            =        1.000e-02
    TCutDO             =        2.000e-02

Pair selection                          .... not used
Type of local MP2 treatment                 .... semi-local MP2
Strategy for PNO selection                  .... occupation number selection
Pair density normalization                  .... MP2 norm
Spin component scaling                      .... not used

   .... Finished loop over pairs
Making pair pair interaction lists          ... done

                       ===========================
                         10 OF   10 PAIRS ARE KEPT CCSD PAIRS
                          0 OF   10 PAIRS ARE KEPT MP2 PAIRS FOR (T)
                          0 OF   10 PAIRS ARE SKIPPED
                       ===========================

Total time spent in the initial guess                 ...     0.008 sec
SL-MP2 correlation energy (all non-screened pairs)    ...      -0.221323333825 Eh

Initial PNO correlation energy                        ...      -0.221251078399 Eh
sum of pair energies prescreened and skipped MP2 pairs...       0.000000000000 Eh
sum of pair energies of crude MP2 skipped pairs only  ...       0.000000000000 Eh
sum of MP2 pair energies for pairs that were not kept ...       0.000000000000 Eh
sum of PNO error estimates for the kept pairs         ...      -0.000072255426 Eh
                                                          --------------------
sum of all corrections                                         -0.000072255426
Initial total correlation energy                               -0.221323333825
Thresholds for map construction and integral transformation for fine MP2 and CCSD(T) calculation:
   TCutMKN   ...     1.0e-03
   TCutDO    ...     1.0e-02
   TCutPairs ...     1.0e-04
   TCutCMO   ...     1.0e-03
   TCutCPAO  ...     1.0e-03

Thresholds for map construction and integral transformation for strong Triples:
   TCutMKN   ...     1.0e-02
   TCutDO    ...     2.0e-02
   TCutCMO   ...     1.0e-03
   TCutCPAO  ...     1.0e-03

Thresholds for map construction and integral transformation for weak Triples:
   TCutMKN   ...     1.0e-01
   TCutDO    ...     4.0e-02
   TCutCMO   ...     1.0e-03
   TCutCPAO  ...     1.0e-03

--------------------------------
LOCAL RI TRANSFORMATION (IAVPAO)
--------------------------------

Orbital window:       1 to 4
Number of PAOs:      49
Basis functions:     49 (23 shells)
Aux. functions:     121 (43 shells)

Processing maps (0.0 sec)
Average map sizes:
   Aux shells -> MOs               4.0
   Aux shells -> PAOs             49.0
   MOs        -> AO shells        23.0
   PAOs       -> AO shells        23.0

Calculating integrals (0.2 sec, 0.182 MB)
Sorting integrals (0.0 sec, 0.181 MB)
Total time for the integral transformation: 0.2 sec
--------------------------------
INITIAL GUESS AND PNO GENERATION
--------------------------------

PNO truncation parameters                   .... 
    PAOOverlapThresh   =        1.000e-08

    TCutPairs          =        1.000e-04
    TCutPNO            =        3.330e-07
    TCutPNOSingles     =        9.990e-09
    TCutMP2Pairs       =        1.000e-05
    TCutMKN            =        1.000e-03
    TCutDO             =        1.000e-02

Pair selection                          .... not used
Type of local MP2 treatment                 .... semi-local MP2
Strategy for PNO selection                  .... occupation number selection
Pair density normalization                  .... MP2 norm
Spin component scaling                      .... not used

   .... Finished loop over pairs

 PNO Occupation Number Statistics: 
  | Av. % of trace(Dij) retained        ...  99.991987763593
  | sigma^2 in % of trace(Dij) retained ...   1.75e-05
  | Av. % of trace(Di) retained         ...  99.999910853249
  | sigma^2 in % of trace(Di) retained  ...   2.65e-09
 Distributions of % trace(Dij) recovered:
  |       >= 99.9  ...    10 (100.0 % of all pairs)
 Distributions of % trace(Di) recovered :
  |       >= 99.9  ...     4 (100.0 % of all I-pairs )

Making pair pair interaction lists          ... done

                       ===========================
                         10 OF   10 PAIRS ARE KEPT
                       ===========================

Total time spent in the initial guess                 ...     0.011 sec
SL-MP2 correlation energy (all non-screened pairs)    ...      -0.221371439596 Eh

Initial PNO correlation energy                        ...      -0.221297143080 Eh
sum of pair energies estimated for screened out pairs ...       0.000000000000 Eh
sum of MP2 pair energies for pairs that were not kept ...       0.000000000000 Eh
sum of PNO error estimates for the kept pairs         ...      -0.000074296516 Eh
                                                          --------------------
sum of all corrections                                         -0.000074296516
Initial total correlation energy                               -0.221371439596
Thresholds for map construction and integral transformation for fine MP2 and CCSD(T) calculation:
   TCutMKN   ...     1.0e-03
   TCutDO    ...     1.0e-02
   TCutPairs ...     1.0e-04
   TCutCMO   ...     1.0e-03
   TCutCPAO  ...     1.0e-03

Time for aux screen maps:            0.000
Time for maps after fine MP2:            0.000
-----------------------------
LOCAL RI TRANSFORMATION (IJV)
-----------------------------

Orbital window:       1 to 4
Basis functions:     49 (23 shells)
Aux. functions:     121 (43 shells)

Processing maps (0.0 sec)
Average map sizes:
   Aux shells -> MOs(i)            4.0
   Aux shells -> MOs(j)            4.0
   MOs        -> AO shells        23.0

Calculating integrals (0.2 sec, 0.016 MB)
Sorting integrals (0.0 sec, 0.015 MB)
Total time for the integral transformation: 0.2 sec
--------------------------------
LOCAL RI TRANSFORMATION (VABPAO)
--------------------------------

Number of PAOs:      49
Basis functions:     49 (23 shells)
Aux. functions:     121 (43 shells)

Processing maps (0.0 sec)
Average map sizes:
   Aux shells -> PAOs             49.0
   PAOs       -> AO shells        23.0

Calculating integrals (0.2 sec, 4.179 MB)
Finished


-------------------------------------
Pair Pair Term precalculation with     
RI-(ij|mn) and (im|jn) transformation  
ON THE FLY                             
-------------------------------------

   IBatch   1 (of   1)              ... done (    0.070 sec)
Total EXT                           ...           0.070 sec

---------------------
RI-PNO TRANSFORMATION
---------------------

Total Number of PNOs                   ...   332
Average number of PNOs per pair        ...    33
Maximal number of PNOs per pair        ...    36
   #pairs with  1 -  5 PNOs   :    0
   #pairs with  6 - 10 PNOs   :    0
   #pairs with 11 - 15 PNOs   :    0
   #pairs with 16 - 20 PNOs   :    0
   #pairs with 21 - 25 PNOs   :    0
   #pairs with 26 - 30 PNOs   :    0
   #pairs with 31 - 35 PNOs   :    7
   #pairs with 36 - 40 PNOs   :    3
   #pairs with 41 - 45 PNOs   :    0
   #pairs with 46 - 50 PNOs   :    0

Generation of (ij|ab)[P] integrals            ... on
Generation of (ia|bc)[P],(ja|bc)[P] integrals ... on
Storage of 3 and 4 external integrals         ... on
Generation of ALL (ka|bc)[P] integrals        ... on
Keep RI integrals in memory                   ... off

Ibatch:  1 (of  1)
Starting 2-4 index PNO integral generation ... done

Timings:
Total PNO integral transformation time     ...          0.125 sec
Size of the 3-external file                ...         2 MB
Size of the 4-external file                ...        12 MB
Size of the IKJL file                      ...         0 MB
Size of the all 3-external file            ...         5 MB
Size of the 1-external file                ...         0 MB

Making pair/pair overlap matrices          ... done (    0.005 sec)
Size of the pair overlap file              ... 1 MB
Redoing the guess amplitudes               ... done (    0.000 sec)

-------------------------
FINAL STARTUP INFORMATION
-------------------------

E(0)                                       ...    -56.210865695
E(SL-MP2)                                  ...     -0.221371440
E(SL-MP2) including corrections            ...     -0.221371440
Initial E(tot)                             ...    -56.432237134
<T|T>                                      ...      0.059204581
Number of pairs included                   ... 10
Total number of pairs                      ... 10

------------------------------------------------
                  RHF COUPLED CLUSTER ITERATIONS
------------------------------------------------

Number of PNO amplitudes to be optimized   ...        11062
Number of non-PNO amplitudes               ...        19360
Untruncated number of regular amplitudes   ...        19360

Iter       E(tot)           E(Corr)          Delta-E          Residual     Time
  0    -56.432238162     -0.221298170      0.000073269      0.016512248    0.18
                           *** Turning on DIIS ***
  1    -56.442542720     -0.231602728     -0.010304558      0.003842394    0.19
  2    -56.448079598     -0.237139607     -0.005536879      0.001140934    0.17
  3    -56.448732776     -0.237792784     -0.000653178      0.000393402    0.18
  4    -56.448864453     -0.237924461     -0.000131677      0.000094098    0.16
  5    -56.448880945     -0.237940954     -0.000016492      0.000020915    0.17
  6    -56.448881981     -0.237941989     -0.000001035      0.000006222    0.18
               --- The Coupled-Cluster iterations have converged ---

----------------------
COUPLED CLUSTER ENERGY
----------------------

E(0)                                       ...    -56.210865695
E(CORR)(strong-pairs)                      ...     -0.237941989
E(CORR)(weak-pairs)                        ...     -0.000074297
E(CORR)(corrected)                         ...     -0.238016286
E(TOT)                                     ...    -56.448881981
Singles Norm <S|S>**1/2                    ...      0.016164634  
T1 diagnostic                              ...      0.005715061  

------------------
LARGEST AMPLITUDES
------------------
   1->  8   1->  8       0.052521
   4->  5   1->  7       0.029066
   3->  5   1->  7       0.029066
   2->  5   1->  7       0.029066
   4->  5   4->  5       0.023949
   3->  5   3->  5       0.023949
   2->  5   2->  5       0.023949
   1-> 12   1-> 12       0.023778
   1-> 13   1-> 13       0.023778
   1-> 11   1-> 11       0.022674
   1->  5   1->  5       0.021605
   4-> 11   4-> 11       0.020367
   3-> 11   3-> 11       0.020367
   2-> 11   2-> 11       0.020367
   4->  5   4-> 11       0.020076
   4-> 11   4->  5       0.020076


-------------------------------------------
DLPNO BASED TRIPLES CORRECTION
-------------------------------------------

Singles multiplier          ...  1.000000
TCutTNO                     ... 1.000e-09
TCutMP2Pairs                ... 1.000e-05
TCutDOStrong                ... 2.000e-02
TCutMKNStrong               ... 1.000e-02
TCutDOWeak                  ... 4.000e-02
TCutMKNWeak                 ... 1.000e-01

Fragment selection                          .... not used
Fock matrix occ-virt block is zero --> Setting DT_in_Triples to false.
Number of Triples that are to be computed   ...        16

 . . . . . . . .
10% done  
20% done  
30% done  
40% done  
50% done  
60% done  
70% done  
80% done  
90% done               (      0.047 sec)
Triples timings:
Total time for T0               ...     0.051 sec
Total time for Iterative (T)    ...     0.000 sec
Total time of overall (T)       ...     0.088 sec

Triples List generation         ...     0.000 sec
TNO generation                  ...     0.003 sec
Pair density generation         ...     0.000 sec
Look up tables                  ...     0.000 sec
Generating 3-index integrals    ...     0.014 sec
  Make 4-ind.int. from 3-ind.int...     0.013 sec
  Projecting amplitudes (D + S) ...     0.002 sec
  Downprojecting integrals      ...     0.000 sec
  Energy contr. (sum over a,b,c)...     0.003 sec
Fitting ET(->0)                 ...     0.000 sec

Everything after 3-index        ...     0.033 sec

Timing details:
 TNO integrals                  ...     0.027 sec
   Reading 3-index integrals    ...     0.001 sec
   Sorting integrals            ...     0.002 sec
       Sorting integrals 1      ...     0.000 sec
       Sorting integrals 2      ...     0.000 sec
       Sorting integrals 3      ...     0.000 sec
       Sorting integrals 4      ...     0.000 sec
       Sorting integrals 5      ...     0.000 sec
       Sorting integrals 6      ...     0.002 sec
   Calculating local VM**-1/2   ...     0.000 sec
   Orthogonal. integrals        ...     0.001 sec
   Multipl. 3-index integrals   ...     0.022 sec
   All concerning IRIab (w/TNO) ...     0.010 sec

 Calculate W0/W1                ...     0.016 sec
 W 3-ext contribution           ...     0.013 sec
 W 3-int contribution           ...     0.002 sec
 Sorting W                      ...     0.001 sec

 V exchange contribution        ...     0.001 sec

 Timings for Triples without generation
     of 3-index integrals       ...     0.033 sec
       0 weak pairs             ...     0.033 sec
       1 weak pair              ...     0.000 sec
       2 weak pairs             ...     0.000 sec
       3 weak pairs             ...     0.000 sec
  Extra time for extrapolation  ...     0.000 sec

Number of Triples   (0, 1, 2, 3 weak pairs; overall):     16       0       0       0  (    16)
Number of Atoms     (0, 1, 2, 3 weak pairs; overall):    4.0     0.0     0.0     0.0  (     4)
Number of PAOs      (0, 1, 2, 3 weak pairs; overall):   49.0     0.0     0.0     0.0  (    49)
Number of AuxFcns   (0, 1, 2, 3 weak pairs; overall):  101.3     0.0     0.0     0.0  (   121)
Number of TNOs      (0, 1, 2, 3 weak pairs         ):   43.8     0.0     0.0     0.0
Aver. Number of NTNO, Atoms, PAOs, AuxFcns / Triples:     16    43.8     4.0    49.0   101.3

Triples Correction (T)                     ...     -0.006557076
Final correlation energy                   ...     -0.244573362
E(CCSD)                                    ...    -56.448881981
E(CCSD(T))                                 ...    -56.455439057


Maximum memory used throughout the entire calculation: 282.5 MB


------------------------------------------------------------------------------- 
                                     TIMINGS                                   
------------------------------------------------------------------------------- 


Total execution time                   ...        3.015 sec

Localization of occupied MO's          ...        0.289 sec (  9.6%)
Fock Matrix Formation                  ...        0.025 sec (  0.8%)
Global overlap, Fock, MKN matrices     ...        0.091 sec (  3.0%)
Differential overlap integrals         ...        0.253 sec (  8.4%)
Organizing maps                        ...        0.001 sec (  0.0%)
RI 3-index integral generations        ...        0.710 sec ( 23.6%)
RI-PNO integral transformation         ...        0.225 sec (  7.4%)
Initial Guess                          ...        0.021 sec (  0.7%)
DIIS Solver                            ...        0.007 sec (  0.2%)
State Vector Update                    ...        0.000 sec (  0.0%)
Sigma-vector construction              ...        1.208 sec ( 40.1%)
  <D|H|D>(0-ext)                       ...        0.013 sec (  1.1% of sigma)
  <D|H|D>(2-ext Fock)                  ...        0.001 sec (  0.1% of sigma)
  <D|H|D>(2-ext)                       ...        0.054 sec (  4.5% of sigma)
  <D|H|D>(4-ext)                       ...        0.170 sec ( 14.1% of sigma)
  <D|H|D>(4-ext-corr)                  ...        0.507 sec ( 41.9% of sigma)
  CCSD doubles correction              ...        0.001 sec (  0.1% of sigma)
  <S|H|S>                              ...        0.007 sec (  0.6% of sigma)
  <S|H|D>(1-ext)                       ...        0.002 sec (  0.2% of sigma)
  <S|H|D>(3-ext)                       ...        0.005 sec (  0.4% of sigma)
  Fock-dressing                        ...        0.046 sec (  3.8% of sigma)
  Singles amplitudes                   ...        0.003 sec (  0.2% of sigma)
  (ik|jl)-dressing                     ...        0.012 sec (  1.0% of sigma)
  (ij|ab),(ia|jb)-dressing             ...        0.050 sec (  4.2% of sigma)
Total Time for computing (T)           ...        0.089 sec (  2.9% of ALL)

------------------   -----------------
gCP correction             0.001511796
------------------   -----------------

-------------------------   --------------------
FINAL SINGLE POINT ENERGY       -56.453927260846
-------------------------   --------------------


                            ***************************************
                            *     ORCA property calculations      *
                            ***************************************

                                    ---------------------
                                    Active property flags
                                    ---------------------
   (+) Dipole Moment


------------------------------------------------------------------------------
                       ORCA ELECTRIC PROPERTIES CALCULATION
------------------------------------------------------------------------------

Dipole Moment Calculation                       ... on
Quadrupole Moment Calculation                   ... off
Polarizability Calculation                      ... off
GBWName                                         ... NH3‡-sp.gbw
Electron density file                           ... NH3‡-sp.scfp
The origin for moment calculation is the CENTER OF MASS  = ( 0.000000, -0.000000  0.000000)

-------------
DIPOLE MOMENT
-------------
                                X             Y             Z
Electronic contribution:      0.00000      -0.00000       0.00000
Nuclear contribution   :     -0.00000       0.00000      -0.00000
                        -----------------------------------------
Total Dipole Moment    :      0.00000       0.00000      -0.00000
                        -----------------------------------------
Magnitude (a.u.)       :      0.00000
Magnitude (Debye)      :      0.00000



--------------------
Rotational spectrum 
--------------------
 
Rotational constants in cm-1:    11.278536    11.278536     5.639268 
Rotational constants in MHz : 338121.995286 338121.993488 169060.997193 

 Dipole components along the rotational axes: 
x,y,z [a.u.] :     0.000000     0.000000    -0.000000 
x,y,z [Debye]:     0.000000     0.000000    -0.000000 

 

Timings for individual modules:

Sum of individual times         ...        6.461 sec (=   0.108 min)
GTO integral calculation        ...        0.560 sec (=   0.009 min)   8.7 %
SCF iterations                  ...        2.629 sec (=   0.044 min)  40.7 %
MDCI module                     ...        3.272 sec (=   0.055 min)  50.6 %
                             ****ORCA TERMINATED NORMALLY****
TOTAL RUN TIME: 0 days 0 hours 0 minutes 6 seconds 816 msec
