SLURM_JOB_ID=100

                                 *****************
                                 * O   R   C   A *
                                 *****************

           --- An Ab Initio, DFT and Semiempirical electronic structure package ---

                  #######################################################
                  #                        -***-                        #
                  #          Department of theory and spectroscopy      #
                  #               Directorship: Frank Neese             #
                  #        Max Planck Institute fuer Kohlenforschung    #
                  #                Kaiser Wilhelm Platz 1               #
                  #                 D-45470 Muelheim/Ruhr               #
                  #                      Germany                        #
                  #                                                     #
                  #                  All rights reserved                #
                  #                        -***-                        #
                  #######################################################


                         Program Version 4.2.1 -  RELEASE  -


 With contributions from (in alphabetic order):
   Daniel Aravena         : Magnetic Suceptibility
   Michael Atanasov       : Ab Initio Ligand Field Theory (pilot matlab implementation)
   Alexander A. Auer      : GIAO ZORA, VPT2
   Ute Becker             : Parallelization
   Giovanni Bistoni       : ED, misc. LED, open-shell LED, HFLD
   Martin Brehm           : Molecular dynamics
   Dmytro Bykov           : SCF Hessian
   Vijay G. Chilkuri      : MRCI spin determinant printing, contributions to CSF-ICE
   Dipayan Datta          : RHF DLPNO-CCSD density
   Achintya Kumar Dutta   : EOM-CC, STEOM-CC
   Dmitry Ganyushin       : Spin-Orbit,Spin-Spin,Magnetic field MRCI
   Miquel Garcia          : C-PCM Hessian, Gaussian charge scheme
   Yang Guo               : DLPNO-NEVPT2, CIM, IAO-localization
   Andreas Hansen         : Spin unrestricted coupled pair/coupled cluster methods
   Benjamin Helmich-Paris : CASSCF linear response (MC-RPA)
   Lee Huntington         : MR-EOM, pCC
   Robert Izsak           : Overlap fitted RIJCOSX, COSX-SCS-MP3, EOM
   Christian Kollmar      : KDIIS, OOCD, Brueckner-CCSD(T), CCSD density
   Simone Kossmann        : Meta GGA functionals, TD-DFT gradient, OOMP2, MP2 Hessian
   Martin Krupicka        : AUTO-CI
   Lucas Lang             : DCDCAS
   Dagmar Lenk            : GEPOL surface, SMD
   Dimitrios Liakos       : Extrapolation schemes; Compound Job, initial MDCI parallelization
   Dimitrios Manganas     : Further ROCIS development; embedding schemes
   Dimitrios Pantazis     : SARC Basis sets
   Taras Petrenko         : DFT Hessian,TD-DFT gradient, ASA, ECA, R-Raman, ABS, FL, XAS/XES, NRVS
   Peter Pinski           : DLPNO-MP2, DLPNO-MP2 Gradient
   Christoph Reimann      : Effective Core Potentials
   Marius Retegan         : Local ZFS, SOC
   Christoph Riplinger    : Optimizer, TS searches, QM/MM, DLPNO-CCSD(T), (RO)-DLPNO pert. Triples
   Tobias Risthaus        : Range-separated hybrids, TD-DFT gradient, RPA, STAB
   Michael Roemelt        : Original ROCIS implementation
   Masaaki Saitow         : Open-shell DLPNO-CCSD energy and density
   Barbara Sandhoefer     : DKH picture change effects
   Avijit Sen             : IP-ROCIS
   Kantharuban Sivalingam : CASSCF convergence, NEVPT2, FIC-MRCI
   Bernardo de Souza      : ESD, SOC TD-DFT
   Georgi Stoychev        : AutoAux, RI-MP2 NMR
   Willem Van den Heuvel  : Paramagnetic NMR
   Boris Wezisla          : Elementary symmetry handling
   Frank Wennmohs         : Technical directorship


 We gratefully acknowledge several colleagues who have allowed us to
 interface, adapt or use parts of their codes:
   Stefan Grimme, W. Hujo, H. Kruse,             : VdW corrections, initial TS optimization,
                  C. Bannwarth                     DFT functionals, gCP, sTDA/sTD-DF
   Ed Valeev, F. Pavosevic, A. Kumar             : LibInt (2-el integral package), F12 methods
   Garnet Chan, S. Sharma, J. Yang, R. Olivares  : DMRG
   Ulf Ekstrom                                   : XCFun DFT Library
   Mihaly Kallay                                 : mrcc  (arbitrary order and MRCC methods)
   Andreas Klamt, Michael Diedenhofen            : otool_cosmo (COSMO solvation model)
   Jiri Pittner, Ondrej Demel                    : Mk-CCSD
   Frank Weinhold                                : gennbo (NPA and NBO analysis)
   Christopher J. Cramer and Donald G. Truhlar   : smd solvation model
   Lars Goerigk                                  : TD-DFT with DH, B97 family of functionals
   V. Asgeirsson, H. Jonsson                     : NEB implementation
   FAccTs GmbH                                   : IRC, NEB, NEB-TS, Multilevel, MM, QM/MM, CI optimization
   S Lehtola, MJT Oliveira, MAL Marques          : LibXC Library


 Your calculation uses the libint2 library for the computation of 2-el integrals
 For citations please refer to: http://libint.valeyev.net

 Your ORCA version has been built with support for libXC version: 4.2.3
 For citations please refer to: https://tddft.org/programs/libxc/

 This ORCA versions uses:
   CBLAS   interface :  Fast vector & matrix operations
   LAPACKE interface :  Fast linear algebra routines
   SCALAPACK package :  Parallel linear algebra routines




***************************************
The coordinates will be read from file: init.xyz
***************************************


Your calculation utilizes the SMD solvation module
Please cite in your paper:
A.V. Marenich, C.J. Cramer, D.G. Truhlar J. Phys. Chem. B, 113, (2009), 6378 

Your calculation utilizes the semiempirical GFN2-xTB method
Please cite in your paper:
C. Bannwarth, Ehlert S., S. Grimme,  J. Chem. Theory Comput., 15, (2019), 1652.
   

----- Orbital basis set information -----
Your calculation utilizes the basis: def2-SVP
   F. Weigend and R. Ahlrichs, Phys. Chem. Chem. Phys. 7, 3297 (2005).

================================================================================
                                        WARNINGS
                       Please study these warnings very carefully!
================================================================================

WARNING: Gradients needed for Numerical Frequencies
  ===> : Setting RunTyp to EnGrad

WARNING: The environment variable RSH_COMMAND is not set!
  ===> : All Displacements for the Numerical Hessian calculation
         will be started on localhost

WARNING: Found dipole moment calculation with XTB calculation
  ===> : Switching off dipole moment calculation


INFO   : the flag for use of LIBINT has been found!

================================================================================
                                       INPUT FILE
================================================================================
NAME = /tmp/slurm-scratch/freq.100/freq.inp
|  1> ! XTB2 NumFreq
|  2> %maxcore 2000
|  3> 
|  4> * xyzfile 0 1 init.xyz
|  5> 
|  6> %cpcm
|  7>  smd true
|  8>  smdsolvent "ch2cl2"
|  9> end
| 10> %pal nprocs 11 end
| 11> 
| 12>                          ****END OF INPUT****
================================================================================

                     *******************************
                     * Energy+Gradient Calculation *
                     *******************************

      -----------------------------------------------------------      
     |                   =====================                   |     
     |                           x T B                           |     
     |                   =====================                   |     
     |                         S. Grimme                         |     
     |          Mulliken Center for Theoretical Chemistry        |     
     |                    University of Bonn                     |     
      -----------------------------------------------------------      

   * xtb version 6.3.1 (461a024) compiled by 'schneider@apollo14' on 2020-06-26

   xtb is free software: you can redistribute it and/or modify it under
   the terms of the GNU Lesser General Public License as published by
   the Free Software Foundation, either version 3 of the License, or
   (at your option) any later version.
   
   xtb is distributed in the hope that it will be useful,
   but WITHOUT ANY WARRANTY; without even the implied warranty of
   MERCHANTABILITY or FITNESS FOR A PARTICULAR PURPOSE.  See the
   GNU Lesser General Public License for more details.
   
   Cite this work as:
   * S. Grimme, C. Bannwarth, P. Shushkov, J. Chem. Theory Comput., 2017,
     13, 1989-2009. DOI: 10.1021/acs.jctc.7b00118
   * C. Bannwarth, S. Ehlert and S. Grimme., J. Chem. Theory Comput., 2019,
     15, 1652-1671. DOI: 10.1021/acs.jctc.8b01176
   * P. Pracht, E. Caldeweyher, S. Ehlert, S. Grimme, ChemRxiv, 2019, preprint.
     DOI: 10.26434/chemrxiv.8326202.v1
   
   for GFN-FF:
   * S. Spicher and S. Grimme, Angew. Chem. Int. Ed., 2020,
     DOI: 10.1002/anie.202004239
   
   for DFT-D4:
   * E. Caldeweyher, C. Bannwarth and S. Grimme, J. Chem. Phys., 2017,
     147, 034112. DOI: 10.1063/1.4993215
   * E. Caldeweyher, S. Ehlert, A. Hansen, H. Neugebauer, S. Spicher,
     C. Bannwarth and S. Grimme, J. Chem. Phys., 2019, 150, 154122.
     DOI: 10.1063/1.5090222
   
   for sTDA-xTB:
   * S. Grimme and C. Bannwarth, J. Chem. Phys., 2016, 145, 054103.
     DOI: 10.1063/1.4959605
   
   in the mass-spec context:
   * V. Asgeirsson, C. Bauer and S. Grimme, Chem. Sci., 2017, 8, 4879.
     DOI: 10.1039/c7sc00601b
   * J. Koopman and S. Grimme, ACS Omega 2019, 4, 12, 15120-15133.
     DOI: 10.1021/acsomega.9b02011
   
   for metadynamics refer to:
   * S. Grimme, J. Chem. Theory Comput., 2019, 155, 2847-2862
     DOI: 10.1021/acs.jctc.9b00143
   
   with help from (in alphabetical order)
   C. Bannwarth, F. Bohle, G. Brandenburg, E. Caldeweyher, M. Checinski,
   S. Dohm, S. Ehlert, S. Ehrlich, F. März, H. Neugebauer, J. Pisarek,
   P. Pracht, P. Shushkov, and S. Spicher.
   
 * started run on 2020/08/05 at 12:21:50.309     

           -------------------------------------------------
          |                Calculation Setup                |
           -------------------------------------------------

          program call               : /opt/orca/otool_xtb /tmp/slurm-scratch/freq.100/freq_XTB.xyz --grad -c 0 -u 0 -P 11 --namespace /tmp/slurm-scratch/freq.100/freq --gbsa CH2Cl2
          hostname                   : apollo14
          calculation namespace      : /tmp/slurm-scratch/freq.100/freq
          coordinate file            : /tmp/slurm-scratch/freq.100/freq_XTB.xyz
          omp threads                :                    11
          number of atoms            :                    33
          number of electrons        :                    80
          charge                     :                     0
          spin                       :                   0.0
          first test random number   :      0.97007558466107

   ID    Z sym.   atoms
    1    6 C      1-6, 12, 18, 21, 25, 30
    2    1 H      7-9, 11, 13-17, 19, 22, 23, 26-29, 31-33
    3    7 N      10
    4    8 O      20, 24

molecular fragmentation (1/2 indicates fragments):
111111111111111211111112111111111
# atoms in fragment 1/2:    31     2
 fragment masses (1/2) :      180.27       17.01
CMA distance (Bohr)    :   6.515
constraining FC (au)   :  0.0500
########################################################################
[WARNING] Please study the warnings concerning your input carefully
-1- prog_main_parseArguments: Process number higher than OMP_NUM_THREADS, I hope you know what you are doing.
########################################################################

           -------------------------------------------------
          |                 G F N 2 - x T B                 |
           -------------------------------------------------

        Reference                      10.1021/acs.jctc.8b01176
      * Hamiltonian:
        H0-scaling (s, p, d)           1.850000    2.230000    2.230000
        zeta-weighting                 0.500000
      * Dispersion:
        s8                             2.700000
        a1                             0.520000
        a2                             5.000000
        s9                             5.000000
      * Repulsion:
        kExp                           1.500000    1.000000
        rExp                           1.000000
      * Coulomb:
        alpha                          2.000000
        third order                    shell-resolved
        anisotropic                    true
        a3                             3.000000
        a5                             4.000000
        cn-shift                       1.200000
        cn-exp                         4.000000
        max-rad                        5.000000

      * Solvation model:               GBSA
        Solvent                        CH2Cl2
        Parameter file                 internal GFN2-xTB/GBSA
        Dielectric constant                8.9300E+00
        Reference state                gsolv [1 M gas/solution]
        Free energy shift                  4.4408E-03 Eh       2.7867E+00 kcal/mol
        Temperature                        2.9815E+02 K
        Density                            1.3300E+00 kg/L
        Solvent mass                       8.4930E+01 g/mol
        Interaction kernel             Still
        Born radius scaling (c1)           1.4917E+00
        Born radii integrator          GBOBC
        Born offset                        0.0000E+00 a0       0.0000E+00 AA
        H-bond correction              false
        Ion screening                  false
        Surface tension                    1.0000E-05 Eh       1.5569E+01 dyn/cm
        Grid points                               230 per atom

          ...................................................
          :                      SETUP                      :
          :.................................................:
          :  # basis functions                  75          :
          :  # atomic orbitals                  75          :
          :  # shells                           47          :
          :  # electrons                        80          :
          :  max. iterations                   250          :
          :  Hamiltonian                  GFN2-xTB          :
          :  restarted?                      false          :
          :  GBSA solvation                   true          :
          :  PC potential                    false          :
          :  electronic temp.          300.0000000     K    :
          :  accuracy                    1.0000000          :
          :  -> integral cutoff          0.2500000E+02      :
          :  -> integral neglect         0.1000000E-07      :
          :  -> SCF convergence          0.1000000E-05 Eh   :
          :  -> wf. convergence          0.1000000E-03 e    :
          :  Broyden damping             0.4000000          :
          ...................................................

 iter      E             dE          RMSdq      gap      omega  full diag
   1    -44.7267598 -0.447268E+02  0.378E+00    4.61       0.0  T
   2    -44.8398354 -0.113076E+00  0.209E+00    4.24       1.0  T
   3    -44.8427575 -0.292210E-02  0.946E-01    3.69       1.0  T
   4    -44.8420218  0.735706E-03  0.328E-01    3.65       1.0  T
   5    -44.8449972 -0.297540E-02  0.818E-02    3.70       1.0  T
   6    -44.8450288 -0.316516E-04  0.282E-02    3.76       1.0  T
   7    -44.8450307 -0.182934E-05  0.137E-02    3.76       1.3  T
   8    -44.8450327 -0.205890E-05  0.428E-03    3.76       4.1  T
   9    -44.8450328 -0.105966E-06  0.188E-03    3.76       9.3  T
  10    -44.8450329 -0.333933E-07  0.770E-04    3.75      22.6  T
  11    -44.8450329 -0.240284E-08  0.379E-04    3.76      45.9  T

   *** convergence criteria satisfied after 11 iterations ***

         #    Occupation            Energy/Eh            Energy/eV
      -------------------------------------------------------------
         1        2.0000           -0.6959016             -18.9364
       ...           ...                  ...                  ...
        34        2.0000           -0.4327455             -11.7756
        35        2.0000           -0.4275196             -11.6334
        36        2.0000           -0.4115614             -11.1992
        37        2.0000           -0.4104995             -11.1703
        38        2.0000           -0.3966327             -10.7929
        39        2.0000           -0.3936660             -10.7122
        40        2.0000           -0.3765941             -10.2476 (HOMO)
        41                         -0.2385966              -6.4925 (LUMO)
        42                         -0.2315586              -6.3010
        43                         -0.1175239              -3.1980
        44                         -0.0635528              -1.7294
        45                         -0.0127672              -0.3474
       ...                                ...                  ...
        75                          0.6374941              17.3471
      -------------------------------------------------------------
                  HL-Gap            0.1379975 Eh            3.7551 eV
             Fermi-level           -0.3075953 Eh           -8.3701 eV

 SCC (total)                   0 d,  0 h,  0 min,  0.083 sec
 SCC setup                      ...        0 min,  0.003 sec (  3.506%)
 Dispersion                     ...        0 min,  0.001 sec (  1.652%)
 classical contributions        ...        0 min,  0.001 sec (  1.348%)
 integral evaluation            ...        0 min,  0.008 sec (  9.640%)
 iterations                     ...        0 min,  0.032 sec ( 38.200%)
 molecular gradient             ...        0 min,  0.038 sec ( 45.363%)
 printout                       ...        0 min,  0.000 sec (  0.265%)

         :::::::::::::::::::::::::::::::::::::::::::::::::::::
         ::                     SUMMARY                     ::
         :::::::::::::::::::::::::::::::::::::::::::::::::::::
         :: total energy             -44.263884107402 Eh    ::
         :: total w/o Gsasa/hb       -44.247560115642 Eh    ::
         :: gradient norm              0.034379032915 Eh/a0 ::
         :: HOMO-LUMO gap              3.755103759822 eV    ::
         ::.................................................::
         :: SCC energy               -44.845032862988 Eh    ::
         :: -> isotropic ES            0.133923775456 Eh    ::
         :: -> anisotropic ES         -0.004201266514 Eh    ::
         :: -> anisotropic XC          0.018791999719 Eh    ::
         :: -> dispersion             -0.026565583537 Eh    ::
         :: -> Gsolv                  -0.036592342754 Eh    ::
         ::    -> Gborn               -0.020268350994 Eh    ::
         ::    -> Gsasa               -0.020764820934 Eh    ::
         ::    -> Ghb                  0.000000000000 Eh    ::
         ::    -> Gshift               0.004440829173 Eh    ::
         :: repulsion energy           0.581073397853 Eh    ::
         :: add. restraining           0.000000000000 Eh    ::
         :::::::::::::::::::::::::::::::::::::::::::::::::::::

           -------------------------------------------------
          |                Property Printout                |
           -------------------------------------------------

    * Orbital Energies and Occupations

         #    Occupation            Energy/Eh            Energy/eV
      -------------------------------------------------------------
         1        2.0000           -0.6959016             -18.9364
       ...           ...                  ...                  ...
        28        2.0000           -0.4803099             -13.0699
        29        2.0000           -0.4690091             -12.7624
        30        2.0000           -0.4584399             -12.4748
        31        2.0000           -0.4565712             -12.4239
        32        2.0000           -0.4458731             -12.1328
        33        2.0000           -0.4401623             -11.9774
        34        2.0000           -0.4327455             -11.7756
        35        2.0000           -0.4275196             -11.6334
        36        2.0000           -0.4115614             -11.1992
        37        2.0000           -0.4104995             -11.1703
        38        2.0000           -0.3966327             -10.7929
        39        2.0000           -0.3936660             -10.7122
        40        2.0000           -0.3765941             -10.2476 (HOMO)
        41                         -0.2385966              -6.4925 (LUMO)
        42                         -0.2315586              -6.3010
        43                         -0.1175239              -3.1980
        44                         -0.0635528              -1.7294
        45                         -0.0127672              -0.3474
        46                          0.0345131               0.9391
        47                          0.0668416               1.8189
        48                          0.0759900               2.0678
        49                          0.0924429               2.5155
        50                          0.1044728               2.8429
        51                          0.1160545               3.1580
       ...                                ...                  ...
        75                          0.6374941              17.3471
      -------------------------------------------------------------
                  HL-Gap            0.1379975 Eh            3.7551 eV
             Fermi-level           -0.3075953 Eh           -8.3701 eV

     #   Z        covCN         q      C6AA      α(0)
     1   6 C      2.913    -0.029    28.733     8.790
     2   6 C      2.918    -0.043    29.077     8.843
     3   6 C      2.965    -0.025    28.624     8.776
     4   6 C      2.917    -0.027    28.664     8.779
     5   6 C      2.914    -0.029    28.713     8.787
     6   6 C      2.915    -0.029    28.712     8.787
     7   1 H      0.925     0.041     2.431     2.438
     8   1 H      0.925     0.048     2.347     2.396
     9   1 H      0.925     0.044     2.395     2.420
    10   7 N      3.514    -0.128    23.779     7.242
    11   1 H      0.856     0.277     0.787     1.390
    12   6 C      3.734    -0.014    20.916     6.527
    13   1 H      0.925     0.075     2.028     2.227
    14   1 H      0.925     0.083     1.945     2.181
    15   1 H      0.860     0.207     1.069     1.620
    16   1 H      0.805     0.212     1.059     1.617
    17   1 H      1.025     0.342     0.593     1.203
    18   6 C      3.654     0.181    17.977     6.088
    19   1 H      0.924     0.040     2.443     2.444
    20   8 O      1.520    -0.583    24.879     6.728
    21   6 C      3.802    -0.069    21.826     6.651
    22   1 H      0.924     0.053     2.284     2.364
    23   1 H      0.924     0.054     2.276     2.359
    24   8 O      1.168    -0.810    31.594     7.547
    25   6 C      3.800    -0.056    21.575     6.613
    26   1 H      0.924     0.041     2.442     2.444
    27   1 H      0.924     0.042     2.425     2.435
    28   1 H      0.925     0.040     2.445     2.445
    29   1 H      0.925     0.047     2.363     2.404
    30   6 C      3.750    -0.106    22.589     6.778
    31   1 H      0.924     0.040     2.442     2.444
    32   1 H      0.924     0.039     2.463     2.454
    33   1 H      0.924     0.041     2.442     2.444

 Mol. C6AA /au·bohr⁶  :       9407.655654
 Mol. C8AA /au·bohr⁸  :     210112.252616
 Mol. α(0) /au        :        148.664797


Wiberg/Mayer (AO) data.
largest (>0.10) Wiberg bond orders for each atom
          total WBO             WBO to atom ...
     1  C   3.991        C    2 1.446    C    6 1.436    H   29 0.970    C    4 0.111
     2  C   3.990        C    1 1.446    C    3 1.411    H    7 0.968    C    5 0.112
     3  C   3.985        C    4 1.417    C    2 1.411    C   18 0.970    C    6 0.109
     4  C   3.990        C    5 1.441    C    3 1.417    H    8 0.966    C    1 0.111
     5  C   3.991        C    4 1.441    C    6 1.440    H   28 0.971    C    2 0.112
     6  C   3.990        C    5 1.440    C    1 1.436    H    9 0.971    C    3 0.109
     7  H   0.998        C    2 0.968
     8  H   0.998        C    4 0.966
     9  H   0.998        C    6 0.971
    10  N   3.659        C   12 0.956    H   15 0.931    C   18 0.840    H   11 0.745
    11  H   0.923        N   10 0.745    O   24 0.158
    12  C   3.936        C   21 1.010    H   14 0.968    H   13 0.968    N   10 0.956
    13  H   0.994        C   12 0.968
    14  H   0.993        C   12 0.968
    15  H   0.957        N   10 0.931
    16  H   0.955        O   24 0.951
    17  H   0.883        O   20 0.499    O   24 0.366
    18  C   3.933        O   20 1.112    C    3 0.970    H   19 0.947    N   10 0.840
    19  H   0.998        C   18 0.947
    20  O   1.844        C   18 1.112    H   17 0.499
    21  C   3.990        C   12 1.010    C   25 1.003    H   23 0.973    H   22 0.970
    22  H   0.997        C   21 0.970
    23  H   0.997        C   21 0.973
    24  O   1.665        H   16 0.951    H   17 0.366    H   11 0.158
    25  C   3.994        C   30 1.020    C   21 1.003    H   26 0.977    H   27 0.977
    26  H   0.998        C   25 0.977
    27  H   0.998        C   25 0.977
    28  H   0.998        C    5 0.971
    29  H   0.997        C    1 0.970
    30  C   3.995        C   25 1.020    H   32 0.987    H   33 0.987    H   31 0.986
    31  H   0.998        C   30 0.986
    32  H   0.998        C   30 0.987
    33  H   0.998        C   30 0.987
Topologies differ in total number of bonds
Writing topology from bond orders to xtbtopo.mol

molecular dipole:
                 x           y           z       tot (Debye)
 q only:       -2.999       0.587      -1.093
   full:       -3.052       0.338      -1.111       8.301
molecular quadrupole (traceless):
                xx          xy          yy          xz          yz          zz
 q only:        0.162      14.425       4.566     -39.064       3.958      -4.728
  q+dip:       -2.138      11.660       6.556     -39.425      -0.638      -4.418
   full:       -2.430      13.081       7.549     -38.928       0.299      -5.119


           -------------------------------------------------
          | TOTAL ENERGY              -44.263884107402 Eh   |
          | GRADIENT NORM               0.034379032915 Eh/α |
          | HOMO-LUMO GAP               3.755103759822 eV   |
           -------------------------------------------------

------------------------------------------------------------------------
 * finished run on 2020/08/05 at 12:21:50.435     
------------------------------------------------------------------------
 total:
 * wall-time:     0 d,  0 h,  0 min,  0.126 sec
 *  cpu-time:     0 d,  0 h,  0 min,  1.476 sec
 * ratio c/w:    11.682 speedup
 SCF:
 * wall-time:     0 d,  0 h,  0 min,  0.087 sec
 *  cpu-time:     0 d,  0 h,  0 min,  1.022 sec
 * ratio c/w:    11.694 speedup


-------------------------   --------------------
FINAL SINGLE POINT ENERGY       -44.263884107400
-------------------------   --------------------


----------------------------------------------------------------------------
                           ORCA NUMERICAL FREQUENCIES
                              (11-process run)
----------------------------------------------------------------------------

Number of atoms                ... 33
Central differences            ... used
Number of displacements        ... 198
Numerical increment            ... 5.000e-03 bohr
IR-spectrum generation         ... on
Raman-spectrum generation      ... off
Surface Crossing Hessian       ... off
List of participating nodes    ...  /tmp/slurm-scratch/freq.100/freq.hostnames

The output will be reduced. Please look at the following files:
SCF program output             ... >/tmp/slurm-scratch/freq.100/freq.lastscf
Integral program output        ... >/tmp/slurm-scratch/freq.100/freq.lastint
Gradient program output        ... >/tmp/slurm-scratch/freq.100/freq.lastgrad
Dipole moment program output   ... >/tmp/slurm-scratch/freq.100/freq.lastmom
AutoCI program output          ... >/tmp/slurm-scratch/freq.100/freq.lastautoci


         <<< Energy and Gradient at the input geometry >>>

        <<< Energy and Gradient at displaced geometries >>>
             <<<Displacing   3/coordinate 2 (+)>>>
             <<<Displacing   1/coordinate 2 (+)>>>
             <<<Displacing   4/coordinate 1 (+)>>>
             <<<Displacing   2/coordinate 2 (+)>>>
             <<<Displacing   2/coordinate 1 (+)>>>
             <<<Displacing   3/coordinate 2 (-)>>>
             <<<Displacing   3/coordinate 3 (+)>>>
             <<<Displacing   1/coordinate 2 (-)>>>
             <<<Displacing   4/coordinate 1 (-)>>>
             <<<Displacing   2/coordinate 2 (-)>>>
             <<<Displacing   1/coordinate 3 (+)>>>
             <<<Displacing   3/coordinate 1 (+)>>>
             <<<Displacing   2/coordinate 1 (-)>>>
             <<<Displacing   4/coordinate 2 (+)>>>
             <<<Displacing   1/coordinate 1 (+)>>>
             <<<Displacing   2/coordinate 3 (+)>>>
             <<<Displacing   3/coordinate 3 (-)>>>
             <<<Displacing   3/coordinate 1 (-)>>>
             <<<Displacing   4/coordinate 2 (-)>>>
             <<<Displacing   1/coordinate 3 (-)>>>
             <<<Displacing   1/coordinate 1 (-)>>>
             <<<Displacing   2/coordinate 3 (-)>>>
             <<<Displacing   5/coordinate 2 (+)>>>
             <<<Displacing   7/coordinate 2 (+)>>>
             <<<Displacing   5/coordinate 1 (+)>>>
             <<<Displacing   7/coordinate 2 (-)>>>
             <<<Displacing   5/coordinate 3 (+)>>>
             <<<Displacing   5/coordinate 2 (-)>>>
             <<<Displacing   5/coordinate 1 (-)>>>
             <<<Displacing   6/coordinate 2 (+)>>>
             <<<Displacing   4/coordinate 3 (+)>>>
             <<<Displacing   6/coordinate 1 (+)>>>
             <<<Displacing   5/coordinate 3 (-)>>>
             <<<Displacing   6/coordinate 2 (-)>>>
             <<<Displacing   4/coordinate 3 (-)>>>
             <<<Displacing   6/coordinate 3 (+)>>>
             <<<Displacing   8/coordinate 1 (+)>>>
             <<<Displacing   7/coordinate 1 (+)>>>
             <<<Displacing   6/coordinate 1 (-)>>>
             <<<Displacing   6/coordinate 3 (-)>>>
             <<<Displacing   8/coordinate 1 (-)>>>
             <<<Displacing   7/coordinate 1 (-)>>>
             <<<Displacing   7/coordinate 3 (+)>>>
             <<<Displacing   7/coordinate 3 (-)>>>
             <<<Displacing   8/coordinate 2 (+)>>>
             <<<Displacing   8/coordinate 2 (-)>>>
             <<<Displacing   8/coordinate 3 (+)>>>
             <<<Displacing   8/coordinate 3 (-)>>>
             <<<Displacing   9/coordinate 1 (+)>>>
             <<<Displacing  10/coordinate 1 (+)>>>
             <<<Displacing  10/coordinate 3 (+)>>>
             <<<Displacing  11/coordinate 1 (+)>>>
             <<<Displacing   9/coordinate 1 (-)>>>
             <<<Displacing  10/coordinate 1 (-)>>>
             <<<Displacing  10/coordinate 3 (-)>>>
             <<<Displacing   9/coordinate 3 (+)>>>
             <<<Displacing   9/coordinate 2 (+)>>>
             <<<Displacing  10/coordinate 2 (+)>>>
             <<<Displacing  11/coordinate 1 (-)>>>
             <<<Displacing  11/coordinate 2 (+)>>>
             <<<Displacing   9/coordinate 2 (-)>>>
             <<<Displacing   9/coordinate 3 (-)>>>
             <<<Displacing  10/coordinate 2 (-)>>>
             <<<Displacing  11/coordinate 2 (-)>>>
             <<<Displacing  11/coordinate 3 (+)>>>
             <<<Displacing  11/coordinate 3 (-)>>>
             <<<Displacing  12/coordinate 1 (+)>>>
             <<<Displacing  12/coordinate 1 (-)>>>
             <<<Displacing  12/coordinate 2 (+)>>>
             <<<Displacing  13/coordinate 2 (+)>>>
             <<<Displacing  12/coordinate 2 (-)>>>
             <<<Displacing  12/coordinate 3 (+)>>>
             <<<Displacing  13/coordinate 2 (-)>>>
             <<<Displacing  14/coordinate 1 (+)>>>
             <<<Displacing  12/coordinate 3 (-)>>>
             <<<Displacing  13/coordinate 1 (+)>>>
             <<<Displacing  15/coordinate 1 (+)>>>
             <<<Displacing  14/coordinate 1 (-)>>>
             <<<Displacing  13/coordinate 1 (-)>>>
             <<<Displacing  14/coordinate 3 (+)>>>
             <<<Displacing  14/coordinate 2 (+)>>>
             <<<Displacing  15/coordinate 1 (-)>>>
             <<<Displacing  14/coordinate 3 (-)>>>
             <<<Displacing  13/coordinate 3 (+)>>>
             <<<Displacing  14/coordinate 2 (-)>>>
             <<<Displacing  13/coordinate 3 (-)>>>
             <<<Displacing  15/coordinate 2 (+)>>>
             <<<Displacing  15/coordinate 2 (-)>>>
             <<<Displacing  15/coordinate 3 (+)>>>
             <<<Displacing  15/coordinate 3 (-)>>>
             <<<Displacing  17/coordinate 1 (+)>>>
             <<<Displacing  16/coordinate 1 (+)>>>
             <<<Displacing  18/coordinate 2 (+)>>>
             <<<Displacing  18/coordinate 1 (+)>>>
             <<<Displacing  16/coordinate 1 (-)>>>
             <<<Displacing  17/coordinate 1 (-)>>>
             <<<Displacing  16/coordinate 2 (+)>>>
             <<<Displacing  16/coordinate 3 (+)>>>
             <<<Displacing  18/coordinate 2 (-)>>>
             <<<Displacing  18/coordinate 3 (+)>>>
             <<<Displacing  18/coordinate 1 (-)>>>
             <<<Displacing  16/coordinate 2 (-)>>>
             <<<Displacing  16/coordinate 3 (-)>>>
             <<<Displacing  17/coordinate 2 (+)>>>
             <<<Displacing  18/coordinate 3 (-)>>>
             <<<Displacing  17/coordinate 3 (+)>>>
             <<<Displacing  17/coordinate 2 (-)>>>
             <<<Displacing  17/coordinate 3 (-)>>>
             <<<Displacing  19/coordinate 1 (+)>>>
             <<<Displacing  19/coordinate 1 (-)>>>
             <<<Displacing  19/coordinate 3 (+)>>>
             <<<Displacing  20/coordinate 1 (+)>>>
             <<<Displacing  20/coordinate 2 (+)>>>
             <<<Displacing  20/coordinate 1 (-)>>>
             <<<Displacing  19/coordinate 2 (+)>>>
             <<<Displacing  20/coordinate 2 (-)>>>
             <<<Displacing  19/coordinate 3 (-)>>>
             <<<Displacing  19/coordinate 2 (-)>>>
             <<<Displacing  20/coordinate 3 (+)>>>
             <<<Displacing  21/coordinate 1 (+)>>>
             <<<Displacing  21/coordinate 2 (+)>>>
             <<<Displacing  22/coordinate 2 (+)>>>
             <<<Displacing  21/coordinate 3 (+)>>>
             <<<Displacing  20/coordinate 3 (-)>>>
             <<<Displacing  21/coordinate 2 (-)>>>
             <<<Displacing  21/coordinate 1 (-)>>>
             <<<Displacing  21/coordinate 3 (-)>>>
             <<<Displacing  22/coordinate 2 (-)>>>
             <<<Displacing  22/coordinate 1 (+)>>>
             <<<Displacing  22/coordinate 1 (-)>>>
             <<<Displacing  22/coordinate 3 (+)>>>
             <<<Displacing  22/coordinate 3 (-)>>>
             <<<Displacing  23/coordinate 3 (+)>>>
             <<<Displacing  23/coordinate 1 (+)>>>
             <<<Displacing  25/coordinate 1 (+)>>>
             <<<Displacing  23/coordinate 3 (-)>>>
             <<<Displacing  23/coordinate 2 (+)>>>
             <<<Displacing  24/coordinate 2 (+)>>>
             <<<Displacing  23/coordinate 1 (-)>>>
             <<<Displacing  24/coordinate 1 (+)>>>
             <<<Displacing  25/coordinate 2 (+)>>>
             <<<Displacing  23/coordinate 2 (-)>>>
             <<<Displacing  25/coordinate 1 (-)>>>
             <<<Displacing  24/coordinate 2 (-)>>>
             <<<Displacing  24/coordinate 1 (-)>>>
             <<<Displacing  25/coordinate 2 (-)>>>
             <<<Displacing  26/coordinate 1 (+)>>>
             <<<Displacing  24/coordinate 3 (+)>>>
             <<<Displacing  24/coordinate 3 (-)>>>
             <<<Displacing  25/coordinate 3 (+)>>>
             <<<Displacing  26/coordinate 1 (-)>>>
             <<<Displacing  25/coordinate 3 (-)>>>
             <<<Displacing  26/coordinate 2 (+)>>>
             <<<Displacing  26/coordinate 2 (-)>>>
             <<<Displacing  28/coordinate 2 (+)>>>
             <<<Displacing  27/coordinate 2 (+)>>>
             <<<Displacing  27/coordinate 3 (+)>>>
             <<<Displacing  27/coordinate 1 (+)>>>
             <<<Displacing  26/coordinate 3 (+)>>>
             <<<Displacing  28/coordinate 1 (+)>>>
             <<<Displacing  28/coordinate 2 (-)>>>
             <<<Displacing  27/coordinate 2 (-)>>>
             <<<Displacing  27/coordinate 1 (-)>>>
             <<<Displacing  27/coordinate 3 (-)>>>
             <<<Displacing  28/coordinate 1 (-)>>>
             <<<Displacing  26/coordinate 3 (-)>>>
             <<<Displacing  28/coordinate 3 (+)>>>
             <<<Displacing  29/coordinate 2 (+)>>>
             <<<Displacing  29/coordinate 3 (+)>>>
             <<<Displacing  28/coordinate 3 (-)>>>
             <<<Displacing  29/coordinate 3 (-)>>>
             <<<Displacing  29/coordinate 2 (-)>>>
             <<<Displacing  29/coordinate 1 (+)>>>
             <<<Displacing  29/coordinate 1 (-)>>>
             <<<Displacing  30/coordinate 1 (+)>>>
             <<<Displacing  30/coordinate 1 (-)>>>
             <<<Displacing  30/coordinate 2 (+)>>>
             <<<Displacing  31/coordinate 3 (+)>>>
             <<<Displacing  31/coordinate 1 (+)>>>
             <<<Displacing  31/coordinate 2 (+)>>>
             <<<Displacing  30/coordinate 3 (+)>>>
             <<<Displacing  31/coordinate 3 (-)>>>
             <<<Displacing  30/coordinate 2 (-)>>>
             <<<Displacing  32/coordinate 1 (+)>>>
             <<<Displacing  31/coordinate 1 (-)>>>
             <<<Displacing  31/coordinate 2 (-)>>>
             <<<Displacing  30/coordinate 3 (-)>>>
             <<<Displacing  32/coordinate 2 (+)>>>
             <<<Displacing  32/coordinate 1 (-)>>>
             <<<Displacing  32/coordinate 2 (-)>>>
             <<<Displacing  33/coordinate 1 (+)>>>
             <<<Displacing  32/coordinate 3 (+)>>>
             <<<Displacing  33/coordinate 1 (-)>>>
             <<<Displacing  32/coordinate 3 (-)>>>
             <<<Displacing  33/coordinate 2 (+)>>>
             <<<Displacing  33/coordinate 2 (-)>>>
             <<<Displacing  33/coordinate 3 (+)>>>
             <<<Displacing  33/coordinate 3 (-)>>>

-----------------------
VIBRATIONAL FREQUENCIES
-----------------------

Scaling factor for frequencies =  1.000000000 (already applied!)

   0:         0.00 cm**-1
   1:         0.00 cm**-1
   2:         0.00 cm**-1
   3:         0.00 cm**-1
   4:         0.00 cm**-1
   5:         0.00 cm**-1
   6:      -671.13 cm**-1 ***imaginary mode***
   7:        46.88 cm**-1
   8:        62.71 cm**-1
   9:        68.83 cm**-1
  10:        82.08 cm**-1
  11:        88.39 cm**-1
  12:       118.74 cm**-1
  13:       131.56 cm**-1
  14:       178.39 cm**-1
  15:       211.42 cm**-1
  16:       231.98 cm**-1
  17:       255.83 cm**-1
  18:       278.20 cm**-1
  19:       350.01 cm**-1
  20:       381.84 cm**-1
  21:       384.18 cm**-1
  22:       402.40 cm**-1
  23:       475.29 cm**-1
  24:       510.88 cm**-1
  25:       524.04 cm**-1
  26:       589.08 cm**-1
  27:       607.48 cm**-1
  28:       622.31 cm**-1
  29:       624.21 cm**-1
  30:       671.68 cm**-1
  31:       695.24 cm**-1
  32:       754.25 cm**-1
  33:       770.83 cm**-1
  34:       790.81 cm**-1
  35:       826.29 cm**-1
  36:       846.38 cm**-1
  37:       886.42 cm**-1
  38:       910.64 cm**-1
  39:       920.28 cm**-1
  40:       933.92 cm**-1
  41:       939.97 cm**-1
  42:       952.50 cm**-1
  43:       956.55 cm**-1
  44:       980.68 cm**-1
  45:      1021.03 cm**-1
  46:      1061.67 cm**-1
  47:      1069.72 cm**-1
  48:      1084.66 cm**-1
  49:      1107.98 cm**-1
  50:      1112.54 cm**-1
  51:      1131.09 cm**-1
  52:      1145.36 cm**-1
  53:      1180.65 cm**-1
  54:      1189.03 cm**-1
  55:      1192.51 cm**-1
  56:      1203.67 cm**-1
  57:      1214.83 cm**-1
  58:      1235.58 cm**-1
  59:      1248.85 cm**-1
  60:      1268.23 cm**-1
  61:      1275.70 cm**-1
  62:      1279.62 cm**-1
  63:      1284.10 cm**-1
  64:      1286.27 cm**-1
  65:      1317.13 cm**-1
  66:      1334.19 cm**-1
  67:      1338.55 cm**-1
  68:      1370.97 cm**-1
  69:      1390.18 cm**-1
  70:      1424.95 cm**-1
  71:      1430.30 cm**-1
  72:      1457.21 cm**-1
  73:      1462.63 cm**-1
  74:      1494.81 cm**-1
  75:      1502.81 cm**-1
  76:      1505.99 cm**-1
  77:      1510.44 cm**-1
  78:      1538.20 cm**-1
  79:      1566.41 cm**-1
  80:      1572.90 cm**-1
  81:      2209.30 cm**-1
  82:      2914.13 cm**-1
  83:      2945.36 cm**-1
  84:      2955.22 cm**-1
  85:      2970.30 cm**-1
  86:      2978.32 cm**-1
  87:      2979.97 cm**-1
  88:      2987.79 cm**-1
  89:      3001.82 cm**-1
  90:      3004.11 cm**-1
  91:      3030.33 cm**-1
  92:      3032.52 cm**-1
  93:      3049.17 cm**-1
  94:      3052.66 cm**-1
  95:      3066.64 cm**-1
  96:      3078.53 cm**-1
  97:      3345.94 cm**-1
  98:      3614.70 cm**-1


------------
NORMAL MODES
------------

These modes are the cartesian displacements weighted by the diagonal matrix
M(i,i)=1/sqrt(m[i]) where m[i] is the mass of the displaced atom
Thus, these vectors are normalized but *not* orthogonal

                  0          1          2          3          4          5    
      0       0.000000   0.000000   0.000000   0.000000   0.000000   0.000000
      1       0.000000   0.000000   0.000000   0.000000   0.000000   0.000000
      2       0.000000   0.000000   0.000000   0.000000   0.000000   0.000000
      3       0.000000   0.000000   0.000000   0.000000   0.000000   0.000000
      4       0.000000   0.000000   0.000000   0.000000   0.000000   0.000000
      5       0.000000   0.000000   0.000000   0.000000   0.000000   0.000000
      6       0.000000   0.000000   0.000000   0.000000   0.000000   0.000000
      7       0.000000   0.000000   0.000000   0.000000   0.000000   0.000000
      8       0.000000   0.000000   0.000000   0.000000   0.000000   0.000000
      9       0.000000   0.000000   0.000000   0.000000   0.000000   0.000000
     10       0.000000   0.000000   0.000000   0.000000   0.000000   0.000000
     11       0.000000   0.000000   0.000000   0.000000   0.000000   0.000000
     12       0.000000   0.000000   0.000000   0.000000   0.000000   0.000000
     13       0.000000   0.000000   0.000000   0.000000   0.000000   0.000000
     14       0.000000   0.000000   0.000000   0.000000   0.000000   0.000000
     15       0.000000   0.000000   0.000000   0.000000   0.000000   0.000000
     16       0.000000   0.000000   0.000000   0.000000   0.000000   0.000000
     17       0.000000   0.000000   0.000000   0.000000   0.000000   0.000000
     18       0.000000   0.000000   0.000000   0.000000   0.000000   0.000000
     19       0.000000   0.000000   0.000000   0.000000   0.000000   0.000000
     20       0.000000   0.000000   0.000000   0.000000   0.000000   0.000000
     21       0.000000   0.000000   0.000000   0.000000   0.000000   0.000000
     22       0.000000   0.000000   0.000000   0.000000   0.000000   0.000000
     23       0.000000   0.000000   0.000000   0.000000   0.000000   0.000000
     24       0.000000   0.000000   0.000000   0.000000   0.000000   0.000000
     25       0.000000   0.000000   0.000000   0.000000   0.000000   0.000000
     26       0.000000   0.000000   0.000000   0.000000   0.000000   0.000000
     27       0.000000   0.000000   0.000000   0.000000   0.000000   0.000000
     28       0.000000   0.000000   0.000000   0.000000   0.000000   0.000000
     29       0.000000   0.000000   0.000000   0.000000   0.000000   0.000000
     30       0.000000   0.000000   0.000000   0.000000   0.000000   0.000000
     31       0.000000   0.000000   0.000000   0.000000   0.000000   0.000000
     32       0.000000   0.000000   0.000000   0.000000   0.000000   0.000000
     33       0.000000   0.000000   0.000000   0.000000   0.000000   0.000000
     34       0.000000   0.000000   0.000000   0.000000   0.000000   0.000000
     35       0.000000   0.000000   0.000000   0.000000   0.000000   0.000000
     36       0.000000   0.000000   0.000000   0.000000   0.000000   0.000000
     37       0.000000   0.000000   0.000000   0.000000   0.000000   0.000000
     38       0.000000   0.000000   0.000000   0.000000   0.000000   0.000000
     39       0.000000   0.000000   0.000000   0.000000   0.000000   0.000000
     40       0.000000   0.000000   0.000000   0.000000   0.000000   0.000000
     41       0.000000   0.000000   0.000000   0.000000   0.000000   0.000000
     42       0.000000   0.000000   0.000000   0.000000   0.000000   0.000000
     43       0.000000   0.000000   0.000000   0.000000   0.000000   0.000000
     44       0.000000   0.000000   0.000000   0.000000   0.000000   0.000000
     45       0.000000   0.000000   0.000000   0.000000   0.000000   0.000000
     46       0.000000   0.000000   0.000000   0.000000   0.000000   0.000000
     47       0.000000   0.000000   0.000000   0.000000   0.000000   0.000000
     48       0.000000   0.000000   0.000000   0.000000   0.000000   0.000000
     49       0.000000   0.000000   0.000000   0.000000   0.000000   0.000000
     50       0.000000   0.000000   0.000000   0.000000   0.000000   0.000000
     51       0.000000   0.000000   0.000000   0.000000   0.000000   0.000000
     52       0.000000   0.000000   0.000000   0.000000   0.000000   0.000000
     53       0.000000   0.000000   0.000000   0.000000   0.000000   0.000000
     54       0.000000   0.000000   0.000000   0.000000   0.000000   0.000000
     55       0.000000   0.000000   0.000000   0.000000   0.000000   0.000000
     56       0.000000   0.000000   0.000000   0.000000   0.000000   0.000000
     57       0.000000   0.000000   0.000000   0.000000   0.000000   0.000000
     58       0.000000   0.000000   0.000000   0.000000   0.000000   0.000000
     59       0.000000   0.000000   0.000000   0.000000   0.000000   0.000000
     60       0.000000   0.000000   0.000000   0.000000   0.000000   0.000000
     61       0.000000   0.000000   0.000000   0.000000   0.000000   0.000000
     62       0.000000   0.000000   0.000000   0.000000   0.000000   0.000000
     63       0.000000   0.000000   0.000000   0.000000   0.000000   0.000000
     64       0.000000   0.000000   0.000000   0.000000   0.000000   0.000000
     65       0.000000   0.000000   0.000000   0.000000   0.000000   0.000000
     66       0.000000   0.000000   0.000000   0.000000   0.000000   0.000000
     67       0.000000   0.000000   0.000000   0.000000   0.000000   0.000000
     68       0.000000   0.000000   0.000000   0.000000   0.000000   0.000000
     69       0.000000   0.000000   0.000000   0.000000   0.000000   0.000000
     70       0.000000   0.000000   0.000000   0.000000   0.000000   0.000000
     71       0.000000   0.000000   0.000000   0.000000   0.000000   0.000000
     72       0.000000   0.000000   0.000000   0.000000   0.000000   0.000000
     73       0.000000   0.000000   0.000000   0.000000   0.000000   0.000000
     74       0.000000   0.000000   0.000000   0.000000   0.000000   0.000000
     75       0.000000   0.000000   0.000000   0.000000   0.000000   0.000000
     76       0.000000   0.000000   0.000000   0.000000   0.000000   0.000000
     77       0.000000   0.000000   0.000000   0.000000   0.000000   0.000000
     78       0.000000   0.000000   0.000000   0.000000   0.000000   0.000000
     79       0.000000   0.000000   0.000000   0.000000   0.000000   0.000000
     80       0.000000   0.000000   0.000000   0.000000   0.000000   0.000000
     81       0.000000   0.000000   0.000000   0.000000   0.000000   0.000000
     82       0.000000   0.000000   0.000000   0.000000   0.000000   0.000000
     83       0.000000   0.000000   0.000000   0.000000   0.000000   0.000000
     84       0.000000   0.000000   0.000000   0.000000   0.000000   0.000000
     85       0.000000   0.000000   0.000000   0.000000   0.000000   0.000000
     86       0.000000   0.000000   0.000000   0.000000   0.000000   0.000000
     87       0.000000   0.000000   0.000000   0.000000   0.000000   0.000000
     88       0.000000   0.000000   0.000000   0.000000   0.000000   0.000000
     89       0.000000   0.000000   0.000000   0.000000   0.000000   0.000000
     90       0.000000   0.000000   0.000000   0.000000   0.000000   0.000000
     91       0.000000   0.000000   0.000000   0.000000   0.000000   0.000000
     92       0.000000   0.000000   0.000000   0.000000   0.000000   0.000000
     93       0.000000   0.000000   0.000000   0.000000   0.000000   0.000000
     94       0.000000   0.000000   0.000000   0.000000   0.000000   0.000000
     95       0.000000   0.000000   0.000000   0.000000   0.000000   0.000000
     96       0.000000   0.000000   0.000000   0.000000   0.000000   0.000000
     97       0.000000   0.000000   0.000000   0.000000   0.000000   0.000000
     98       0.000000   0.000000   0.000000   0.000000   0.000000   0.000000
                  6          7          8          9         10         11    
      0       0.000147  -0.173564  -0.051905   0.078267   0.044392  -0.011723
      1       0.000399   0.007671  -0.133495   0.124937   0.083397  -0.017309
      2      -0.000663   0.070737  -0.051241   0.053040  -0.040995  -0.019421
      3      -0.000927  -0.089845  -0.023955   0.094993   0.006318  -0.006913
      4       0.001756  -0.025598  -0.112432   0.151397  -0.010437  -0.008728
      5      -0.001577   0.098048  -0.033476   0.068267  -0.083139  -0.014903
      6      -0.001792  -0.008372   0.055918   0.020198   0.001300   0.000986
      7       0.000672  -0.012615   0.008615   0.016094  -0.034962   0.005135
      8      -0.001086   0.045343   0.020580  -0.003849  -0.102377  -0.007567
      9      -0.000629  -0.015733   0.103823  -0.068456   0.033254   0.003980
     10      -0.001652   0.032813   0.106816  -0.143904   0.031652   0.010641
     11       0.003182  -0.034012   0.054115  -0.090041  -0.085389  -0.004347
     12      -0.000899  -0.100251   0.074458  -0.084271   0.073688  -0.000716
     13       0.000462   0.065236   0.081475  -0.167202   0.127226   0.002203
     14       0.001818  -0.061394   0.034138  -0.103078  -0.041839  -0.008902
     15       0.000229  -0.179291  -0.002211  -0.012802   0.081510  -0.008779
     16      -0.000147   0.053157  -0.036436  -0.035447   0.158444  -0.012300
     17       0.000651  -0.008762  -0.017649  -0.033233  -0.018128  -0.016577
     18      -0.001824  -0.085371  -0.062012   0.164967  -0.017396  -0.008850
     19      -0.001942  -0.061143  -0.184565   0.271756  -0.056888  -0.012542
     20      -0.005094   0.159366  -0.059661   0.134178  -0.097799  -0.016155
     21      -0.001311   0.044711   0.163021  -0.122803   0.033739   0.009766
     22      -0.019141   0.046398   0.199188  -0.244862   0.024111   0.022340
     23      -0.013146  -0.068562   0.096055  -0.144503  -0.091705   0.002680
     24       0.000461  -0.244376  -0.025258  -0.025333   0.115703  -0.012636
     25      -0.003138   0.079078  -0.053103  -0.056006   0.240438  -0.019480
     26       0.000530  -0.030160  -0.032435  -0.044522   0.019873  -0.020275
     27       0.068305   0.078005  -0.028164   0.007375  -0.009622   0.012789
     28      -0.001736  -0.057821   0.110050   0.062695  -0.037902  -0.000358
     29       0.042571   0.089581   0.032682   0.050671  -0.005597  -0.017567
     30       0.373794   0.053810  -0.084985  -0.012264  -0.066636   0.010877
     31      -0.079308  -0.074172   0.046134   0.045076  -0.075974   0.000709
     32       0.285793   0.130228  -0.064774   0.032937   0.098255   0.015127
     33       0.014523   0.023079   0.011492   0.029236   0.009303  -0.014700
     34       0.005479  -0.003557   0.128763   0.085146   0.049059  -0.030345
     35      -0.004391   0.036592   0.080788   0.079898   0.036153  -0.054533
     36       0.029481  -0.002730   0.006100   0.047938   0.030993  -0.107185
     37       0.003332   0.003699   0.128799   0.076725   0.036285   0.005466
     38      -0.035409   0.046586   0.105446   0.126795   0.151500  -0.214300
     39      -0.022897  -0.031728   0.048679   0.042894   0.035077  -0.011012
     40      -0.017925   0.012355   0.137010   0.130896   0.153380  -0.212765
     41       0.015354   0.057515   0.062662   0.065743   0.007121  -0.024934
     42       0.132033   0.121745  -0.085249  -0.020954  -0.017881   0.043504
     43      -0.136185  -0.081655   0.197539   0.064919  -0.110271  -0.003192
     44       0.020614   0.071868   0.055894   0.061586  -0.002782  -0.029492
     45      -0.176079   0.056510  -0.087105  -0.014452  -0.329157  -0.051682
     46      -0.096465  -0.065784  -0.095291   0.022958  -0.011883   0.024384
     47      -0.134351   0.132021  -0.186873   0.025728   0.397190   0.092952
     48      -0.023974   0.104413   0.008138   0.025629  -0.082019  -0.014163
     49       0.780847  -0.091792  -0.094097   0.013245  -0.092953   0.013523
     50       0.189581   0.040300  -0.092071  -0.000590   0.078223   0.039940
     51      -0.071191   0.087393   0.081959   0.044603   0.021668   0.000251
     52      -0.039087  -0.060477   0.024484   0.042834  -0.048130   0.006823
     53      -0.052049   0.074969   0.039261   0.014784  -0.093958  -0.006399
     54       0.042463   0.099041   0.159044   0.071619   0.036972  -0.007698
     55       0.000669  -0.076852   0.068781   0.060497  -0.033357   0.002858
     56       0.035426   0.142693   0.093460   0.028328  -0.088585  -0.015285
     57       0.021517   0.157670   0.098701   0.068590   0.068441  -0.000551
     58       0.011386  -0.070718  -0.079389   0.028362  -0.017025   0.022228
     59       0.032010   0.010028  -0.010358  -0.010410  -0.120572  -0.000878
     60       0.004298   0.064792  -0.000206   0.003205  -0.028888   0.061956
     61       0.000324   0.021399   0.120315   0.046236  -0.013043   0.104835
     62      -0.003287  -0.064176   0.103174   0.059153  -0.001858   0.078121
     63      -0.002997   0.088030  -0.035619  -0.050841  -0.066078   0.104935
     64       0.002969   0.014573   0.125605   0.058819   0.004364   0.072779
     65      -0.002086  -0.071211   0.201981   0.128471  -0.099434   0.380383
     66       0.004753   0.127762   0.056469   0.071805  -0.065122   0.145279
     67      -0.000745   0.004320   0.188056   0.077529  -0.110725   0.387165
     68      -0.002770  -0.083943   0.071115   0.029053   0.027409   0.002187
     69      -0.065124   0.043610  -0.099733  -0.018378  -0.218932  -0.020783
     70      -0.012207  -0.103660  -0.063514   0.011188  -0.157422   0.000390
     71      -0.047075   0.099658  -0.164369   0.015829   0.304827   0.080226
     72       0.002922  -0.007884  -0.050199  -0.048410   0.028277  -0.039496
     73      -0.000396   0.080210  -0.009552  -0.067655   0.008711  -0.103844
     74      -0.001653  -0.134614   0.016374  -0.025750   0.070927  -0.086359
     75       0.002646  -0.069495  -0.140329  -0.132137   0.069532  -0.123007
     76      -0.000892   0.090461   0.004638  -0.063344   0.107335  -0.387240
     77      -0.001314  -0.113405   0.047260   0.004311   0.041714  -0.015005
     78       0.003646  -0.035621   0.057084   0.039645   0.082206  -0.084564
     79      -0.000713   0.089044  -0.040853  -0.092591  -0.015083  -0.069562
     80      -0.001002  -0.133774  -0.031096  -0.075170   0.168206  -0.387898
     81      -0.002004  -0.104799   0.111137  -0.151724   0.101145   0.001697
     82      -0.001765   0.100322   0.153570  -0.286776   0.181931   0.006586
     83       0.003422  -0.123418   0.059978  -0.167889  -0.023755  -0.006725
     84      -0.000077  -0.233416  -0.112678   0.136426   0.047296  -0.017726
     85      -0.001244  -0.002207  -0.224473   0.228132   0.104338  -0.027974
     86      -0.000724   0.110277  -0.092088   0.108182  -0.022560  -0.025128
     87       0.001433   0.037694  -0.126434  -0.107328  -0.037795   0.027757
     88      -0.000404   0.112327  -0.124689  -0.158456  -0.078973   0.017774
     89      -0.000333  -0.231470  -0.053361  -0.086275   0.059959   0.052567
     90       0.002195  -0.011056  -0.143599  -0.128264   0.001076  -0.017317
     91      -0.001963   0.154133  -0.190210  -0.217135  -0.084398  -0.083406
     92       0.000173  -0.274737  -0.089739  -0.125022   0.101819  -0.024122
     93       0.000352   0.064108  -0.227667  -0.189556  -0.096891   0.084320
     94      -0.000186   0.105426  -0.096271  -0.136474  -0.055555  -0.019069
     95       0.000134  -0.237723  -0.050228  -0.071875  -0.012582   0.278268
     96       0.000572   0.093038  -0.064161  -0.047151  -0.066913   0.066182
     97      -0.000678   0.101012  -0.173369  -0.189010  -0.161899   0.244650
     98       0.000059  -0.252395  -0.071914  -0.106497   0.083548   0.004863
                 12         13         14         15         16         17    
      0       0.050271   0.013417   0.004576   0.059347  -0.008437  -0.049570
      1       0.052725  -0.002848   0.003332   0.003931   0.001692  -0.039464
      2      -0.005869  -0.009219  -0.032988  -0.054996   0.019673   0.055353
      3      -0.036046   0.007295   0.001330  -0.038881   0.088905  -0.117141
      4      -0.063532  -0.014831   0.074359   0.083501  -0.064922  -0.187212
      5      -0.075233  -0.014845  -0.013250  -0.068047   0.040643  -0.022039
      6      -0.078093   0.007817  -0.019736  -0.106632   0.137512  -0.042121
      7      -0.108526  -0.012636   0.082167   0.091909  -0.072976  -0.100635
      8      -0.084637  -0.013310   0.012428  -0.008324  -0.002955  -0.009629
      9      -0.047192   0.012589  -0.020585  -0.097454   0.134215  -0.096503
     10      -0.064332  -0.003402   0.061705   0.048004  -0.021804  -0.199763
     11      -0.044899  -0.012378   0.039925   0.076542  -0.106206  -0.036651
     12       0.041685   0.018829  -0.018709  -0.008731   0.045639  -0.031706
     13       0.055503   0.007953  -0.011344  -0.041064   0.046728  -0.050444
     14       0.026990  -0.006561   0.021978   0.100160  -0.138040   0.037420
     15       0.098557   0.020931  -0.015463   0.059764  -0.016480   0.051462
     16       0.129148   0.012112  -0.054963  -0.059854   0.058937   0.137789
     17       0.052729  -0.004075  -0.022964   0.027572  -0.076999   0.152805
     18      -0.063460   0.003234   0.010346  -0.041775   0.095373  -0.159356
     19      -0.101329  -0.021349   0.107569   0.129978  -0.094612  -0.277456
     20      -0.113564  -0.019069  -0.027572  -0.140645   0.104812  -0.038708
     21      -0.079670   0.015133  -0.030657  -0.153231   0.206810  -0.146934
     22      -0.109069  -0.001973   0.087006   0.072620  -0.031764  -0.276300
     23      -0.062775  -0.013184   0.072701   0.143420  -0.172028  -0.072524
     24       0.176261   0.027286  -0.024542   0.113870  -0.075887   0.165193
     25       0.240088   0.026043  -0.126312  -0.117449   0.106934   0.361370
     26       0.117925   0.002616  -0.046947   0.035119  -0.089300   0.265020
     27      -0.054312  -0.008661  -0.026380   0.010241  -0.020449   0.001507
     28      -0.114047   0.026011   0.045199   0.025267   0.052147   0.130613
     29       0.078920   0.067704  -0.055714   0.071282   0.024641  -0.019573
     30      -0.011487  -0.018009  -0.032006   0.016505  -0.004656  -0.035604
     31      -0.075467   0.016622   0.040033   0.026562   0.051321   0.109435
     32       0.068389   0.049062  -0.182274   0.060183  -0.004363  -0.138941
     33       0.007126   0.011973   0.136836  -0.090010  -0.072417   0.033538
     34      -0.018189   0.072759  -0.048969  -0.160372  -0.148786   0.008011
     35       0.170986   0.103914   0.102783  -0.056384  -0.036178  -0.048416
     36      -0.056407   0.136476   0.219880  -0.097348  -0.034458   0.058337
     37      -0.001783   0.024750  -0.078301  -0.143760  -0.148032   0.003194
     38       0.236799   0.301941   0.196399  -0.348123  -0.280501  -0.117472
     39       0.083321  -0.008464   0.246672  -0.193229  -0.117807   0.005239
     40       0.005849   0.306925   0.044409  -0.407204  -0.347656  -0.037407
     41       0.132660   0.072288   0.038147   0.030293   0.017234  -0.028006
     42      -0.129163  -0.040243  -0.175777   0.078955   0.006466  -0.021746
     43      -0.200914   0.005519   0.138143   0.044378   0.117185   0.292406
     44       0.106083   0.079485   0.004601   0.044231   0.015979  -0.007571
     45       0.238537   0.047292  -0.268450   0.036007  -0.075300  -0.178463
     46       0.016005   0.005241  -0.011503   0.039109   0.049355   0.101381
     47      -0.062367  -0.022477  -0.017183   0.041640  -0.027932  -0.047476
     48       0.045895   0.041287  -0.122878   0.125022  -0.004780  -0.011637
     49       0.046319   0.000718  -0.065347  -0.007493   0.058734  -0.026477
     50      -0.068073  -0.033199  -0.007095  -0.120716   0.066751  -0.014820
     51      -0.073094   0.030326  -0.040239   0.023378   0.073756   0.051249
     52      -0.074551   0.012414   0.046637   0.048607   0.023204   0.077477
     53      -0.071550   0.005735  -0.008054   0.040241   0.022561   0.058728
     54      -0.074564   0.054462  -0.054977   0.052068   0.103218   0.090043
     55      -0.061380   0.029777   0.032992   0.007319   0.085191   0.118658
     56      -0.112581   0.017412   0.000588   0.201360  -0.069690   0.040028
     57      -0.043017   0.063248  -0.076348   0.262260  -0.004637   0.080748
     58       0.013564   0.008520  -0.009043   0.041168   0.048336   0.088435
     59      -0.065626  -0.023885  -0.001568  -0.168439   0.087746   0.009604
     60       0.054544  -0.094842   0.086861  -0.053602  -0.087947   0.047515
     61       0.048369  -0.111579  -0.130591  -0.078862  -0.119043  -0.003046
     62       0.176990  -0.073520   0.110709   0.050539   0.107638  -0.052523
     63       0.086044  -0.213532   0.054724   0.034297  -0.021325   0.045370
     64       0.031416  -0.066459  -0.117608  -0.107179  -0.139078  -0.001912
     65       0.290271  -0.190686   0.082929   0.085529   0.134844  -0.057258
     66       0.135955  -0.027500   0.121196  -0.097219  -0.132507   0.037057
     67       0.149258  -0.281139  -0.166724   0.000557  -0.050602  -0.009882
     68       0.129985  -0.069824   0.101647   0.053486   0.111529  -0.047812
     69       0.128117   0.007545  -0.153628  -0.000131  -0.045974  -0.128591
     70       0.032907   0.003467  -0.025398  -0.027236   0.083176   0.103321
     71      -0.071281  -0.031775  -0.004919  -0.017643   0.004533  -0.035370
     72      -0.066713  -0.113996   0.024486  -0.064501  -0.125964   0.091455
     73       0.030273  -0.114366  -0.075561   0.005768  -0.015029  -0.030498
     74       0.032569  -0.093156   0.034374   0.064020   0.100452  -0.031249
     75      -0.198530  -0.073429  -0.059811  -0.071727  -0.164323   0.115497
     76       0.003221  -0.322307  -0.088240   0.060568   0.036863  -0.030252
     77       0.084360  -0.077779   0.066061   0.058578   0.106327  -0.040147
     78      -0.072177  -0.256700  -0.056008  -0.101436  -0.196704   0.101544
     79       0.036615  -0.057979  -0.047380   0.013715   0.004600  -0.033675
     80      -0.036148  -0.247034   0.012363   0.126795   0.157251  -0.029117
     81       0.072089   0.023511  -0.025539  -0.005023   0.040882  -0.026889
     82       0.099950   0.016184  -0.040706  -0.087954   0.084141  -0.027918
     83       0.068478  -0.002055   0.038634   0.176295  -0.205327   0.024100
     84       0.084422   0.012733   0.017444   0.125568  -0.077634  -0.040996
     85       0.095907  -0.001923  -0.013950  -0.002251   0.010066  -0.024831
     86       0.008992  -0.007809  -0.061021  -0.116458   0.085322   0.063245
     87      -0.019193   0.013276   0.162552  -0.025186  -0.036693   0.098653
     88       0.054391   0.097262   0.050462   0.038706   0.070125  -0.032706
     89      -0.115433   0.091271  -0.144946  -0.022928  -0.054159  -0.020497
     90      -0.109702  -0.007850   0.032032  -0.027459  -0.078156   0.113158
     91       0.073736   0.070452   0.161113   0.155312   0.245889   0.004806
     92      -0.211200   0.060846  -0.261579   0.005048  -0.054423   0.005377
     93      -0.009979   0.157941   0.272330   0.026705   0.064136   0.117815
     94       0.048815   0.038332   0.017289   0.034573   0.053443  -0.034005
     95      -0.083323   0.285607  -0.121490  -0.137692  -0.183116  -0.063576
     96       0.098632  -0.014384   0.295328  -0.042172  -0.019830   0.071955
     97       0.058079   0.341986   0.079011  -0.048593  -0.021864  -0.059252
     98      -0.164030   0.068040  -0.203249  -0.003571  -0.048008  -0.005992
                 18         19         20         21         22         23    
      0       0.001248   0.029850   0.114749  -0.002178   0.019799  -0.016880
      1       0.002459  -0.028544   0.156092  -0.080223   0.013783   0.060828
      2      -0.001018  -0.161579   0.042256  -0.097687  -0.001369   0.057111
      3       0.000333  -0.044149  -0.060240   0.092284   0.023018   0.006748
      4       0.005167  -0.004134  -0.133674   0.119343   0.009416  -0.016916
      5      -0.000485  -0.163939  -0.105062   0.013546   0.001859   0.025821
      6      -0.002347  -0.046674  -0.024880  -0.039777  -0.018207  -0.005906
      7       0.002758   0.134185  -0.008207  -0.018554  -0.038503  -0.131052
      8      -0.000195   0.013515   0.001572   0.004116  -0.008030  -0.092950
      9      -0.001196  -0.141989   0.065393  -0.070449   0.008880   0.068603
     10       0.004271  -0.019390   0.173245  -0.046986   0.019514  -0.039942
     11       0.002351  -0.095386   0.049186  -0.086062  -0.005836   0.030575
     12      -0.000008  -0.040926  -0.081808   0.060579   0.010263   0.037010
     13       0.002063  -0.008367  -0.126438   0.133814   0.025107   0.036154
     14       0.002324  -0.057774  -0.103661   0.010921  -0.007954   0.039449
     15      -0.000013   0.125709   0.023395   0.029907  -0.004989  -0.084063
     16      -0.001073   0.126078   0.006730  -0.001938  -0.018646  -0.075875
     17      -0.000665  -0.056669  -0.057415  -0.093206  -0.037528   0.021233
     18       0.000954  -0.092447  -0.156917   0.164429   0.035623   0.058199
     19       0.007271  -0.018821  -0.275256   0.283460   0.038507   0.022440
     20      -0.001313  -0.295264  -0.224393   0.035610   0.004911   0.135217
     21      -0.001967  -0.202932   0.185224  -0.096551   0.034108   0.105690
     22       0.005128  -0.118060   0.365558  -0.141283   0.039902   0.036610
     23       0.003835  -0.137369   0.142039  -0.153879  -0.005606   0.072342
     24      -0.000338   0.243500   0.028008   0.021587  -0.022664  -0.116503
     25      -0.005000   0.228082  -0.002404  -0.031757  -0.046065  -0.114448
     26      -0.001906   0.025318  -0.057194  -0.104195  -0.052607  -0.005014
     27      -0.001143   0.081572  -0.028081  -0.061592  -0.062808  -0.058547
     28      -0.002443   0.154499  -0.026876  -0.051414   0.009037   0.225990
     29       0.002437   0.057684   0.093543   0.159536   0.093638   0.092414
     30      -0.002603   0.089525  -0.045398  -0.095823  -0.101172   0.020111
     31      -0.002990   0.133485  -0.021782  -0.039500  -0.009401   0.242719
     32       0.000150   0.057273   0.032798   0.042876   0.195810  -0.060128
     33       0.009526   0.011880  -0.033388  -0.061587  -0.163197  -0.030628
     34       0.014191   0.014944  -0.065961  -0.122569   0.106357  -0.059772
     35       0.015474  -0.024859   0.061406   0.110968  -0.030153   0.062347
     36       0.002908   0.076887  -0.066152  -0.121725  -0.217374   0.034932
     37       0.015347   0.003717  -0.052855  -0.099023   0.122332  -0.064858
     38       0.033049  -0.180779   0.002449   0.011116  -0.059027  -0.202128
     39       0.019653  -0.061937  -0.092272  -0.161169  -0.261637  -0.143719
     40       0.025987  -0.089770  -0.106412  -0.191247   0.075681  -0.231481
     41       0.008961   0.025058   0.092905   0.164112   0.019300   0.137160
     42      -0.011802   0.132677  -0.055719  -0.123165   0.040592  -0.182666
     43      -0.007309   0.140620   0.002842   0.005979  -0.090778   0.233512
     44       0.006423   0.033918   0.104916   0.184844   0.051066   0.134680
     45       0.003323   0.015027   0.027345   0.051065   0.245867  -0.342515
     46      -0.006690  -0.264593   0.008637   0.028571  -0.019686  -0.069233
     47      -0.001339  -0.038275  -0.025631  -0.042400   0.029874   0.006942
     48      -0.005170  -0.035249  -0.011480  -0.021663   0.011854  -0.053039
     49      -0.004411  -0.003335  -0.084735  -0.147659   0.011562   0.167689
     50      -0.000060   0.154577  -0.002987  -0.016277  -0.011483  -0.030673
     51      -0.004608   0.022697   0.003163   0.006954  -0.022668  -0.085188
     52      -0.002152   0.085431   0.000812   0.002466  -0.014187   0.106139
     53      -0.002654   0.114554   0.058436   0.090008   0.014685  -0.087879
     54      -0.005445   0.117615  -0.003934  -0.004816   0.014459   0.120735
     55      -0.002316   0.128688   0.003976   0.012228   0.018341   0.280921
     56      -0.004033   0.197415   0.037925   0.046018   0.010337  -0.106427
     57      -0.010029  -0.104095  -0.012644  -0.010023  -0.001572  -0.072817
     58      -0.005508  -0.154876   0.000440   0.010945  -0.009331   0.021174
     59       0.001746   0.213704   0.052256   0.069245   0.004113  -0.093017
     60       0.014659  -0.030734   0.055420   0.101175  -0.117196   0.045518
     61       0.018523  -0.020506   0.000328  -0.001136   0.086131  -0.025287
     62       0.010299   0.018236  -0.044471  -0.081300  -0.034307  -0.033529
     63       0.005618  -0.048540   0.114446   0.211229  -0.198325   0.107378
     64       0.016950  -0.013716  -0.018395  -0.036314   0.107106  -0.043687
     65       0.085430   0.010882  -0.051463  -0.093700   0.002888  -0.050831
     66       0.059592  -0.051125   0.098572   0.181529  -0.206871   0.092252
     67       0.075500  -0.025586  -0.008321  -0.014198   0.107650  -0.048655
     68      -0.014895   0.026797  -0.058342  -0.107654  -0.002311  -0.046622
     69       0.001623   0.145511  -0.061001  -0.115681   0.001321   0.134236
     70      -0.005750  -0.187616   0.027110   0.056928  -0.006921  -0.162647
     71      -0.000945   0.047449  -0.028195  -0.051861  -0.008046   0.024275
     72      -0.017821  -0.030493   0.051840   0.094457   0.080754   0.045442
     73      -0.038982  -0.011424   0.029580   0.054800  -0.126370   0.025162
     74      -0.041701   0.031655  -0.062698  -0.114891   0.086402  -0.058490
     75      -0.025768  -0.036394   0.075234   0.137703   0.122336   0.068488
     76      -0.107579   0.003519   0.025175   0.047455  -0.115893   0.033030
     77      -0.028039   0.031070  -0.069266  -0.127125   0.066029  -0.066749
     78      -0.039582  -0.044131   0.072616   0.131441   0.109281   0.058471
     79      -0.026895  -0.007351   0.021199   0.039680  -0.130920   0.018509
     80      -0.107284   0.046704  -0.057450  -0.103888   0.070638  -0.037560
     81       0.000393  -0.058742  -0.170081   0.138697   0.025028   0.086505
     82       0.001696  -0.099186  -0.304035   0.244488   0.046256   0.170578
     83       0.004139   0.003012  -0.162025   0.120022   0.011906   0.027014
     84       0.002514   0.006105   0.209548  -0.072339   0.023299   0.044784
     85       0.002465  -0.101033   0.340499  -0.173718   0.038252   0.163827
     86      -0.002065  -0.215359   0.147496  -0.135129   0.019855   0.112480
     87       0.008474  -0.009119   0.003150   0.005719   0.219173   0.010430
     88       0.006305   0.011858  -0.019971  -0.035465  -0.062881  -0.014413
     89       0.007909  -0.006938   0.019910   0.036217  -0.073128   0.009542
     90       0.244998  -0.034711   0.054307   0.099255   0.068006   0.057584
     91       0.395364   0.036793  -0.096789  -0.176452   0.135492  -0.082211
     92       0.373159  -0.029143   0.057218   0.104317  -0.190855   0.044602
     93       0.176065   0.011461  -0.051549  -0.094418   0.362708  -0.036133
     94       0.006847   0.005975  -0.006948  -0.011711  -0.097259  -0.003776
     95      -0.513207  -0.007619   0.046968   0.086285  -0.133469   0.035375
     96      -0.372315   0.016963  -0.044396  -0.080943   0.367062  -0.035614
     97      -0.337926   0.011789  -0.003143  -0.004177  -0.095382   0.001966
     98       0.212050  -0.017449   0.036931   0.067192  -0.129748   0.026229
                 24         25         26         27         28         29    
      0      -0.068001   0.011629  -0.066837  -0.121573  -0.053400  -0.014623
      1      -0.071688   0.045644   0.180513   0.114145  -0.003701  -0.000445
      2      -0.018756   0.014871  -0.261332  -0.095380  -0.056135  -0.012948
      3       0.031082  -0.024571   0.295629  -0.093125   0.003001  -0.006547
      4       0.001692  -0.000923  -0.088535   0.107047   0.068205   0.019612
      5       0.031696  -0.015415  -0.156499  -0.096656  -0.010618  -0.003774
      6       0.137459  -0.043020   0.078548   0.063545   0.026219   0.005166
      7       0.149046  -0.066058  -0.092005   0.053386   0.024533   0.006615
      8       0.069291  -0.057624   0.070380  -0.191716  -0.045242  -0.015607
      9       0.073034  -0.013755   0.058328   0.083498   0.048105   0.012408
     10      -0.012379  -0.015895  -0.167307  -0.068715   0.025780   0.008593
     11       0.023589  -0.000568   0.250103   0.041541   0.038089   0.005031
     12      -0.028822   0.021341  -0.315872   0.055925  -0.013163   0.003448
     13      -0.086291   0.031185   0.098133  -0.069582  -0.056623  -0.016030
     14      -0.041357   0.032068   0.168352   0.065922  -0.002831  -0.003495
     15       0.029902  -0.033641  -0.096717  -0.085805   0.005488   0.000232
     16       0.101396  -0.055391   0.086988  -0.045820   0.039202   0.006958
     17       0.084672  -0.007087  -0.079577   0.181080   0.068311   0.018721
     18      -0.033669   0.009762   0.291730  -0.071360  -0.027379  -0.009073
     19      -0.147523   0.053213  -0.140349   0.044727  -0.010737   0.010256
     20       0.018585   0.022144  -0.047262   0.052203  -0.005602   0.000305
     21       0.011204  -0.002839   0.203145  -0.040441  -0.036507  -0.023661
     22      -0.135069   0.044384  -0.179750  -0.016376  -0.044061  -0.003843
     23      -0.048283   0.048343   0.102124   0.184868   0.035900   0.022246
     24       0.041617  -0.034501   0.215260  -0.004180   0.018237   0.001652
     25       0.148396  -0.073780  -0.138490  -0.069237  -0.006004   0.003058
     26       0.101932  -0.013194  -0.002700   0.200829   0.059021   0.017334
     27      -0.022955   0.055770   0.003315   0.078122  -0.106200  -0.046285
     28      -0.001950   0.051117  -0.018878  -0.094793   0.167438  -0.028651
     29       0.051354  -0.008343  -0.024320   0.099096  -0.014550  -0.032108
     30      -0.064225  -0.056266  -0.006606   0.044401   0.008392  -0.076285
     31      -0.003023  -0.007719  -0.025278  -0.043959   0.133145  -0.038320
     32       0.175395   0.097133  -0.045865   0.182118   0.022727  -0.137771
     33      -0.033117   0.050934   0.013373  -0.031816  -0.027825  -0.024628
     34      -0.037907   0.007625   0.007904  -0.010871  -0.017200  -0.010335
     35       0.042345  -0.033590  -0.014169   0.010665   0.054069   0.016653
     36      -0.031325   0.090379   0.007141  -0.073593   0.038129  -0.043870
     37      -0.034903  -0.002575   0.007378   0.001892  -0.027630  -0.005803
     38      -0.019609  -0.074237   0.036460  -0.038846  -0.111559   0.064002
     39      -0.069822   0.054706   0.041993  -0.125807  -0.041431   0.005291
     40      -0.082890  -0.024849   0.041068  -0.036681  -0.133487   0.016887
     41       0.064679  -0.029106  -0.031393   0.056163   0.075096  -0.001857
     42      -0.010791   0.111077   0.009852   0.155037  -0.227197  -0.118674
     43      -0.192043   0.012434   0.047101  -0.348530   0.215961   0.123308
     44       0.043954  -0.030569  -0.026064   0.067560   0.034034  -0.002190
     45       0.651686   0.901250   0.018505  -0.388014   0.333772   0.057208
     46      -0.022019  -0.145245   0.007064   0.030397  -0.235519  -0.725009
     47       0.161993   0.083365   0.011426  -0.112309  -0.206080  -0.510928
     48      -0.040065  -0.042022   0.011495   0.010293  -0.056321  -0.138218
     49       0.058713  -0.022955  -0.014318  -0.285450   0.246792  -0.031310
     50      -0.107467   0.039362  -0.007737  -0.016384   0.243407   0.310234
     51      -0.052913   0.019108  -0.030565   0.241197  -0.026071   0.023231
     52       0.088702   0.005500  -0.013378   0.080939  -0.187069  -0.015062
     53      -0.064739  -0.009361   0.041811  -0.084256  -0.094578  -0.009063
     54      -0.085814   0.046267  -0.047024   0.157040   0.285684  -0.022955
     55       0.061658   0.040670  -0.030147   0.074122  -0.014044  -0.034832
     56      -0.073423  -0.036114   0.039168  -0.215537   0.139382  -0.049211
     57      -0.054364  -0.016015   0.042182  -0.082760   0.038671   0.040337
     58       0.044565   0.003263   0.013808  -0.043048  -0.314952   0.099316
     59      -0.099060   0.035674   0.004601   0.066725  -0.063025   0.029411
     60       0.018778   0.012996  -0.000359  -0.021011   0.019983  -0.003865
     61      -0.008990  -0.021590   0.003093   0.006181  -0.019040   0.006596
     62      -0.008708   0.013061   0.003212  -0.007480  -0.001061  -0.004241
     63       0.051165   0.006767  -0.011852  -0.000026   0.056328   0.005047
     64      -0.019798  -0.018405   0.006798  -0.001518  -0.027146   0.003202
     65      -0.005045   0.008104   0.001833   0.012829  -0.044039  -0.002544
     66       0.044699   0.010719  -0.007104  -0.026781   0.054299  -0.003418
     67      -0.006187  -0.022271   0.005027   0.031995  -0.068354   0.006052
     68      -0.018078   0.013446   0.005193  -0.008120  -0.006585  -0.004336
     69      -0.042518  -0.075358  -0.001492  -0.036438   0.019649   0.016718
     70      -0.083013  -0.017368  -0.006450   0.039952   0.273657  -0.030946
     71      -0.019629  -0.002542  -0.002719  -0.037075   0.136984   0.031149
     72       0.019870  -0.015041  -0.004378  -0.007451   0.022321   0.005251
     73       0.009317   0.005834  -0.000776  -0.009944   0.012070   0.001039
     74      -0.022158   0.003226   0.004642   0.014970  -0.032285  -0.003794
     75       0.028837  -0.026534  -0.009193   0.003486   0.026600   0.010175
     76       0.011395   0.009516  -0.003799   0.000731   0.007810  -0.001996
     77      -0.025104   0.006985   0.006648   0.009329  -0.032428  -0.005308
     78       0.025904  -0.026389  -0.006451  -0.005885   0.029526   0.009076
     79       0.006365   0.009084   0.000332  -0.010970   0.008801  -0.000055
     80      -0.015101   0.009279  -0.000049   0.024456  -0.031038  -0.006640
     81      -0.126738   0.067111  -0.309326   0.053588  -0.068185  -0.007460
     82      -0.225664   0.117336   0.157079   0.037517  -0.126634  -0.026671
     83      -0.181161   0.070494   0.063983  -0.075375  -0.090157  -0.024661
     84      -0.169978   0.075708  -0.215487   0.040768  -0.064683  -0.008544
     85      -0.237370   0.127605   0.190594   0.118528  -0.093708  -0.016651
     86      -0.098612   0.044548  -0.111447  -0.216330  -0.133437  -0.033653
     87       0.008959  -0.022580  -0.004010   0.004289   0.012624   0.006792
     88      -0.007434   0.012520   0.002648  -0.003152  -0.007973  -0.003667
[...]
     16      -0.003322  -0.000004   0.000013
     17       0.010390   0.000050   0.000010
     18      -0.021214   0.000862  -0.000313
     19       0.009236  -0.000277   0.000223
     20       0.005623   0.000156  -0.000050
     21       0.482367   0.000007  -0.002571
     22      -0.583252   0.000240   0.001526
     23       0.598315  -0.000261  -0.001544
     24       0.050073   0.000488   0.000053
     25       0.033013   0.000340   0.000195
     26      -0.116019  -0.000917  -0.000409
     27      -0.000097  -0.024589  -0.000214
     28       0.000002   0.001337  -0.000008
     29       0.000008  -0.064641  -0.000076
     30      -0.000005  -0.013596   0.006608
     31      -0.001253   0.005194   0.001532
     32       0.000790  -0.016530  -0.004425
     33       0.000014  -0.000541  -0.000036
     34       0.000049   0.000079   0.000103
     35      -0.000115  -0.002163  -0.000081
     36      -0.000345  -0.000395  -0.000725
     37      -0.001028  -0.000565  -0.000970
     38      -0.000108  -0.000763   0.000020
     39       0.000573   0.005619  -0.000014
     40       0.000315   0.003732   0.000430
     41       0.001140   0.011397   0.001028
     42      -0.000031   0.361280   0.001613
     43       0.000579  -0.019323  -0.000067
     44      -0.000257   0.929307   0.002460
     45      -0.000335   0.000300  -0.147633
     46      -0.001491   0.001263  -0.615294
     47       0.002563  -0.002320   0.771717
     48       0.001335  -0.001191   0.001742
     49      -0.000691   0.001174  -0.000140
     50       0.000680  -0.000751  -0.009775
     51      -0.000262  -0.001148   0.000133
     52       0.000268  -0.000424  -0.000088
     53      -0.000272  -0.000988  -0.000099
     54       0.000450  -0.000443  -0.000358
     55      -0.000953   0.003566   0.000298
     56      -0.000248   0.000525   0.000179
     57       0.000212   0.000269  -0.000080
     58      -0.000054  -0.000180   0.000065
     59       0.000059   0.000278   0.000224
     60      -0.000010  -0.000032  -0.000012
     61      -0.000045   0.000008   0.000003
     62       0.000029   0.000366   0.000015
     63       0.000217   0.000068   0.000042
     64       0.000474  -0.000511  -0.000347
     65      -0.000100  -0.000537  -0.000022
     66      -0.000008   0.001757   0.000214
     67       0.000041  -0.000881  -0.000027
     68      -0.000229  -0.000225   0.000251
     69       0.000023   0.000381   0.008960
     70       0.000175  -0.000340   0.038636
     71      -0.000294   0.000343  -0.048060
     72       0.000003  -0.000053  -0.000001
     73       0.000026   0.000074   0.000013
     74      -0.000030  -0.000092  -0.000017
     75       0.000177  -0.000056   0.000002
     76       0.000101   0.000215   0.000021
     77       0.000466   0.001012   0.000161
     78      -0.000149  -0.000328  -0.000104
     79      -0.000435  -0.000755  -0.000157
     80      -0.000059   0.000026   0.000009
     81       0.183762   0.001222  -0.000104
     82      -0.074003  -0.000420   0.000111
     83      -0.054439  -0.000571  -0.000049
     84      -0.024552  -0.000510  -0.000115
     85       0.029582   0.000908   0.000200
     86      -0.029363  -0.001016  -0.000184
     87       0.000021   0.000022   0.000003
     88      -0.000014  -0.000024   0.000002
     89       0.000002  -0.000018  -0.000000
     90      -0.000278  -0.000850  -0.000055
     91      -0.000086  -0.000036  -0.000010
     92       0.000279   0.000576   0.000045
     93       0.000105   0.000099   0.000013
     94       0.000257   0.000365  -0.000047
     95      -0.000004  -0.000008   0.000001
     96      -0.000038   0.000008   0.000031
     97      -0.000013  -0.000005   0.000001
     98      -0.000188  -0.000010   0.000028


-----------
IR SPECTRUM  
-----------

 Mode    freq (cm**-1)   T**2         TX         TY         TZ
-------------------------------------------------------------------
   7:        46.88    0.000000  (  0.000000   0.000000   0.000000)
   8:        62.71    0.000000  (  0.000000   0.000000   0.000000)
   9:        68.83    0.000000  (  0.000000   0.000000   0.000000)
  10:        82.08    0.000000  (  0.000000   0.000000   0.000000)
  11:        88.39    0.000000  (  0.000000   0.000000   0.000000)
  12:       118.74    0.000000  (  0.000000   0.000000   0.000000)
  13:       131.56    0.000000  (  0.000000   0.000000   0.000000)
  14:       178.39    0.000000  (  0.000000   0.000000   0.000000)
  15:       211.42    0.000000  (  0.000000   0.000000   0.000000)
  16:       231.98    0.000000  (  0.000000   0.000000   0.000000)
  17:       255.83    0.000000  (  0.000000   0.000000   0.000000)
  18:       278.20    0.000000  (  0.000000   0.000000   0.000000)
  19:       350.01    0.000000  (  0.000000   0.000000   0.000000)
  20:       381.84    0.000000  (  0.000000   0.000000   0.000000)
  21:       384.18    0.000000  (  0.000000   0.000000   0.000000)
  22:       402.40    0.000000  (  0.000000   0.000000   0.000000)
  23:       475.29    0.000000  (  0.000000   0.000000   0.000000)
  24:       510.88    0.000000  (  0.000000   0.000000   0.000000)
  25:       524.04    0.000000  (  0.000000   0.000000   0.000000)
  26:       589.08    0.000000  (  0.000000   0.000000   0.000000)
  27:       607.48    0.000000  (  0.000000   0.000000   0.000000)
  28:       622.31    0.000000  (  0.000000   0.000000   0.000000)
  29:       624.21    0.000000  (  0.000000   0.000000   0.000000)
  30:       671.68    0.000000  (  0.000000   0.000000   0.000000)
  31:       695.24    0.000000  (  0.000000   0.000000   0.000000)
  32:       754.25    0.000000  (  0.000000   0.000000   0.000000)
  33:       770.83    0.000000  (  0.000000   0.000000   0.000000)
  34:       790.81    0.000000  (  0.000000   0.000000   0.000000)
  35:       826.29    0.000000  (  0.000000   0.000000   0.000000)
  36:       846.38    0.000000  (  0.000000   0.000000   0.000000)
  37:       886.42    0.000000  (  0.000000   0.000000   0.000000)
  38:       910.64    0.000000  (  0.000000   0.000000   0.000000)
  39:       920.28    0.000000  (  0.000000   0.000000   0.000000)
  40:       933.92    0.000000  (  0.000000   0.000000   0.000000)
  41:       939.97    0.000000  (  0.000000   0.000000   0.000000)
  42:       952.50    0.000000  (  0.000000   0.000000   0.000000)
  43:       956.55    0.000000  (  0.000000   0.000000   0.000000)
  44:       980.68    0.000000  (  0.000000   0.000000   0.000000)
  45:      1021.03    0.000000  (  0.000000   0.000000   0.000000)
  46:      1061.67    0.000000  (  0.000000   0.000000   0.000000)
  47:      1069.72    0.000000  (  0.000000   0.000000   0.000000)
  48:      1084.66    0.000000  (  0.000000   0.000000   0.000000)
  49:      1107.98    0.000000  (  0.000000   0.000000   0.000000)
  50:      1112.54    0.000000  (  0.000000   0.000000   0.000000)
  51:      1131.09    0.000000  (  0.000000   0.000000   0.000000)
  52:      1145.36    0.000000  (  0.000000   0.000000   0.000000)
  53:      1180.65    0.000000  (  0.000000   0.000000   0.000000)
  54:      1189.03    0.000000  (  0.000000   0.000000   0.000000)
  55:      1192.51    0.000000  (  0.000000   0.000000   0.000000)
  56:      1203.67    0.000000  (  0.000000   0.000000   0.000000)
  57:      1214.83    0.000000  (  0.000000   0.000000   0.000000)
  58:      1235.58    0.000000  (  0.000000   0.000000   0.000000)
  59:      1248.85    0.000000  (  0.000000   0.000000   0.000000)
  60:      1268.23    0.000000  (  0.000000   0.000000   0.000000)
  61:      1275.70    0.000000  (  0.000000   0.000000   0.000000)
  62:      1279.62    0.000000  (  0.000000   0.000000   0.000000)
  63:      1284.10    0.000000  (  0.000000   0.000000   0.000000)
  64:      1286.27    0.000000  (  0.000000   0.000000   0.000000)
  65:      1317.13    0.000000  (  0.000000   0.000000   0.000000)
  66:      1334.19    0.000000  (  0.000000   0.000000   0.000000)
  67:      1338.55    0.000000  (  0.000000   0.000000   0.000000)
  68:      1370.97    0.000000  (  0.000000   0.000000   0.000000)
  69:      1390.18    0.000000  (  0.000000   0.000000   0.000000)
  70:      1424.95    0.000000  (  0.000000   0.000000   0.000000)
  71:      1430.30    0.000000  (  0.000000   0.000000   0.000000)
  72:      1457.21    0.000000  (  0.000000   0.000000   0.000000)
  73:      1462.63    0.000000  (  0.000000   0.000000   0.000000)
  74:      1494.81    0.000000  (  0.000000   0.000000   0.000000)
  75:      1502.81    0.000000  (  0.000000   0.000000   0.000000)
  76:      1505.99    0.000000  (  0.000000   0.000000   0.000000)
  77:      1510.44    0.000000  (  0.000000   0.000000   0.000000)
  78:      1538.20    0.000000  (  0.000000   0.000000   0.000000)
  79:      1566.41    0.000000  (  0.000000   0.000000   0.000000)
  80:      1572.90    0.000000  (  0.000000   0.000000   0.000000)
  81:      2209.30    0.000000  (  0.000000   0.000000   0.000000)
  82:      2914.13    0.000000  (  0.000000   0.000000   0.000000)
  83:      2945.36    0.000000  (  0.000000   0.000000   0.000000)
  84:      2955.22    0.000000  (  0.000000   0.000000   0.000000)
  85:      2970.30    0.000000  (  0.000000   0.000000   0.000000)
  86:      2978.32    0.000000  (  0.000000   0.000000   0.000000)
  87:      2979.97    0.000000  (  0.000000   0.000000   0.000000)
  88:      2987.79    0.000000  (  0.000000   0.000000   0.000000)
  89:      3001.82    0.000000  (  0.000000   0.000000   0.000000)
  90:      3004.11    0.000000  (  0.000000   0.000000   0.000000)
  91:      3030.33    0.000000  (  0.000000   0.000000   0.000000)
  92:      3032.52    0.000000  (  0.000000   0.000000   0.000000)
  93:      3049.17    0.000000  (  0.000000   0.000000   0.000000)
  94:      3052.66    0.000000  (  0.000000   0.000000   0.000000)
  95:      3066.64    0.000000  (  0.000000   0.000000   0.000000)
  96:      3078.53    0.000000  (  0.000000   0.000000   0.000000)
  97:      3345.94    0.000000  (  0.000000   0.000000   0.000000)
  98:      3614.70    0.000000  (  0.000000   0.000000   0.000000)

The first frequency considered to be a vibration is 7
The total number of vibrations considered is 92


--------------------------
THERMOCHEMISTRY AT 298.15K
--------------------------

Temperature         ... 298.15 K
Pressure            ... 1.00 atm
Total Mass          ... 197.28 AMU

Throughout the following assumptions are being made:
  (1) The electronic state is orbitally nondegenerate
  (2) There are no thermally accessible electronically excited states
  (3) Hindered rotations indicated by low frequency modes are not
      treated as such but are treated as vibrations and this may
      cause some error
  (4) All equations used are the standard statistical mechanics
      equations for an ideal gas
  (5) All vibrations are strictly harmonic

freq.      46.88  E(vib)   ...       0.53 
freq.      62.71  E(vib)   ...       0.51 
freq.      68.83  E(vib)   ...       0.50 
freq.      82.08  E(vib)   ...       0.48 
freq.      88.39  E(vib)   ...       0.48 
freq.     118.74  E(vib)   ...       0.44 
freq.     131.56  E(vib)   ...       0.42 
freq.     178.39  E(vib)   ...       0.37 
freq.     211.42  E(vib)   ...       0.34 
freq.     231.98  E(vib)   ...       0.32 
freq.     255.83  E(vib)   ...       0.30 
freq.     278.20  E(vib)   ...       0.28 
freq.     350.01  E(vib)   ...       0.23 
freq.     381.84  E(vib)   ...       0.21 
freq.     384.18  E(vib)   ...       0.20 
freq.     402.40  E(vib)   ...       0.19 
freq.     475.29  E(vib)   ...       0.15 
freq.     510.88  E(vib)   ...       0.14 
freq.     524.04  E(vib)   ...       0.13 
freq.     589.08  E(vib)   ...       0.10 
freq.     607.48  E(vib)   ...       0.10 
freq.     622.31  E(vib)   ...       0.09 
freq.     624.21  E(vib)   ...       0.09 
freq.     671.68  E(vib)   ...       0.08 
freq.     695.24  E(vib)   ...       0.07 
freq.     754.25  E(vib)   ...       0.06 
freq.     770.83  E(vib)   ...       0.05 
freq.     790.81  E(vib)   ...       0.05 
freq.     826.29  E(vib)   ...       0.04 
freq.     846.38  E(vib)   ...       0.04 
freq.     886.42  E(vib)   ...       0.04 
freq.     910.64  E(vib)   ...       0.03 
freq.     920.28  E(vib)   ...       0.03 
freq.     933.92  E(vib)   ...       0.03 
freq.     939.97  E(vib)   ...       0.03 
freq.     952.50  E(vib)   ...       0.03 
freq.     956.55  E(vib)   ...       0.03 
freq.     980.68  E(vib)   ...       0.02 
freq.    1021.03  E(vib)   ...       0.02 
freq.    1061.67  E(vib)   ...       0.02 
freq.    1069.72  E(vib)   ...       0.02 
freq.    1084.66  E(vib)   ...       0.02 
freq.    1107.98  E(vib)   ...       0.02 
freq.    1112.54  E(vib)   ...       0.01 
freq.    1131.09  E(vib)   ...       0.01 
freq.    1145.36  E(vib)   ...       0.01 
freq.    1180.65  E(vib)   ...       0.01 
freq.    1189.03  E(vib)   ...       0.01 
freq.    1192.51  E(vib)   ...       0.01 
freq.    1203.67  E(vib)   ...       0.01 
freq.    1214.83  E(vib)   ...       0.01 
freq.    1235.58  E(vib)   ...       0.01 
freq.    1248.85  E(vib)   ...       0.01 
freq.    1268.23  E(vib)   ...       0.01 
freq.    1275.70  E(vib)   ...       0.01 
freq.    1279.62  E(vib)   ...       0.01 
freq.    1284.10  E(vib)   ...       0.01 
freq.    1286.27  E(vib)   ...       0.01 
freq.    1317.13  E(vib)   ...       0.01 
freq.    1334.19  E(vib)   ...       0.01 
freq.    1338.55  E(vib)   ...       0.01 
freq.    1370.97  E(vib)   ...       0.01 
freq.    1390.18  E(vib)   ...       0.00 
freq.    1424.95  E(vib)   ...       0.00 
freq.    1430.30  E(vib)   ...       0.00 
freq.    1457.21  E(vib)   ...       0.00 
freq.    1462.63  E(vib)   ...       0.00 
freq.    1494.81  E(vib)   ...       0.00 
freq.    1502.81  E(vib)   ...       0.00 
freq.    1505.99  E(vib)   ...       0.00 
freq.    1510.44  E(vib)   ...       0.00 
freq.    1538.20  E(vib)   ...       0.00 
freq.    1566.41  E(vib)   ...       0.00 
freq.    1572.90  E(vib)   ...       0.00 
freq.    2209.30  E(vib)   ...       0.00 
freq.    2914.13  E(vib)   ...       0.00 
freq.    2945.36  E(vib)   ...       0.00 
freq.    2955.22  E(vib)   ...       0.00 
freq.    2970.30  E(vib)   ...       0.00 
freq.    2978.32  E(vib)   ...       0.00 
freq.    2979.97  E(vib)   ...       0.00 
freq.    2987.79  E(vib)   ...       0.00 
freq.    3001.82  E(vib)   ...       0.00 
freq.    3004.11  E(vib)   ...       0.00 
freq.    3030.33  E(vib)   ...       0.00 
freq.    3032.52  E(vib)   ...       0.00 
freq.    3049.17  E(vib)   ...       0.00 
freq.    3052.66  E(vib)   ...       0.00 
freq.    3066.64  E(vib)   ...       0.00 
freq.    3078.53  E(vib)   ...       0.00 
freq.    3345.94  E(vib)   ...       0.00 
freq.    3614.70  E(vib)   ...       0.00 

------------
INNER ENERGY
------------

The inner energy is: U= E(el) + E(ZPE) + E(vib) + E(rot) + E(trans)
    E(el)   - is the total energy from the electronic structure calculation
              = E(kin-el) + E(nuc-el) + E(el-el) + E(nuc-nuc)
    E(ZPE)  - the the zero temperature vibrational energy from the frequency calculation
    E(vib)  - the the finite temperature correction to E(ZPE) due to population
              of excited vibrational states
    E(rot)  - is the rotational thermal energy
    E(trans)- is the translational thermal energy

Summary of contributions to the inner energy U:
Electronic energy                ...    -44.26388411 Eh
Zero point energy                ...      0.27586503 Eh     173.11 kcal/mol
Thermal vibrational correction   ...      0.01203199 Eh       7.55 kcal/mol
Thermal rotational correction    ...      0.00141627 Eh       0.89 kcal/mol
Thermal translational correction ...      0.00141627 Eh       0.89 kcal/mol
-----------------------------------------------------------------------
Total thermal energy                    -43.97315454 Eh


Summary of corrections to the electronic energy:
(perhaps to be used in another calculation)
Total thermal correction                  0.01486453 Eh       9.33 kcal/mol
Non-thermal (ZPE) correction              0.27586503 Eh     173.11 kcal/mol
-----------------------------------------------------------------------
Total correction                          0.29072957 Eh     182.44 kcal/mol


--------
ENTHALPY
--------

The enthalpy is H = U + kB*T
                kB is Boltzmann's constant
Total free energy                 ...    -43.97315454 Eh 
Thermal Enthalpy correction       ...      0.00094421 Eh       0.59 kcal/mol
-----------------------------------------------------------------------
Total Enthalpy                    ...    -43.97221033 Eh


Note: Only C1 symmetry has been detected, increase convergence thresholds 
      if your molecule has a higher symmetry. Symmetry factor of 1.0 is   
      used for the rotational entropy correction. 
 

Note: Rotational entropy computed according to Herzberg 
Infrared and Raman Spectra, Chapter V,1, Van Nostrand Reinhold, 1945 
Point Group:  C1, Symmetry Number:   1  
Rotational constants in cm-1:     0.033168     0.011081     0.008899 

Vibrational entropy computed according to the QRRHO of S. Grimme
Chem.Eur.J. 2012 18 9955


-------
ENTROPY
-------

The entropy contributions are T*S = T*(S(el)+S(vib)+S(rot)+S(trans))
     S(el)   - electronic entropy
     S(vib)  - vibrational entropy
     S(rot)  - rotational entropy
     S(trans)- translational entropy
The entropies will be listed as mutliplied by the temperature to get
units of energy

Electronic entropy                ...      0.00000000 Eh      0.00 kcal/mol
Vibrational entropy               ...      0.02097096 Eh     13.16 kcal/mol
Rotational entropy                ...      0.01547357 Eh      9.71 kcal/mol
Translational entropy             ...      0.01983352 Eh     12.45 kcal/mol
-----------------------------------------------------------------------
Final entropy term                ...      0.05627805 Eh     35.31 kcal/mol

In case the symmetry of your molecule has not been determined correctly
or in case you have a reason to use a different symmetry number we print 
out the resulting rotational entropy values for sn=1,12 :
 --------------------------------------------------------
|  sn= 1 | S(rot)=       0.01547357 Eh      9.71 kcal/mol|
|  sn= 2 | S(rot)=       0.01481911 Eh      9.30 kcal/mol|
|  sn= 3 | S(rot)=       0.01443628 Eh      9.06 kcal/mol|
|  sn= 4 | S(rot)=       0.01416466 Eh      8.89 kcal/mol|
|  sn= 5 | S(rot)=       0.01395397 Eh      8.76 kcal/mol|
|  sn= 6 | S(rot)=       0.01378182 Eh      8.65 kcal/mol|
|  sn= 7 | S(rot)=       0.01363628 Eh      8.56 kcal/mol|
|  sn= 8 | S(rot)=       0.01351020 Eh      8.48 kcal/mol|
|  sn= 9 | S(rot)=       0.01339899 Eh      8.41 kcal/mol|
|  sn=10 | S(rot)=       0.01329951 Eh      8.35 kcal/mol|
|  sn=11 | S(rot)=       0.01320952 Eh      8.29 kcal/mol|
|  sn=12 | S(rot)=       0.01312737 Eh      8.24 kcal/mol|
 --------------------------------------------------------


-------------------
GIBBS FREE ENERGY
-------------------

The Gibbs free energy is G = H - T*S

Total enthalpy                    ...    -43.97221033 Eh 
Total entropy correction          ...     -0.05627805 Eh    -35.31 kcal/mol
-----------------------------------------------------------------------
Final Gibbs free energy         ...    -44.02848838 Eh

For completeness - the Gibbs free energy minus the electronic energy
G-E(el)                           ...      0.23539572 Eh    147.71 kcal/mol


Total Time for Numerical Frequencies  :        90.555 sec
Time for Reference State(s)           :         0.239 sec
Time for Displacements                :        80.302 sec

Timings for individual modules:

Sum of individual times         ...        0.375 sec (=   0.006 min)
XTB module                      ...        0.375 sec (=   0.006 min) 100.0 %
                             ****ORCA TERMINATED NORMALLY****
TOTAL RUN TIME: 0 days 0 hours 1 minutes 31 seconds 691 msec
