(SLURM) JOB ID:         517

                                 *****************
                                 * O   R   C   A *
                                 *****************

           --- An Ab Initio, DFT and Semiempirical electronic structure package ---

                  #######################################################
                  #                        -***-                        #
                  #          Department of theory and spectroscopy      #
                  #               Directorship: Frank Neese             #
                  #        Max Planck Institute fuer Kohlenforschung    #
                  #                Kaiser Wilhelm Platz 1               #
                  #                 D-45470 Muelheim/Ruhr               #
                  #                      Germany                        #
                  #                                                     #
                  #                  All rights reserved                #
                  #                        -***-                        #
                  #######################################################


                         Program Version 4.2.1 -  RELEASE  -


 With contributions from (in alphabetic order):
   Daniel Aravena         : Magnetic Suceptibility
   Michael Atanasov       : Ab Initio Ligand Field Theory (pilot matlab implementation)
   Alexander A. Auer      : GIAO ZORA, VPT2
   Ute Becker             : Parallelization
   Giovanni Bistoni       : ED, misc. LED, open-shell LED, HFLD
   Martin Brehm           : Molecular dynamics
   Dmytro Bykov           : SCF Hessian
   Vijay G. Chilkuri      : MRCI spin determinant printing, contributions to CSF-ICE
   Dipayan Datta          : RHF DLPNO-CCSD density
   Achintya Kumar Dutta   : EOM-CC, STEOM-CC
   Dmitry Ganyushin       : Spin-Orbit,Spin-Spin,Magnetic field MRCI
   Miquel Garcia          : C-PCM Hessian, Gaussian charge scheme
   Yang Guo               : DLPNO-NEVPT2, CIM, IAO-localization
   Andreas Hansen         : Spin unrestricted coupled pair/coupled cluster methods
   Benjamin Helmich-Paris : CASSCF linear response (MC-RPA)
   Lee Huntington         : MR-EOM, pCC
   Robert Izsak           : Overlap fitted RIJCOSX, COSX-SCS-MP3, EOM
   Christian Kollmar      : KDIIS, OOCD, Brueckner-CCSD(T), CCSD density
   Simone Kossmann        : Meta GGA functionals, TD-DFT gradient, OOMP2, MP2 Hessian
   Martin Krupicka        : AUTO-CI
   Lucas Lang             : DCDCAS
   Dagmar Lenk            : GEPOL surface, SMD
   Dimitrios Liakos       : Extrapolation schemes; Compound Job, initial MDCI parallelization
   Dimitrios Manganas     : Further ROCIS development; embedding schemes
   Dimitrios Pantazis     : SARC Basis sets
   Taras Petrenko         : DFT Hessian,TD-DFT gradient, ASA, ECA, R-Raman, ABS, FL, XAS/XES, NRVS
   Peter Pinski           : DLPNO-MP2, DLPNO-MP2 Gradient
   Christoph Reimann      : Effective Core Potentials
   Marius Retegan         : Local ZFS, SOC
   Christoph Riplinger    : Optimizer, TS searches, QM/MM, DLPNO-CCSD(T), (RO)-DLPNO pert. Triples
   Tobias Risthaus        : Range-separated hybrids, TD-DFT gradient, RPA, STAB
   Michael Roemelt        : Original ROCIS implementation
   Masaaki Saitow         : Open-shell DLPNO-CCSD energy and density
   Barbara Sandhoefer     : DKH picture change effects
   Avijit Sen             : IP-ROCIS
   Kantharuban Sivalingam : CASSCF convergence, NEVPT2, FIC-MRCI
   Bernardo de Souza      : ESD, SOC TD-DFT
   Georgi Stoychev        : AutoAux, RI-MP2 NMR
   Willem Van den Heuvel  : Paramagnetic NMR
   Boris Wezisla          : Elementary symmetry handling
   Frank Wennmohs         : Technical directorship


 We gratefully acknowledge several colleagues who have allowed us to
 interface, adapt or use parts of their codes:
   Stefan Grimme, W. Hujo, H. Kruse,             : VdW corrections, initial TS optimization,
                  C. Bannwarth                     DFT functionals, gCP, sTDA/sTD-DF
   Ed Valeev, F. Pavosevic, A. Kumar             : LibInt (2-el integral package), F12 methods
   Garnet Chan, S. Sharma, J. Yang, R. Olivares  : DMRG
   Ulf Ekstrom                                   : XCFun DFT Library
   Mihaly Kallay                                 : mrcc  (arbitrary order and MRCC methods)
   Andreas Klamt, Michael Diedenhofen            : otool_cosmo (COSMO solvation model)
   Jiri Pittner, Ondrej Demel                    : Mk-CCSD
   Frank Weinhold                                : gennbo (NPA and NBO analysis)
   Christopher J. Cramer and Donald G. Truhlar   : smd solvation model
   Lars Goerigk                                  : TD-DFT with DH, B97 family of functionals
   V. Asgeirsson, H. Jonsson                     : NEB implementation
   FAccTs GmbH                                   : IRC, NEB, NEB-TS, Multilevel, MM, QM/MM, CI optimization
   S Lehtola, MJT Oliveira, MAL Marques          : LibXC Library


 Your calculation uses the libint2 library for the computation of 2-el integrals
 For citations please refer to: http://libint.valeyev.net

 Your ORCA version has been built with support for libXC version: 4.2.3
 For citations please refer to: https://tddft.org/programs/libxc/

 This ORCA versions uses:
   CBLAS   interface :  Fast vector & matrix operations
   LAPACKE interface :  Fast linear algebra routines
   SCALAPACK package :  Parallel linear algebra routines




***************************************
The coordinates will be read from file: init.xyz
***************************************


Your calculation utilizes the SMD solvation module
Please cite in your paper:
A.V. Marenich, C.J. Cramer, D.G. Truhlar J. Phys. Chem. B, 113, (2009), 6378 

Your calculation utilizes the semiempirical GFN2-xTB method
Please cite in your paper:
C. Bannwarth, Ehlert S., S. Grimme,  J. Chem. Theory Comput., 15, (2019), 1652.
   

----- Orbital basis set information -----
Your calculation utilizes the basis: def2-SVP
   F. Weigend and R. Ahlrichs, Phys. Chem. Chem. Phys. 7, 3297 (2005).

================================================================================
                                        WARNINGS
                       Please study these warnings very carefully!
================================================================================

WARNING: Gradients needed for Numerical Frequencies
  ===> : Setting RunTyp to EnGrad

WARNING: The environment variable RSH_COMMAND is not set!
  ===> : All Displacements for the Numerical Hessian calculation
         will be started on localhost

WARNING: Found dipole moment calculation with XTB calculation
  ===> : Switching off dipole moment calculation


INFO   : the flag for use of LIBINT has been found!

================================================================================
                                       INPUT FILE
================================================================================
NAME = /tmp/slurm-scratch/freq.517/freq.inp
|  1> ! XTB2 NumFreq
|  2> %maxcore 1450
|  3> 
|  4> * xyzfile 0 1 init.xyz
|  5> 
|  6> %cpcm
|  7>  smd true
|  8>  smdsolvent "ch2cl2"
|  9> end
| 10> %pal nprocs 9 end
| 11> 
| 12>                          ****END OF INPUT****
================================================================================

                     *******************************
                     * Energy+Gradient Calculation *
                     *******************************

      -----------------------------------------------------------      
     |                   =====================                   |     
     |                           x T B                           |     
     |                   =====================                   |     
     |                         S. Grimme                         |     
     |          Mulliken Center for Theoretical Chemistry        |     
     |                    University of Bonn                     |     
      -----------------------------------------------------------      

   * xtb version 6.3.2 (30e43eb) compiled by 'schneider@apollo14' on 2020-08-08

   xtb is free software: you can redistribute it and/or modify it under
   the terms of the GNU Lesser General Public License as published by
   the Free Software Foundation, either version 3 of the License, or
   (at your option) any later version.
   
   xtb is distributed in the hope that it will be useful,
   but WITHOUT ANY WARRANTY; without even the implied warranty of
   MERCHANTABILITY or FITNESS FOR A PARTICULAR PURPOSE.  See the
   GNU Lesser General Public License for more details.
   
   Cite this work as:
   * S. Grimme, C. Bannwarth, P. Shushkov, J. Chem. Theory Comput., 2017,
     13, 1989-2009. DOI: 10.1021/acs.jctc.7b00118
   * C. Bannwarth, S. Ehlert and S. Grimme., J. Chem. Theory Comput., 2019,
     15, 1652-1671. DOI: 10.1021/acs.jctc.8b01176
   * P. Pracht, E. Caldeweyher, S. Ehlert, S. Grimme, ChemRxiv, 2019, preprint.
     DOI: 10.26434/chemrxiv.8326202.v1
   
   for GFN-FF:
   * S. Spicher and S. Grimme, Angew. Chem. Int. Ed., 2020,
     DOI: 10.1002/anie.202004239
   
   for DFT-D4:
   * E. Caldeweyher, C. Bannwarth and S. Grimme, J. Chem. Phys., 2017,
     147, 034112. DOI: 10.1063/1.4993215
   * E. Caldeweyher, S. Ehlert, A. Hansen, H. Neugebauer, S. Spicher,
     C. Bannwarth and S. Grimme, J. Chem. Phys., 2019, 150, 154122.
     DOI: 10.1063/1.5090222
   
   for sTDA-xTB:
   * S. Grimme and C. Bannwarth, J. Chem. Phys., 2016, 145, 054103.
     DOI: 10.1063/1.4959605
   
   in the mass-spec context:
   * V. Asgeirsson, C. Bauer and S. Grimme, Chem. Sci., 2017, 8, 4879.
     DOI: 10.1039/c7sc00601b
   * J. Koopman and S. Grimme, ACS Omega 2019, 4, 12, 15120-15133.
     DOI: 10.1021/acsomega.9b02011
   
   for metadynamics refer to:
   * S. Grimme, J. Chem. Theory Comput., 2019, 155, 2847-2862
     DOI: 10.1021/acs.jctc.9b00143
   
   with help from (in alphabetical order)
   C. Bannwarth, F. Bohle, G. Brandenburg, E. Caldeweyher, M. Checinski,
   S. Dohm, S. Ehlert, S. Ehrlich, F. März, H. Neugebauer, J. Pisarek,
   P. Pracht, P. Shushkov, and S. Spicher.
   
 * started run on 2020/09/08 at 13:44:35.772     

           -------------------------------------------------
          |                Calculation Setup                |
           -------------------------------------------------

          program call               : /opt/orca/otool_xtb /tmp/slurm-scratch/freq.517/freq_XTB.xyz --grad -c 0 -u 0 -P 9 --namespace /tmp/slurm-scratch/freq.517/freq --gbsa CH2Cl2
          hostname                   : apollo14
          calculation namespace      : /tmp/slurm-scratch/freq.517/freq
          coordinate file            : /tmp/slurm-scratch/freq.517/freq_XTB.xyz
          omp threads                :                     9
          number of atoms            :                    46
          number of electrons        :                   104
          charge                     :                     0
          spin                       :                   0.0
          first test random number   :      0.27644698204363

   ID    Z sym.   atoms
    1    6 C      1-6, 12, 18, 21, 25, 28, 33, 36, 39, 43
    2    1 H      7-9, 11, 13-15, 17, 19, 20, 22, 24, 26, 27, 29-32, 34, 35,
                  37, 38, 40-42, 44-46
    3    7 N      10, 16
    4    8 O      23

molecular fragmentation (1/2 indicates fragments):
1111111111211122122211121112221111122222221111
# atoms in fragment 1/2:    29    17
 fragment masses (1/2) :      178.25       74.14
CMA distance (Bohr)    :   9.634
constraining FC (au)   :  0.0500
########################################################################
[WARNING] Please study the warnings concerning your input carefully
-1- prog_main_parseArguments: Process number higher than OMP_NUM_THREADS, I hope you know what you are doing.
########################################################################

           -------------------------------------------------
          |                 G F N 2 - x T B                 |
           -------------------------------------------------

        Reference                      10.1021/acs.jctc.8b01176
      * Hamiltonian:
        H0-scaling (s, p, d)           1.850000    2.230000    2.230000
        zeta-weighting                 0.500000
      * Dispersion:
        s8                             2.700000
        a1                             0.520000
        a2                             5.000000
        s9                             5.000000
      * Repulsion:
        kExp                           1.500000    1.000000
        rExp                           1.000000
      * Coulomb:
        alpha                          2.000000
        third order                    shell-resolved
        anisotropic                    true
        a3                             3.000000
        a5                             4.000000
        cn-shift                       1.200000
        cn-exp                         4.000000
        max-rad                        5.000000

      * Solvation model:               GBSA
        Solvent                        CH2Cl2
        Parameter file                 internal GFN2-xTB/GBSA
        Dielectric constant                8.9300E+00
        Reference state                gsolv [1 M gas/solution]
        Free energy shift                  4.4408E-03 Eh       2.7867E+00 kcal/mol
        Temperature                        2.9815E+02 K
        Density                            1.3300E+00 kg/L
        Solvent mass                       8.4930E+01 g/mol
        Interaction kernel             Still
        Born radius scaling (c1)           1.4917E+00
        Born radii integrator          GBOBC
        Born offset                        0.0000E+00 a0       0.0000E+00 AA
        H-bond correction              false
        Ion screening                  false
        Surface tension                    1.0000E-05 Eh       1.5569E+01 dyn/cm
        Grid points                               230 per atom

          ...................................................
          :                      SETUP                      :
          :.................................................:
          :  # basis functions                 100          :
          :  # atomic orbitals                 100          :
          :  # shells                           64          :
          :  # electrons                       104          :
          :  max. iterations                   250          :
          :  Hamiltonian                  GFN2-xTB          :
          :  restarted?                      false          :
          :  GBSA solvation                   true          :
          :  PC potential                    false          :
          :  electronic temp.          300.0000000     K    :
          :  accuracy                    1.0000000          :
          :  -> integral cutoff          0.2500000E+02      :
          :  -> integral neglect         0.1000000E-07      :
          :  -> SCF convergence          0.1000000E-05 Eh   :
          :  -> wf. convergence          0.1000000E-03 e    :
          :  Broyden damping             0.4000000          :
          ...................................................

 iter      E             dE          RMSdq      gap      omega  full diag
   1    -56.9349856 -0.569350E+02  0.365E+00    3.21       0.0  T
   2    -57.0522479 -0.117262E+00  0.200E+00    2.96       1.0  T
   3    -57.0534293 -0.118142E-02  0.855E-01    2.73       1.0  T
   4    -57.0529771  0.452253E-03  0.322E-01    2.82       1.0  T
   5    -57.0574176 -0.444056E-02  0.704E-02    2.80       1.0  T
   6    -57.0574347 -0.170869E-04  0.344E-02    2.81       1.0  T
   7    -57.0574412 -0.652538E-05  0.136E-02    2.81       1.1  T
   8    -57.0574442 -0.297548E-05  0.445E-03    2.81       3.3  T
   9    -57.0574443 -0.149964E-06  0.240E-03    2.81       6.1  T
  10    -57.0574444 -0.216931E-07  0.677E-04    2.81      21.8  T
  11    -57.0574444 -0.649764E-08  0.332E-04    2.81      44.4  T

   *** convergence criteria satisfied after 11 iterations ***

         #    Occupation            Energy/Eh            Energy/eV
      -------------------------------------------------------------
         1        2.0000           -0.6792504             -18.4833
       ...           ...                  ...                  ...
        46        2.0000           -0.4208128             -11.4509
        47        2.0000           -0.4196060             -11.4181
        48        2.0000           -0.4076967             -11.0940
        49        2.0000           -0.3987847             -10.8515
        50        2.0000           -0.3941612             -10.7257
        51        2.0000           -0.3673974              -9.9974
        52        2.0000           -0.3429504              -9.3322 (HOMO)
        53                         -0.2397440              -6.5238 (LUMO)
        54                         -0.2283245              -6.2130
        55                         -0.1553299              -4.2267
        56                         -0.0852222              -2.3190
        57                         -0.0481793              -1.3110
       ...                                ...                  ...
       100                          0.6443212              17.5329
      -------------------------------------------------------------
                  HL-Gap            0.1032064 Eh            2.8084 eV
             Fermi-level           -0.2913472 Eh           -7.9280 eV

 SCC (total)                   0 d,  0 h,  0 min,  0.228 sec
 SCC setup                      ...        0 min,  0.005 sec (  2.361%)
 Dispersion                     ...        0 min,  0.005 sec (  2.307%)
 classical contributions        ...        0 min,  0.004 sec (  1.917%)
 integral evaluation            ...        0 min,  0.028 sec ( 12.190%)
 iterations                     ...        0 min,  0.098 sec ( 42.979%)
 molecular gradient             ...        0 min,  0.086 sec ( 37.840%)
 printout                       ...        0 min,  0.001 sec (  0.395%)

         :::::::::::::::::::::::::::::::::::::::::::::::::::::
         ::                     SUMMARY                     ::
         :::::::::::::::::::::::::::::::::::::::::::::::::::::
         :: total energy             -56.260537445602 Eh    ::
         :: total w/o Gsasa/hb       -56.237405359090 Eh    ::
         :: gradient norm              0.039422454739 Eh/a0 ::
         :: HOMO-LUMO gap              2.808388706645 eV    ::
         ::.................................................::
         :: SCC energy               -57.057444374858 Eh    ::
         :: -> isotropic ES            0.104074579244 Eh    ::
         :: -> anisotropic ES         -0.003559337744 Eh    ::
         :: -> anisotropic XC          0.034887216378 Eh    ::
         :: -> dispersion             -0.037802171288 Eh    ::
         :: -> Gsolv                  -0.038845739647 Eh    ::
         ::    -> Gborn               -0.015713653136 Eh    ::
         ::    -> Gsasa               -0.027572915685 Eh    ::
         ::    -> Ghb                  0.000000000000 Eh    ::
         ::    -> Gshift               0.004440829173 Eh    ::
         :: repulsion energy           0.796701598102 Eh    ::
         :: add. restraining           0.000000000000 Eh    ::
         :: total charge              -0.000000000000 e     ::
         :::::::::::::::::::::::::::::::::::::::::::::::::::::

           -------------------------------------------------
          |                Property Printout                |
           -------------------------------------------------

    * Orbital Energies and Occupations

         #    Occupation            Energy/Eh            Energy/eV
      -------------------------------------------------------------
         1        2.0000           -0.6792504             -18.4833
       ...           ...                  ...                  ...
        40        2.0000           -0.4429216             -12.0525
        41        2.0000           -0.4415302             -12.0146
        42        2.0000           -0.4394999             -11.9594
        43        2.0000           -0.4337143             -11.8020
        44        2.0000           -0.4295140             -11.6877
        45        2.0000           -0.4262500             -11.5989
        46        2.0000           -0.4208128             -11.4509
        47        2.0000           -0.4196060             -11.4181
        48        2.0000           -0.4076967             -11.0940
        49        2.0000           -0.3987847             -10.8515
        50        2.0000           -0.3941612             -10.7257
        51        2.0000           -0.3673974              -9.9974
        52        2.0000           -0.3429504              -9.3322 (HOMO)
        53                         -0.2397440              -6.5238 (LUMO)
        54                         -0.2283245              -6.2130
        55                         -0.1553299              -4.2267
        56                         -0.0852222              -2.3190
        57                         -0.0481793              -1.3110
        58                          0.0369571               1.0057
        59                          0.0557388               1.5167
        60                          0.0818113               2.2262
        61                          0.0884306               2.4063
        62                          0.0993438               2.7033
        63                          0.1064255               2.8960
       ...                                ...                  ...
       100                          0.6443212              17.5329
      -------------------------------------------------------------
                  HL-Gap            0.1032064 Eh            2.8084 eV
             Fermi-level           -0.2913472 Eh           -7.9280 eV

     #   Z          covCN         q      C6AA      α(0)
     1   6 C        2.914    -0.033    28.811     8.802
     2   6 C        2.921    -0.036    28.908     8.817
     3   6 C        2.966     0.000    28.024     8.683
     4   6 C        2.919    -0.043    29.071     8.842
     5   6 C        2.914    -0.032    28.808     8.801
     6   6 C        2.915    -0.033    28.823     8.804
     7   1 H        0.925     0.022     2.700     2.569
     8   1 H        0.926     0.044     2.398     2.421
     9   1 H        0.925     0.041     2.441     2.443
    10   7 N        2.002    -0.406    31.452     8.318
    11   1 H        0.858     0.253     0.870     1.462
    12   6 C        3.759     0.034    20.048     6.383
    13   1 H        0.923    -0.004     3.125     2.764
    14   1 H        0.923    -0.011     3.263     2.825
    15   1 H        0.995     0.269     0.806     1.403
    16   7 N        3.441    -0.219    25.755     7.537
    17   1 H        0.805     0.221     1.015     1.583
    18   6 C        3.732    -0.009    20.828     6.514
    19   1 H        0.924     0.075     2.033     2.230
    20   1 H        0.924     0.070     2.080     2.256
    21   6 C        3.288     0.145    23.443     7.775
    22   1 H        0.924    -0.010     3.241     2.815
    23   8 O        1.247    -0.701    28.387     7.159
    24   1 H        0.860     0.212     1.049     1.604
    25   6 C        3.802    -0.067    21.781     6.644
    26   1 H        0.924     0.035     2.519     2.482
    27   1 H        0.924     0.033     2.538     2.491
    28   6 C        3.801    -0.072    21.875     6.659
    29   1 H        0.924     0.052     2.291     2.367
    30   1 H        0.924     0.047     2.358     2.401
    31   1 H        0.925     0.036     2.506     2.476
    32   1 H        0.925     0.044     2.401     2.423
    33   6 C        3.800    -0.052    21.508     6.603
    34   1 H        0.924     0.028     2.616     2.529
    35   1 H        0.924     0.025     2.663     2.552
    36   6 C        3.799    -0.056    21.583     6.615
    37   1 H        0.924     0.043     2.412     2.429
    38   1 H        0.924     0.038     2.475     2.460
    39   6 C        3.749    -0.105    22.579     6.777
    40   1 H        0.924     0.040     2.446     2.446
    41   1 H        0.924     0.040     2.450     2.448
    42   1 H        0.924     0.037     2.493     2.469
    43   6 C        3.749    -0.103    22.527     6.769
    44   1 H        0.924     0.036     2.499     2.472
    45   1 H        0.924     0.035     2.518     2.482
    46   1 H        0.924     0.038     2.476     2.461

 Mol. C6AA /au·bohr⁶  :      17421.393292
 Mol. C8AA /au·bohr⁸  :     382049.615023
 Mol. α(0) /au        :        202.265517


Wiberg/Mayer (AO) data.
largest (>0.10) Wiberg bond orders for each atom

 ---------------------------------------------------------------------------
     #   Z sym  total        # sym  WBO       # sym  WBO       # sym  WBO
 ---------------------------------------------------------------------------
     1   6 C    3.991 --     2 C    1.451     6 C    1.434    31 H    0.971
                             4 C    0.109
     2   6 C    3.992 --     1 C    1.451     3 C    1.398     7 H    0.969
                             5 C    0.109
     3   6 C    3.987 --     4 C    1.399     2 C    1.398    21 C    1.022
                             6 C    0.108
     4   6 C    3.990 --     5 C    1.449     3 C    1.399     8 H    0.966
                             1 C    0.109
     5   6 C    3.991 --     4 C    1.449     6 C    1.436    32 H    0.970
                             2 C    0.109
     6   6 C    3.990 --     5 C    1.436     1 C    1.434     9 H    0.971
                             3 C    0.108
     7   1 H    0.999 --     2 C    0.969
     8   1 H    0.998 --     4 C    0.966
     9   1 H    0.998 --     6 C    0.971
    10   7 N    3.034 --    21 C    1.394    12 C    1.015    15 H    0.273
                            23 O    0.150
    11   1 H    0.936 --    16 N    0.851
    12   6 C    3.991 --    10 N    1.015    25 C    1.003    14 H    0.966
                            13 H    0.964
    13   1 H    1.000 --    12 C    0.964
    14   1 H    1.000 --    12 C    0.966
    15   1 H    0.928 --    16 N    0.621    10 N    0.273
    16   7 N    3.570 --    18 C    0.975    24 H    0.939    11 H    0.851
                            15 H    0.621
    17   1 H    0.951 --    23 O    0.940
    18   6 C    3.945 --    28 C    1.006    16 N    0.975    19 H    0.971
                            20 H    0.970
    19   1 H    0.994 --    18 C    0.971
    20   1 H    0.995 --    18 C    0.970
    21   6 C    3.956 --    10 N    1.394     3 C    1.022    22 H    0.950
                            23 O    0.512
    22   1 H    1.000 --    21 C    0.950
    23   8 O    1.772 --    17 H    0.940    21 C    0.512    10 N    0.150
    24   1 H    0.955 --    16 N    0.939
    25   6 C    3.996 --    33 C    1.008    12 C    1.003    27 H    0.977
                            26 H    0.976
    26   1 H    0.999 --    25 C    0.976
    27   1 H    0.999 --    25 C    0.977
    28   6 C    3.991 --    18 C    1.006    36 C    1.005    30 H    0.975
                            29 H    0.974
    29   1 H    0.997 --    28 C    0.974
    30   1 H    0.998 --    28 C    0.975
    31   1 H    0.998 --     1 C    0.971
    32   1 H    0.998 --     5 C    0.970
    33   6 C    3.997 --    43 C    1.019    25 C    1.008    35 H    0.978
                            34 H    0.978
    34   1 H    0.999 --    33 C    0.978
    35   1 H    0.999 --    33 C    0.978
    36   6 C    3.995 --    39 C    1.020    28 C    1.005    38 H    0.977
                            37 H    0.977
    37   1 H    0.998 --    36 C    0.977
    38   1 H    0.999 --    36 C    0.977
    39   6 C    3.995 --    36 C    1.020    42 H    0.987    41 H    0.987
                            40 H    0.987
    40   1 H    0.998 --    39 C    0.987
    41   1 H    0.998 --    39 C    0.987
    42   1 H    0.999 --    39 C    0.987
    43   6 C    3.996 --    33 C    1.019    45 H    0.988    46 H    0.988
                            44 H    0.987
    44   1 H    0.998 --    43 C    0.987
    45   1 H    0.999 --    43 C    0.988
    46   1 H    0.999 --    43 C    0.988
 ---------------------------------------------------------------------------

Topologies differ in total number of bonds
Writing topology from bond orders to xtbtopo.mol

molecular dipole:
                 x           y           z       tot (Debye)
 q only:       -0.093      -2.261      -2.015
   full:        0.177      -2.045      -1.349       6.242
molecular quadrupole (traceless):
                xx          xy          yy          xz          yz          zz
 q only:        1.635      12.462       8.244       7.904       7.936      -9.879
  q+dip:        0.430       9.631       4.394       5.589      10.946      -4.825
   full:        0.022       9.681       6.885       6.111       9.347      -6.908


           -------------------------------------------------
          | TOTAL ENERGY              -56.260537445602 Eh   |
          | GRADIENT NORM               0.039422454739 Eh/α |
          | HOMO-LUMO GAP               2.808388706645 eV   |
           -------------------------------------------------

------------------------------------------------------------------------
 * finished run on 2020/09/08 at 13:44:36.045     
------------------------------------------------------------------------
 total:
 * wall-time:     0 d,  0 h,  0 min,  0.273 sec
 *  cpu-time:     0 d,  0 h,  0 min,  2.992 sec
 * ratio c/w:    10.959 speedup
 SCF:
 * wall-time:     0 d,  0 h,  0 min,  0.230 sec
 *  cpu-time:     0 d,  0 h,  0 min,  2.539 sec
 * ratio c/w:    11.027 speedup


-------------------------   --------------------
FINAL SINGLE POINT ENERGY       -56.260537445600
-------------------------   --------------------


----------------------------------------------------------------------------
                           ORCA NUMERICAL FREQUENCIES
                              (9-process run)
----------------------------------------------------------------------------

Number of atoms                ... 46
Central differences            ... used
Number of displacements        ... 276
Numerical increment            ... 5.000e-03 bohr
IR-spectrum generation         ... on
Raman-spectrum generation      ... off
Surface Crossing Hessian       ... off
List of participating nodes    ...  /tmp/slurm-scratch/freq.517/freq.hostnames

The output will be reduced. Please look at the following files:
SCF program output             ... >/tmp/slurm-scratch/freq.517/freq.lastscf
Integral program output        ... >/tmp/slurm-scratch/freq.517/freq.lastint
Gradient program output        ... >/tmp/slurm-scratch/freq.517/freq.lastgrad
Dipole moment program output   ... >/tmp/slurm-scratch/freq.517/freq.lastmom
AutoCI program output          ... >/tmp/slurm-scratch/freq.517/freq.lastautoci


         <<< Energy and Gradient at the input geometry >>>

        <<< Energy and Gradient at displaced geometries >>>
             <<<Displacing   1/coordinate 3 (+)>>>
             <<<Displacing   2/coordinate 1 (+)>>>
             <<<Displacing   3/coordinate 1 (+)>>>
             <<<Displacing   2/coordinate 1 (-)>>>
             <<<Displacing   2/coordinate 2 (+)>>>
             <<<Displacing   3/coordinate 3 (+)>>>
             <<<Displacing   1/coordinate 3 (-)>>>
             <<<Displacing   3/coordinate 2 (+)>>>
             <<<Displacing   1/coordinate 1 (+)>>>
             <<<Displacing   3/coordinate 1 (-)>>>
             <<<Displacing   1/coordinate 2 (+)>>>
             <<<Displacing   2/coordinate 2 (-)>>>
             <<<Displacing   3/coordinate 3 (-)>>>
             <<<Displacing   3/coordinate 2 (-)>>>
             <<<Displacing   1/coordinate 1 (-)>>>
             <<<Displacing   2/coordinate 3 (+)>>>
             <<<Displacing   1/coordinate 2 (-)>>>
             <<<Displacing   2/coordinate 3 (-)>>>
             <<<Displacing   4/coordinate 1 (+)>>>
             <<<Displacing   4/coordinate 2 (+)>>>
             <<<Displacing   5/coordinate 3 (+)>>>
             <<<Displacing   4/coordinate 2 (-)>>>
             <<<Displacing   4/coordinate 1 (-)>>>
             <<<Displacing   5/coordinate 3 (-)>>>
             <<<Displacing   6/coordinate 1 (+)>>>
             <<<Displacing   6/coordinate 2 (+)>>>
             <<<Displacing   5/coordinate 1 (+)>>>
             <<<Displacing   5/coordinate 2 (+)>>>
             <<<Displacing   4/coordinate 3 (+)>>>
             <<<Displacing   6/coordinate 3 (+)>>>
             <<<Displacing   5/coordinate 1 (-)>>>
             <<<Displacing   6/coordinate 1 (-)>>>
             <<<Displacing   5/coordinate 2 (-)>>>
             <<<Displacing   6/coordinate 2 (-)>>>
             <<<Displacing   4/coordinate 3 (-)>>>
             <<<Displacing   6/coordinate 3 (-)>>>
             <<<Displacing   7/coordinate 2 (+)>>>
             <<<Displacing   7/coordinate 1 (+)>>>
             <<<Displacing   8/coordinate 1 (+)>>>
             <<<Displacing   7/coordinate 3 (+)>>>
             <<<Displacing   8/coordinate 2 (+)>>>
             <<<Displacing   7/coordinate 2 (-)>>>
             <<<Displacing   8/coordinate 1 (-)>>>
             <<<Displacing   7/coordinate 1 (-)>>>
             <<<Displacing   7/coordinate 3 (-)>>>
             <<<Displacing   8/coordinate 2 (-)>>>
             <<<Displacing   9/coordinate 1 (+)>>>
             <<<Displacing   8/coordinate 3 (+)>>>
             <<<Displacing   9/coordinate 3 (+)>>>
             <<<Displacing   9/coordinate 1 (-)>>>
             <<<Displacing   9/coordinate 2 (+)>>>
             <<<Displacing   8/coordinate 3 (-)>>>
             <<<Displacing   9/coordinate 3 (-)>>>
             <<<Displacing   9/coordinate 2 (-)>>>
             <<<Displacing  10/coordinate 2 (+)>>>
             <<<Displacing  10/coordinate 3 (+)>>>
             <<<Displacing  11/coordinate 2 (+)>>>
             <<<Displacing  11/coordinate 1 (+)>>>
             <<<Displacing  10/coordinate 2 (-)>>>
             <<<Displacing  10/coordinate 1 (+)>>>
             <<<Displacing  10/coordinate 3 (-)>>>
             <<<Displacing  11/coordinate 1 (-)>>>
             <<<Displacing  11/coordinate 2 (-)>>>
             <<<Displacing  10/coordinate 1 (-)>>>
             <<<Displacing  12/coordinate 1 (+)>>>
             <<<Displacing  11/coordinate 3 (+)>>>
             <<<Displacing  12/coordinate 1 (-)>>>
             <<<Displacing  12/coordinate 3 (+)>>>
             <<<Displacing  12/coordinate 2 (+)>>>
             <<<Displacing  11/coordinate 3 (-)>>>
             <<<Displacing  12/coordinate 2 (-)>>>
             <<<Displacing  12/coordinate 3 (-)>>>
             <<<Displacing  13/coordinate 3 (+)>>>
             <<<Displacing  13/coordinate 1 (+)>>>
             <<<Displacing  14/coordinate 1 (+)>>>
             <<<Displacing  13/coordinate 2 (+)>>>
             <<<Displacing  13/coordinate 3 (-)>>>
             <<<Displacing  13/coordinate 1 (-)>>>
             <<<Displacing  14/coordinate 1 (-)>>>
             <<<Displacing  13/coordinate 2 (-)>>>
             <<<Displacing  14/coordinate 2 (+)>>>
             <<<Displacing  15/coordinate 3 (+)>>>
             <<<Displacing  15/coordinate 1 (+)>>>
             <<<Displacing  14/coordinate 2 (-)>>>
             <<<Displacing  15/coordinate 2 (+)>>>
             <<<Displacing  15/coordinate 3 (-)>>>
             <<<Displacing  15/coordinate 1 (-)>>>
             <<<Displacing  15/coordinate 2 (-)>>>
             <<<Displacing  14/coordinate 3 (+)>>>
             <<<Displacing  14/coordinate 3 (-)>>>
             <<<Displacing  16/coordinate 1 (+)>>>
             <<<Displacing  16/coordinate 2 (+)>>>
             <<<Displacing  16/coordinate 3 (+)>>>
             <<<Displacing  16/coordinate 1 (-)>>>
             <<<Displacing  16/coordinate 3 (-)>>>
             <<<Displacing  16/coordinate 2 (-)>>>
             <<<Displacing  17/coordinate 2 (+)>>>
             <<<Displacing  17/coordinate 2 (-)>>>
             <<<Displacing  18/coordinate 1 (+)>>>
             <<<Displacing  17/coordinate 1 (+)>>>
             <<<Displacing  17/coordinate 3 (+)>>>
             <<<Displacing  17/coordinate 1 (-)>>>
             <<<Displacing  17/coordinate 3 (-)>>>
             <<<Displacing  18/coordinate 1 (-)>>>
             <<<Displacing  18/coordinate 2 (+)>>>
             <<<Displacing  18/coordinate 2 (-)>>>
             <<<Displacing  18/coordinate 3 (+)>>>
             <<<Displacing  18/coordinate 3 (-)>>>
             <<<Displacing  19/coordinate 1 (+)>>>
             <<<Displacing  19/coordinate 3 (+)>>>
             <<<Displacing  19/coordinate 1 (-)>>>
             <<<Displacing  19/coordinate 3 (-)>>>
             <<<Displacing  19/coordinate 2 (+)>>>
             <<<Displacing  19/coordinate 2 (-)>>>
             <<<Displacing  20/coordinate 1 (+)>>>
             <<<Displacing  20/coordinate 2 (+)>>>
             <<<Displacing  21/coordinate 1 (+)>>>
             <<<Displacing  20/coordinate 1 (-)>>>
             <<<Displacing  21/coordinate 2 (+)>>>
             <<<Displacing  20/coordinate 2 (-)>>>
             <<<Displacing  21/coordinate 1 (-)>>>
             <<<Displacing  21/coordinate 2 (-)>>>
             <<<Displacing  20/coordinate 3 (+)>>>
             <<<Displacing  20/coordinate 3 (-)>>>
             <<<Displacing  21/coordinate 3 (+)>>>
             <<<Displacing  21/coordinate 3 (-)>>>
             <<<Displacing  22/coordinate 1 (+)>>>
             <<<Displacing  22/coordinate 2 (+)>>>
             <<<Displacing  22/coordinate 2 (-)>>>
             <<<Displacing  23/coordinate 1 (+)>>>
             <<<Displacing  22/coordinate 3 (+)>>>
             <<<Displacing  22/coordinate 1 (-)>>>
             <<<Displacing  24/coordinate 1 (+)>>>
             <<<Displacing  23/coordinate 1 (-)>>>
             <<<Displacing  23/coordinate 3 (+)>>>
             <<<Displacing  24/coordinate 1 (-)>>>
             <<<Displacing  22/coordinate 3 (-)>>>
             <<<Displacing  23/coordinate 3 (-)>>>
             <<<Displacing  23/coordinate 2 (+)>>>
             <<<Displacing  23/coordinate 2 (-)>>>
             <<<Displacing  24/coordinate 2 (+)>>>
             <<<Displacing  24/coordinate 3 (+)>>>
             <<<Displacing  24/coordinate 2 (-)>>>
             <<<Displacing  24/coordinate 3 (-)>>>
             <<<Displacing  25/coordinate 1 (+)>>>
             <<<Displacing  25/coordinate 3 (+)>>>
             <<<Displacing  25/coordinate 2 (+)>>>
             <<<Displacing  26/coordinate 1 (+)>>>
             <<<Displacing  25/coordinate 1 (-)>>>
             <<<Displacing  25/coordinate 3 (-)>>>
             <<<Displacing  25/coordinate 2 (-)>>>
             <<<Displacing  26/coordinate 2 (+)>>>
             <<<Displacing  26/coordinate 1 (-)>>>
             <<<Displacing  26/coordinate 2 (-)>>>
             <<<Displacing  26/coordinate 3 (+)>>>
             <<<Displacing  27/coordinate 1 (+)>>>
             <<<Displacing  26/coordinate 3 (-)>>>
             <<<Displacing  27/coordinate 1 (-)>>>
             <<<Displacing  27/coordinate 3 (+)>>>
             <<<Displacing  27/coordinate 2 (+)>>>
             <<<Displacing  27/coordinate 3 (-)>>>
             <<<Displacing  27/coordinate 2 (-)>>>
             <<<Displacing  28/coordinate 1 (+)>>>
             <<<Displacing  28/coordinate 1 (-)>>>
             <<<Displacing  29/coordinate 2 (+)>>>
             <<<Displacing  29/coordinate 1 (+)>>>
             <<<Displacing  29/coordinate 2 (-)>>>
             <<<Displacing  28/coordinate 2 (+)>>>
             <<<Displacing  28/coordinate 3 (+)>>>
             <<<Displacing  29/coordinate 1 (-)>>>
             <<<Displacing  28/coordinate 2 (-)>>>
             <<<Displacing  28/coordinate 3 (-)>>>
             <<<Displacing  29/coordinate 3 (+)>>>
             <<<Displacing  29/coordinate 3 (-)>>>
             <<<Displacing  30/coordinate 1 (+)>>>
             <<<Displacing  30/coordinate 2 (+)>>>
             <<<Displacing  30/coordinate 1 (-)>>>
             <<<Displacing  30/coordinate 2 (-)>>>
             <<<Displacing  30/coordinate 3 (+)>>>
             <<<Displacing  30/coordinate 3 (-)>>>
             <<<Displacing  31/coordinate 1 (+)>>>
             <<<Displacing  31/coordinate 2 (+)>>>
             <<<Displacing  31/coordinate 1 (-)>>>
             <<<Displacing  31/coordinate 2 (-)>>>
             <<<Displacing  32/coordinate 1 (+)>>>
             <<<Displacing  31/coordinate 3 (+)>>>
             <<<Displacing  32/coordinate 1 (-)>>>
             <<<Displacing  31/coordinate 3 (-)>>>
             <<<Displacing  32/coordinate 2 (+)>>>
             <<<Displacing  32/coordinate 2 (-)>>>
             <<<Displacing  32/coordinate 3 (+)>>>
             <<<Displacing  32/coordinate 3 (-)>>>
             <<<Displacing  33/coordinate 2 (+)>>>
             <<<Displacing  33/coordinate 1 (+)>>>
             <<<Displacing  33/coordinate 1 (-)>>>
             <<<Displacing  33/coordinate 2 (-)>>>
             <<<Displacing  33/coordinate 3 (+)>>>
             <<<Displacing  33/coordinate 3 (-)>>>
             <<<Displacing  34/coordinate 3 (+)>>>
             <<<Displacing  34/coordinate 1 (+)>>>
             <<<Displacing  34/coordinate 2 (+)>>>
             <<<Displacing  34/coordinate 1 (-)>>>
             <<<Displacing  34/coordinate 3 (-)>>>
             <<<Displacing  35/coordinate 1 (+)>>>
             <<<Displacing  35/coordinate 2 (+)>>>
             <<<Displacing  34/coordinate 2 (-)>>>
             <<<Displacing  35/coordinate 1 (-)>>>
             <<<Displacing  35/coordinate 2 (-)>>>
             <<<Displacing  35/coordinate 3 (+)>>>
             <<<Displacing  35/coordinate 3 (-)>>>
             <<<Displacing  36/coordinate 2 (+)>>>
             <<<Displacing  36/coordinate 1 (+)>>>
             <<<Displacing  36/coordinate 2 (-)>>>
             <<<Displacing  36/coordinate 1 (-)>>>
             <<<Displacing  36/coordinate 3 (+)>>>
             <<<Displacing  36/coordinate 3 (-)>>>
             <<<Displacing  37/coordinate 3 (+)>>>
             <<<Displacing  37/coordinate 2 (+)>>>
             <<<Displacing  38/coordinate 1 (+)>>>
             <<<Displacing  37/coordinate 3 (-)>>>
             <<<Displacing  37/coordinate 2 (-)>>>
             <<<Displacing  37/coordinate 1 (+)>>>
             <<<Displacing  38/coordinate 1 (-)>>>
             <<<Displacing  38/coordinate 2 (+)>>>
             <<<Displacing  37/coordinate 1 (-)>>>
             <<<Displacing  38/coordinate 2 (-)>>>
             <<<Displacing  38/coordinate 3 (+)>>>
             <<<Displacing  38/coordinate 3 (-)>>>
             <<<Displacing  39/coordinate 1 (+)>>>
             <<<Displacing  39/coordinate 2 (+)>>>
             <<<Displacing  39/coordinate 1 (-)>>>
             <<<Displacing  39/coordinate 3 (+)>>>
             <<<Displacing  39/coordinate 2 (-)>>>
             <<<Displacing  39/coordinate 3 (-)>>>
             <<<Displacing  40/coordinate 1 (+)>>>
             <<<Displacing  40/coordinate 3 (+)>>>
             <<<Displacing  40/coordinate 3 (-)>>>
             <<<Displacing  40/coordinate 1 (-)>>>
             <<<Displacing  40/coordinate 2 (+)>>>
             <<<Displacing  41/coordinate 1 (+)>>>
             <<<Displacing  41/coordinate 2 (+)>>>
             <<<Displacing  40/coordinate 2 (-)>>>
             <<<Displacing  41/coordinate 1 (-)>>>
             <<<Displacing  41/coordinate 2 (-)>>>
             <<<Displacing  41/coordinate 3 (+)>>>
             <<<Displacing  42/coordinate 1 (+)>>>
             <<<Displacing  41/coordinate 3 (-)>>>
             <<<Displacing  42/coordinate 1 (-)>>>
             <<<Displacing  42/coordinate 2 (+)>>>
             <<<Displacing  42/coordinate 3 (+)>>>
             <<<Displacing  42/coordinate 2 (-)>>>
             <<<Displacing  42/coordinate 3 (-)>>>
             <<<Displacing  43/coordinate 1 (+)>>>
             <<<Displacing  43/coordinate 1 (-)>>>
             <<<Displacing  43/coordinate 2 (+)>>>
             <<<Displacing  43/coordinate 3 (+)>>>
             <<<Displacing  43/coordinate 2 (-)>>>
             <<<Displacing  43/coordinate 3 (-)>>>
             <<<Displacing  44/coordinate 1 (+)>>>
             <<<Displacing  44/coordinate 2 (+)>>>
             <<<Displacing  44/coordinate 1 (-)>>>
             <<<Displacing  44/coordinate 2 (-)>>>
             <<<Displacing  44/coordinate 3 (+)>>>
             <<<Displacing  45/coordinate 2 (+)>>>
             <<<Displacing  45/coordinate 1 (+)>>>
             <<<Displacing  44/coordinate 3 (-)>>>
             <<<Displacing  45/coordinate 2 (-)>>>
             <<<Displacing  45/coordinate 1 (-)>>>
             <<<Displacing  45/coordinate 3 (+)>>>
             <<<Displacing  45/coordinate 3 (-)>>>
             <<<Displacing  46/coordinate 1 (+)>>>
             <<<Displacing  46/coordinate 1 (-)>>>
             <<<Displacing  46/coordinate 3 (+)>>>
             <<<Displacing  46/coordinate 3 (-)>>>
             <<<Displacing  46/coordinate 2 (+)>>>
             <<<Displacing  46/coordinate 2 (-)>>>

-----------------------
VIBRATIONAL FREQUENCIES
-----------------------

Scaling factor for frequencies =  1.000000000 (already applied!)

   0:         0.00 cm**-1
   1:         0.00 cm**-1
   2:         0.00 cm**-1
   3:         0.00 cm**-1
   4:         0.00 cm**-1
   5:         0.00 cm**-1
   6:      -701.64 cm**-1 ***imaginary mode***
   7:        26.74 cm**-1
   8:        44.54 cm**-1
   9:        54.49 cm**-1
  10:        65.90 cm**-1
  11:        70.63 cm**-1
  12:        82.71 cm**-1
  13:        89.45 cm**-1
  14:       103.96 cm**-1
  15:       113.37 cm**-1
  16:       123.67 cm**-1
  17:       139.85 cm**-1
  18:       147.39 cm**-1
  19:       167.45 cm**-1
  20:       180.89 cm**-1
  21:       208.45 cm**-1
  22:       236.20 cm**-1
  23:       253.40 cm**-1
  24:       267.38 cm**-1
  25:       284.40 cm**-1
  26:       289.62 cm**-1
  27:       297.54 cm**-1
  28:       345.92 cm**-1
  29:       377.60 cm**-1
  30:       385.01 cm**-1
  31:       394.89 cm**-1
  32:       419.76 cm**-1
  33:       427.00 cm**-1
  34:       457.41 cm**-1
  35:       488.37 cm**-1
  36:       538.70 cm**-1
  37:       557.63 cm**-1
  38:       591.05 cm**-1
  39:       630.57 cm**-1
  40:       677.35 cm**-1
  41:       756.03 cm**-1
  42:       764.31 cm**-1
  43:       769.13 cm**-1
  44:       785.14 cm**-1
  45:       822.55 cm**-1
  46:       831.28 cm**-1
  47:       840.46 cm**-1
  48:       879.78 cm**-1
  49:       885.40 cm**-1
  50:       909.75 cm**-1
  51:       926.03 cm**-1
  52:       934.03 cm**-1
  53:       935.74 cm**-1
  54:       945.34 cm**-1
  55:       946.40 cm**-1
  56:       948.32 cm**-1
  57:       983.60 cm**-1
  58:       996.63 cm**-1
  59:      1028.05 cm**-1
  60:      1052.02 cm**-1
  61:      1056.80 cm**-1
  62:      1068.68 cm**-1
  63:      1081.89 cm**-1
  64:      1087.47 cm**-1
  65:      1098.36 cm**-1
  66:      1108.86 cm**-1
  67:      1110.68 cm**-1
  68:      1112.69 cm**-1
  69:      1130.30 cm**-1
  70:      1134.79 cm**-1
  71:      1160.69 cm**-1
  72:      1176.56 cm**-1
  73:      1183.83 cm**-1
  74:      1198.32 cm**-1
  75:      1207.93 cm**-1
  76:      1214.30 cm**-1
  77:      1240.42 cm**-1
  78:      1258.10 cm**-1
  79:      1269.35 cm**-1
  80:      1272.02 cm**-1
  81:      1275.72 cm**-1
  82:      1276.48 cm**-1
  83:      1279.86 cm**-1
  84:      1284.40 cm**-1
  85:      1285.11 cm**-1
  86:      1307.49 cm**-1
  87:      1333.66 cm**-1
  88:      1341.85 cm**-1
  89:      1370.56 cm**-1
  90:      1375.31 cm**-1
  91:      1393.55 cm**-1
  92:      1409.41 cm**-1
  93:      1427.08 cm**-1
  94:      1432.19 cm**-1
  95:      1435.03 cm**-1
  96:      1461.09 cm**-1
  97:      1467.99 cm**-1
  98:      1479.10 cm**-1
  99:      1499.04 cm**-1
 100:      1503.69 cm**-1
 101:      1504.46 cm**-1
 102:      1507.50 cm**-1
 103:      1507.67 cm**-1
 104:      1507.93 cm**-1
 105:      1510.17 cm**-1
 106:      1511.07 cm**-1
 107:      1512.90 cm**-1
 108:      1549.90 cm**-1
 109:      1564.86 cm**-1
 110:      1574.00 cm**-1
 111:      2822.88 cm**-1
 112:      2870.77 cm**-1
 113:      2892.82 cm**-1
 114:      2917.85 cm**-1
 115:      2923.76 cm**-1
 116:      2929.43 cm**-1
 117:      2930.97 cm**-1
 118:      2941.27 cm**-1
 119:      2942.22 cm**-1
 120:      2947.23 cm**-1
 121:      2955.73 cm**-1
 122:      2958.65 cm**-1
 123:      2963.29 cm**-1
 124:      2964.31 cm**-1
 125:      2977.44 cm**-1
 126:      2983.58 cm**-1
 127:      2988.04 cm**-1
 128:      2988.83 cm**-1
 129:      2996.71 cm**-1
 130:      3001.93 cm**-1
 131:      3043.02 cm**-1
 132:      3051.07 cm**-1
 133:      3055.75 cm**-1
 134:      3066.97 cm**-1
 135:      3079.75 cm**-1
 136:      3387.93 cm**-1
 137:      3585.27 cm**-1


------------
NORMAL MODES
------------

These modes are the cartesian displacements weighted by the diagonal matrix
M(i,i)=1/sqrt(m[i]) where m[i] is the mass of the displaced atom
Thus, these vectors are normalized but *not* orthogonal

                  0          1          2          3          4          5    
      0       0.000000   0.000000   0.000000   0.000000   0.000000   0.000000
      1       0.000000   0.000000   0.000000   0.000000   0.000000   0.000000
      2       0.000000   0.000000   0.000000   0.000000   0.000000   0.000000
      3       0.000000   0.000000   0.000000   0.000000   0.000000   0.000000
      4       0.000000   0.000000   0.000000   0.000000   0.000000   0.000000
      5       0.000000   0.000000   0.000000   0.000000   0.000000   0.000000
      6       0.000000   0.000000   0.000000   0.000000   0.000000   0.000000
      7       0.000000   0.000000   0.000000   0.000000   0.000000   0.000000
      8       0.000000   0.000000   0.000000   0.000000   0.000000   0.000000
      9       0.000000   0.000000   0.000000   0.000000   0.000000   0.000000
     10       0.000000   0.000000   0.000000   0.000000   0.000000   0.000000
     11       0.000000   0.000000   0.000000   0.000000   0.000000   0.000000
     12       0.000000   0.000000   0.000000   0.000000   0.000000   0.000000
     13       0.000000   0.000000   0.000000   0.000000   0.000000   0.000000
     14       0.000000   0.000000   0.000000   0.000000   0.000000   0.000000
     15       0.000000   0.000000   0.000000   0.000000   0.000000   0.000000
     16       0.000000   0.000000   0.000000   0.000000   0.000000   0.000000
     17       0.000000   0.000000   0.000000   0.000000   0.000000   0.000000
     18       0.000000   0.000000   0.000000   0.000000   0.000000   0.000000
     19       0.000000   0.000000   0.000000   0.000000   0.000000   0.000000
     20       0.000000   0.000000   0.000000   0.000000   0.000000   0.000000
     21       0.000000   0.000000   0.000000   0.000000   0.000000   0.000000
     22       0.000000   0.000000   0.000000   0.000000   0.000000   0.000000
     23       0.000000   0.000000   0.000000   0.000000   0.000000   0.000000
     24       0.000000   0.000000   0.000000   0.000000   0.000000   0.000000
     25       0.000000   0.000000   0.000000   0.000000   0.000000   0.000000
     26       0.000000   0.000000   0.000000   0.000000   0.000000   0.000000
     27       0.000000   0.000000   0.000000   0.000000   0.000000   0.000000
     28       0.000000   0.000000   0.000000   0.000000   0.000000   0.000000
     29       0.000000   0.000000   0.000000   0.000000   0.000000   0.000000
     30       0.000000   0.000000   0.000000   0.000000   0.000000   0.000000
     31       0.000000   0.000000   0.000000   0.000000   0.000000   0.000000
     32       0.000000   0.000000   0.000000   0.000000   0.000000   0.000000
     33       0.000000   0.000000   0.000000   0.000000   0.000000   0.000000
     34       0.000000   0.000000   0.000000   0.000000   0.000000   0.000000
     35       0.000000   0.000000   0.000000   0.000000   0.000000   0.000000
     36       0.000000   0.000000   0.000000   0.000000   0.000000   0.000000
     37       0.000000   0.000000   0.000000   0.000000   0.000000   0.000000
     38       0.000000   0.000000   0.000000   0.000000   0.000000   0.000000
     39       0.000000   0.000000   0.000000   0.000000   0.000000   0.000000
     40       0.000000   0.000000   0.000000   0.000000   0.000000   0.000000
     41       0.000000   0.000000   0.000000   0.000000   0.000000   0.000000
     42       0.000000   0.000000   0.000000   0.000000   0.000000   0.000000
     43       0.000000   0.000000   0.000000   0.000000   0.000000   0.000000
     44       0.000000   0.000000   0.000000   0.000000   0.000000   0.000000
     45       0.000000   0.000000   0.000000   0.000000   0.000000   0.000000
     46       0.000000   0.000000   0.000000   0.000000   0.000000   0.000000
     47       0.000000   0.000000   0.000000   0.000000   0.000000   0.000000
     48       0.000000   0.000000   0.000000   0.000000   0.000000   0.000000
     49       0.000000   0.000000   0.000000   0.000000   0.000000   0.000000
     50       0.000000   0.000000   0.000000   0.000000   0.000000   0.000000
     51       0.000000   0.000000   0.000000   0.000000   0.000000   0.000000
     52       0.000000   0.000000   0.000000   0.000000   0.000000   0.000000
     53       0.000000   0.000000   0.000000   0.000000   0.000000   0.000000
     54       0.000000   0.000000   0.000000   0.000000   0.000000   0.000000
     55       0.000000   0.000000   0.000000   0.000000   0.000000   0.000000
     56       0.000000   0.000000   0.000000   0.000000   0.000000   0.000000
     57       0.000000   0.000000   0.000000   0.000000   0.000000   0.000000
     58       0.000000   0.000000   0.000000   0.000000   0.000000   0.000000
     59       0.000000   0.000000   0.000000   0.000000   0.000000   0.000000
     60       0.000000   0.000000   0.000000   0.000000   0.000000   0.000000
     61       0.000000   0.000000   0.000000   0.000000   0.000000   0.000000
     62       0.000000   0.000000   0.000000   0.000000   0.000000   0.000000
     63       0.000000   0.000000   0.000000   0.000000   0.000000   0.000000
     64       0.000000   0.000000   0.000000   0.000000   0.000000   0.000000
     65       0.000000   0.000000   0.000000   0.000000   0.000000   0.000000
     66       0.000000   0.000000   0.000000   0.000000   0.000000   0.000000
     67       0.000000   0.000000   0.000000   0.000000   0.000000   0.000000
     68       0.000000   0.000000   0.000000   0.000000   0.000000   0.000000
     69       0.000000   0.000000   0.000000   0.000000   0.000000   0.000000
     70       0.000000   0.000000   0.000000   0.000000   0.000000   0.000000
     71       0.000000   0.000000   0.000000   0.000000   0.000000   0.000000
     72       0.000000   0.000000   0.000000   0.000000   0.000000   0.000000
     73       0.000000   0.000000   0.000000   0.000000   0.000000   0.000000
     74       0.000000   0.000000   0.000000   0.000000   0.000000   0.000000
     75       0.000000   0.000000   0.000000   0.000000   0.000000   0.000000
     76       0.000000   0.000000   0.000000   0.000000   0.000000   0.000000
     77       0.000000   0.000000   0.000000   0.000000   0.000000   0.000000
     78       0.000000   0.000000   0.000000   0.000000   0.000000   0.000000
     79       0.000000   0.000000   0.000000   0.000000   0.000000   0.000000
     80       0.000000   0.000000   0.000000   0.000000   0.000000   0.000000
     81       0.000000   0.000000   0.000000   0.000000   0.000000   0.000000
     82       0.000000   0.000000   0.000000   0.000000   0.000000   0.000000
     83       0.000000   0.000000   0.000000   0.000000   0.000000   0.000000
     84       0.000000   0.000000   0.000000   0.000000   0.000000   0.000000
     85       0.000000   0.000000   0.000000   0.000000   0.000000   0.000000
     86       0.000000   0.000000   0.000000   0.000000   0.000000   0.000000
     87       0.000000   0.000000   0.000000   0.000000   0.000000   0.000000
     88       0.000000   0.000000   0.000000   0.000000   0.000000   0.000000
     89       0.000000   0.000000   0.000000   0.000000   0.000000   0.000000
     90       0.000000   0.000000   0.000000   0.000000   0.000000   0.000000
     91       0.000000   0.000000   0.000000   0.000000   0.000000   0.000000
     92       0.000000   0.000000   0.000000   0.000000   0.000000   0.000000
     93       0.000000   0.000000   0.000000   0.000000   0.000000   0.000000
     94       0.000000   0.000000   0.000000   0.000000   0.000000   0.000000
     95       0.000000   0.000000   0.000000   0.000000   0.000000   0.000000
     96       0.000000   0.000000   0.000000   0.000000   0.000000   0.000000
     97       0.000000   0.000000   0.000000   0.000000   0.000000   0.000000
     98       0.000000   0.000000   0.000000   0.000000   0.000000   0.000000
     99       0.000000   0.000000   0.000000   0.000000   0.000000   0.000000
    100       0.000000   0.000000   0.000000   0.000000   0.000000   0.000000
    101       0.000000   0.000000   0.000000   0.000000   0.000000   0.000000
    102       0.000000   0.000000   0.000000   0.000000   0.000000   0.000000
    103       0.000000   0.000000   0.000000   0.000000   0.000000   0.000000
    104       0.000000   0.000000   0.000000   0.000000   0.000000   0.000000
    105       0.000000   0.000000   0.000000   0.000000   0.000000   0.000000
    106       0.000000   0.000000   0.000000   0.000000   0.000000   0.000000
    107       0.000000   0.000000   0.000000   0.000000   0.000000   0.000000
    108       0.000000   0.000000   0.000000   0.000000   0.000000   0.000000
    109       0.000000   0.000000   0.000000   0.000000   0.000000   0.000000
    110       0.000000   0.000000   0.000000   0.000000   0.000000   0.000000
    111       0.000000   0.000000   0.000000   0.000000   0.000000   0.000000
    112       0.000000   0.000000   0.000000   0.000000   0.000000   0.000000
    113       0.000000   0.000000   0.000000   0.000000   0.000000   0.000000
    114       0.000000   0.000000   0.000000   0.000000   0.000000   0.000000
    115       0.000000   0.000000   0.000000   0.000000   0.000000   0.000000
    116       0.000000   0.000000   0.000000   0.000000   0.000000   0.000000
    117       0.000000   0.000000   0.000000   0.000000   0.000000   0.000000
    118       0.000000   0.000000   0.000000   0.000000   0.000000   0.000000
    119       0.000000   0.000000   0.000000   0.000000   0.000000   0.000000
    120       0.000000   0.000000   0.000000   0.000000   0.000000   0.000000
    121       0.000000   0.000000   0.000000   0.000000   0.000000   0.000000
    122       0.000000   0.000000   0.000000   0.000000   0.000000   0.000000
    123       0.000000   0.000000   0.000000   0.000000   0.000000   0.000000
    124       0.000000   0.000000   0.000000   0.000000   0.000000   0.000000
    125       0.000000   0.000000   0.000000   0.000000   0.000000   0.000000
    126       0.000000   0.000000   0.000000   0.000000   0.000000   0.000000
    127       0.000000   0.000000   0.000000   0.000000   0.000000   0.000000
    128       0.000000   0.000000   0.000000   0.000000   0.000000   0.000000
    129       0.000000   0.000000   0.000000   0.000000   0.000000   0.000000
    130       0.000000   0.000000   0.000000   0.000000   0.000000   0.000000
    131       0.000000   0.000000   0.000000   0.000000   0.000000   0.000000
    132       0.000000   0.000000   0.000000   0.000000   0.000000   0.000000
    133       0.000000   0.000000   0.000000   0.000000   0.000000   0.000000
    134       0.000000   0.000000   0.000000   0.000000   0.000000   0.000000
    135       0.000000   0.000000   0.000000   0.000000   0.000000   0.000000
    136       0.000000   0.000000   0.000000   0.000000   0.000000   0.000000
    137       0.000000   0.000000   0.000000   0.000000   0.000000   0.000000
                  6          7          8          9         10         11    
      0       0.004144  -0.042386  -0.001114  -0.021860  -0.010231   0.006051
      1       0.002191  -0.024097   0.179517  -0.041623   0.067991  -0.113302
      2       0.000404  -0.017409   0.000984   0.077049   0.038497  -0.011944
      3       0.006057  -0.040656  -0.000897  -0.033630  -0.020123   0.019071
      4      -0.000577  -0.024607   0.081559  -0.045672   0.051254  -0.148381
      5       0.003114  -0.011268   0.004630   0.034098   0.002556   0.036445
      6       0.010901  -0.044745   0.017492  -0.005502   0.009298  -0.013459
      7      -0.009089  -0.023808   0.014482  -0.021686  -0.000948  -0.023924
      8       0.004852  -0.006884   0.005300  -0.004502  -0.014243   0.034714
      9      -0.002426  -0.051026   0.032938   0.035381   0.049705  -0.062588
     10       0.001428  -0.020839   0.052972   0.007103  -0.038478   0.137426
     11       0.000719  -0.009246   0.001928   0.001457   0.005469  -0.013014
     12      -0.000609  -0.052678   0.033056   0.047522   0.060120  -0.076072
     13       0.002328  -0.020755   0.152463   0.009753  -0.020113   0.170529
     14       0.000598  -0.015351  -0.002096   0.044562   0.041164  -0.061687
     15       0.000174  -0.048394   0.016191   0.018782   0.030108  -0.042156
     16       0.000452  -0.022723   0.214906  -0.015221   0.033307   0.046737
     17      -0.000033  -0.019341  -0.002312   0.082116   0.057313  -0.061349
     18       0.009175  -0.035832  -0.015194  -0.065609  -0.052167   0.056555
     19      -0.004502  -0.025561   0.054396  -0.068565   0.078897  -0.270933
     20       0.003545  -0.009767   0.007023   0.030688  -0.012187   0.074051
     21       0.000666  -0.054526   0.042167   0.059823   0.073731  -0.093261
     22      -0.017181  -0.018135  -0.000524   0.025767  -0.082142   0.233637
     23       0.004147  -0.006232   0.004930  -0.028392  -0.009200  -0.004128
     24      -0.000588  -0.049692   0.016068   0.027918   0.037640  -0.052128
     25      -0.003808  -0.022760   0.289230  -0.014098   0.046903   0.074813
     26      -0.001356  -0.023962  -0.005043   0.114907   0.083915  -0.098046
     27      -0.008012  -0.045728   0.021076  -0.005390   0.004271  -0.002874
     28      -0.097272  -0.033122  -0.099943   0.003837  -0.008208  -0.008532
     29      -0.013750   0.002705   0.002711  -0.054398  -0.047731   0.054628
     30       0.020679   0.000406   0.032377   0.025084  -0.012820   0.014397
     31      -0.239046  -0.018136  -0.130457   0.007697  -0.017394  -0.012461
     32      -0.168044   0.005239  -0.031247  -0.175761  -0.042838  -0.017908
     33      -0.008232  -0.046374   0.013386  -0.009523   0.014900  -0.002867
     34      -0.024452  -0.026625  -0.130709  -0.043571   0.028631   0.016767
     35      -0.006625  -0.006534  -0.003108  -0.031642  -0.032033   0.034334
     36      -0.049351  -0.104249  -0.023008   0.003966   0.051323   0.002627
     37       0.019354  -0.081101  -0.193677  -0.096841   0.105362   0.074369
     38       0.019482  -0.122599  -0.116445  -0.097655   0.101110   0.119658
     39       0.073862  -0.031274   0.004997  -0.015147   0.038135  -0.008609
     40      -0.002075  -0.107626  -0.210952  -0.099888   0.120476   0.086828
     41      -0.055653   0.100165   0.102406   0.041993  -0.151415  -0.057762
     42      -0.062628  -0.032639   0.025785   0.012602  -0.023951   0.003095
     43       0.802652  -0.029317  -0.108904   0.044448  -0.019774   0.007087
     44       0.386920   0.006984  -0.005869  -0.124339  -0.038415   0.015488
     45      -0.025981  -0.000259  -0.002080   0.030208  -0.031042   0.016983
     46       0.026023  -0.028495  -0.108950   0.036941  -0.019594   0.009407
     47      -0.028864   0.006150  -0.016706  -0.179069  -0.035816  -0.020738
     48      -0.010266  -0.036516   0.097780  -0.037931  -0.004753  -0.010327
     49       0.120154  -0.002697  -0.090808  -0.100791  -0.013913  -0.087119
     50       0.020085   0.014301  -0.046706  -0.093220  -0.045402   0.013797
     51       0.012424   0.027692  -0.033926   0.040854  -0.031248   0.020666
     52       0.008224  -0.073260  -0.066746   0.022310  -0.024531   0.006828
     53      -0.003507   0.010543   0.014520  -0.184688  -0.008482  -0.033936
     54      -0.001414   0.021899  -0.054589   0.098859  -0.052342   0.044775
     55       0.010151  -0.089856  -0.052943  -0.078463  -0.028907  -0.019600
     56      -0.000012   0.011085   0.023214  -0.213976  -0.001537  -0.044755
     57       0.011043   0.012096  -0.002253   0.001220  -0.019506   0.005667
     58       0.002784  -0.097527  -0.039604   0.081114  -0.026660   0.023171
     59       0.003622   0.010177   0.030741  -0.269948   0.006468  -0.061672
     60       0.022868  -0.043350   0.017507  -0.015199   0.001474  -0.006300
     61      -0.109899  -0.025608  -0.080911  -0.040812  -0.011567  -0.041669
     62       0.073359   0.000158   0.004972  -0.038810  -0.042247   0.060003
     63      -0.009694  -0.041859  -0.018114  -0.031840  -0.009387   0.000128
     64       0.065088  -0.016410  -0.110639  -0.083856  -0.012974  -0.068176
     65      -0.087989  -0.006410   0.021326  -0.008776  -0.043301   0.082034
     66       0.007142  -0.033247   0.089255  -0.024964  -0.003202  -0.009288
     67       0.111248  -0.012951  -0.104460  -0.086974  -0.013212  -0.072944
     68      -0.014047   0.008249  -0.033453  -0.113824  -0.047951   0.013014
     69      -0.082425   0.010115  -0.035931   0.034668  -0.043709   0.019229
     70       0.113136  -0.004369  -0.126338   0.062340  -0.023003   0.032166
     71      -0.115347   0.005497  -0.045987  -0.186068  -0.048330  -0.029322
     72      -0.000486   0.001501   0.055895  -0.026647  -0.046523   0.008533
     73      -0.002960   0.153000   0.024973   0.043664  -0.128004  -0.107034
     74      -0.003212  -0.006153  -0.003447   0.000767  -0.016639  -0.000648
     75      -0.003398  -0.012675   0.073234  -0.000421  -0.214065  -0.070492
     76      -0.003210   0.226612   0.105528   0.112163  -0.278155  -0.220452
     77      -0.001942  -0.102017  -0.106219  -0.086119   0.167694   0.140926
     78       0.000951   0.054246   0.082392  -0.065431   0.016281   0.082141
     79      -0.003387   0.201289   0.090400   0.115471  -0.299752  -0.234315
     80      -0.000343   0.102254   0.112953   0.082697  -0.232537  -0.142451
     81      -0.005096   0.083380  -0.085484   0.028467  -0.012260   0.013078
     82      -0.002077  -0.064451  -0.074541   0.062135  -0.023221   0.017297
     83      -0.002666   0.017721   0.011643  -0.020102  -0.010978   0.010405
     84       0.002814   0.093818  -0.113972   0.020695  -0.012913   0.012870
     85       0.001032  -0.041749  -0.105564  -0.020438  -0.013502  -0.006079
     86      -0.000481   0.014773  -0.000775   0.026424  -0.018400   0.025968
     87       0.001442   0.093352  -0.071278   0.034895  -0.001718   0.010456
     88       0.001796  -0.044859  -0.088864   0.179435  -0.019617   0.048146
     89      -0.001346   0.015339   0.005474  -0.014686  -0.014652   0.013398
     90       0.005410  -0.039055  -0.014978  -0.044550  -0.034257   0.033480
     91       0.001814  -0.024844   0.227278  -0.060430   0.108041  -0.209573
     92      -0.002145  -0.020656   0.000690   0.106412   0.051065  -0.010578
     93      -0.002750  -0.057349   0.046014   0.079203   0.091297  -0.112539
     94       0.000284  -0.018926   0.179265   0.030433  -0.048191   0.293687
     95       0.001010  -0.016962  -0.004423   0.048510   0.055280  -0.097365
     96      -0.000134  -0.000464   0.043623  -0.032505   0.022899   0.033267
     97       0.000513   0.163639  -0.015613  -0.055414   0.154125   0.093570
     98       0.000261  -0.020228  -0.022095   0.045693   0.050092  -0.044475
     99      -0.000776  -0.037697   0.027230   0.012800  -0.048364  -0.046833
    100      -0.000088   0.129496  -0.070997  -0.123096   0.321670   0.222916
    101      -0.002071  -0.096992  -0.117388  -0.027032   0.257836   0.099064
    102      -0.000896   0.008313   0.022394  -0.059326   0.197628   0.111371
    103       0.000850   0.110514  -0.082226  -0.119246   0.298437   0.211202
    104      -0.001338   0.047009   0.060693   0.124675  -0.122966  -0.188787
    105      -0.000278   0.110560  -0.120499   0.020479  -0.002267   0.009771
    106      -0.002142  -0.110870  -0.022373   0.060044  -0.041451   0.019682
    107       0.000492   0.033374   0.033784   0.086748   0.000573   0.033879
    108      -0.000964   0.101003  -0.131129  -0.006112  -0.011167   0.006539
    109       0.000529  -0.130976  -0.013317  -0.028945  -0.048125  -0.003363
    110      -0.000384   0.035355   0.038380   0.089724   0.003321   0.033306
    111      -0.000443   0.100347  -0.094436   0.040620  -0.003330   0.013790
    112       0.001218  -0.130621   0.010908   0.122931  -0.050859   0.038082
    113       0.000219   0.035066   0.041385   0.067124   0.005743   0.025933
    114      -0.001314   0.160476  -0.174470   0.022039   0.020645   0.006121
    115      -0.001685  -0.102034  -0.028061   0.091807  -0.038687   0.027943
    116       0.000607   0.043532   0.039067   0.212207   0.001036   0.068200
    117      -0.001114   0.176149  -0.193955   0.020492   0.027227   0.004855
    118      -0.003094  -0.130928   0.004832   0.084952  -0.051120   0.027908
    119       0.000683   0.054535   0.042708   0.266872   0.007418   0.080914
    120       0.000335   0.169740  -0.192468   0.013752   0.022769   0.004450
    121      -0.000128  -0.085013  -0.056185   0.037331  -0.029813   0.011778
    122       0.000309   0.041517   0.039366   0.242688  -0.003079   0.078137
    123       0.000372   0.170842  -0.175850   0.033818   0.028191   0.006854
    124      -0.000275  -0.084129  -0.036718   0.175682  -0.033237   0.050068
    125       0.000787   0.041877   0.038625   0.216788  -0.000952   0.070204
    126       0.000426   0.033629   0.079106  -0.062915  -0.040295   0.062087
    127       0.000249   0.279772   0.096415   0.012540   0.040224  -0.019720
    128      -0.000085  -0.020431  -0.024170   0.084180   0.073137  -0.091862
    129       0.000296   0.032382   0.071908  -0.061850   0.000094   0.070641
    130      -0.000729   0.285839   0.077419  -0.037701   0.182558   0.085993
    131      -0.000637  -0.027887  -0.035265   0.118192   0.114636  -0.129236
    132      -0.000084   0.070902   0.101926  -0.095329  -0.004328   0.119167
    133      -0.000416   0.309528   0.140672   0.063330  -0.080912  -0.118096
    134      -0.000746   0.047422   0.056966   0.141795  -0.089244  -0.206810
    135       0.000936   0.022503   0.089577  -0.053914  -0.163249   0.017925
    136      -0.000207   0.328013   0.153126   0.062631  -0.066518  -0.112077
    137       0.000536  -0.081198  -0.096243   0.020558   0.211655   0.026217
                 12         13         14         15         16         17    
      0       0.014872  -0.020361  -0.021553   0.008814   0.029311   0.005993
      1      -0.013982   0.144849  -0.034351   0.009196  -0.002934   0.069000
      2       0.026729  -0.079786   0.017654  -0.010816  -0.006432  -0.033998
      3       0.012666  -0.006869  -0.025315   0.010032   0.032246   0.016391
      4      -0.023777   0.135658   0.002826   0.009649   0.013597  -0.063062
      5       0.018542  -0.029048   0.001834  -0.005804   0.005924   0.010806
      6       0.017795  -0.028990  -0.021136   0.006925   0.019551   0.012038
      7      -0.007415  -0.018452   0.024859   0.000685   0.028809  -0.119521
      8       0.007192   0.043592  -0.009176   0.000025   0.014577   0.034123
      9       0.026006  -0.065775  -0.014553   0.003186   0.006498   0.001283
     10       0.015300  -0.164544   0.021926  -0.011019   0.027753  -0.111830
     11       0.005325   0.062539  -0.006537   0.001128   0.010881   0.028121
     12       0.028514  -0.079851  -0.010897   0.001909   0.002615  -0.009485
     13       0.025597  -0.166515  -0.013709  -0.012596   0.012658   0.011171
     14       0.012943   0.016188   0.008976  -0.003257  -0.002199  -0.014119
     15       0.022817  -0.056297  -0.014486   0.004819   0.014752  -0.007132
     16       0.011677  -0.010864  -0.046468  -0.001966  -0.002595   0.126362
     17       0.023030  -0.054017   0.022246  -0.009378  -0.010523  -0.050144
     18       0.006468   0.021139  -0.031249   0.013099   0.045252   0.028191
     19      -0.043987   0.247462   0.009207   0.016307   0.014701  -0.090666
     20       0.021569  -0.046941  -0.001182  -0.006589   0.009294   0.019999
     21       0.030109  -0.081700  -0.011501   0.002059  -0.004215  -0.001431
     22       0.022018  -0.264567   0.042896  -0.019460   0.038358  -0.167000
     23      -0.000574   0.103928  -0.014667   0.004414   0.019231   0.044643
     24       0.024426  -0.066396  -0.010987   0.003754   0.012186  -0.017022
     25       0.019421  -0.009845  -0.079137  -0.003000  -0.013855   0.250513
     26       0.028394  -0.089877   0.035684  -0.013014  -0.019651  -0.088633
     27       0.007971  -0.029002  -0.016349   0.005430   0.018621   0.036622
     28       0.043445   0.001843  -0.015582   0.017645   0.041176  -0.000312
     29       0.007678   0.116876  -0.015523   0.008744   0.016965  -0.019629
     30       0.019718   0.058797   0.186904  -0.058670  -0.135828  -0.089812
     31      -0.012774  -0.036589  -0.007335   0.055270  -0.028107   0.035460
     32      -0.134426  -0.083445  -0.053433  -0.011852   0.075064   0.071592
     33       0.018130  -0.029246  -0.027850   0.001674   0.024612   0.047151
     34       0.082095  -0.001801  -0.057737  -0.012627   0.062864   0.088936
     35       0.014196   0.110825  -0.022369   0.017120   0.019775  -0.051914
     36      -0.001804  -0.038509   0.001262   0.059255   0.053503   0.026219
     37       0.098349   0.003074  -0.060163   0.027178   0.115345   0.159393
     38       0.024037   0.111120  -0.006996   0.111220   0.114240   0.034754
     39       0.037735  -0.043522  -0.057847  -0.026537   0.022665   0.083635
     40       0.091776   0.007217  -0.046239   0.055334   0.131928   0.154133
     41       0.001454   0.097432  -0.037579  -0.073640  -0.070014  -0.136339
     42      -0.091890  -0.010674   0.053293  -0.027604  -0.039511   0.018555
     43       0.037801   0.040748  -0.019016   0.054805  -0.024611   0.005967
     44      -0.019263   0.038456  -0.006464  -0.018004   0.040371  -0.009846
     45      -0.132039   0.020552   0.096486  -0.057613  -0.075473   0.012010
     46       0.033907   0.043135  -0.004921   0.043349  -0.009358   0.003182
     47      -0.075675  -0.068662  -0.016614  -0.016432   0.052944   0.029440
     48       0.018213   0.057433   0.008901   0.029995  -0.025687  -0.191153
     49      -0.081931  -0.114421   0.051464  -0.064802   0.063597  -0.055947
     50      -0.064205   0.009832   0.022801  -0.057043   0.049467   0.092352
     51      -0.158419   0.022013   0.058143  -0.059489  -0.045592   0.026155
     52       0.042075   0.044846   0.036563   0.047311  -0.045072   0.000054
     53       0.118519  -0.077252   0.127964  -0.002302  -0.083828  -0.063381
     54      -0.380837   0.014405  -0.138630  -0.016448  -0.007310   0.103051
     55       0.129195   0.059920   0.173039  -0.041684   0.054369  -0.013677
     56       0.204731  -0.072914   0.209392  -0.025889  -0.087331  -0.091487
     57      -0.020364   0.025690   0.198329  -0.085863  -0.088027  -0.024566
     58      -0.025811   0.032020  -0.021957   0.101937  -0.144402   0.004948
     59       0.319993  -0.063712   0.326016  -0.070678  -0.061551  -0.122950
     60       0.016864  -0.010218  -0.021562   0.009308   0.018359   0.005988
     61      -0.017841  -0.039335   0.015613  -0.002689   0.055361  -0.060170
     62       0.005115   0.095704  -0.015969   0.006042   0.014159   0.019295
     63       0.027725   0.009788  -0.038839   0.012229   0.028688   0.028486
     64      -0.062163  -0.099758   0.007545  -0.027218   0.078075  -0.018329
     65       0.043037   0.145955  -0.013924   0.024607  -0.000294  -0.008698
     66       0.028283   0.057986   0.030002   0.010453  -0.028381  -0.175418
     67      -0.073680  -0.122401   0.002428  -0.032818   0.077772  -0.009713
     68      -0.080122   0.008389  -0.013803  -0.023332   0.054569   0.067919
     69      -0.251815  -0.002728   0.010985  -0.059194  -0.011177   0.080493
     70       0.032835   0.103516  -0.016046   0.018777   0.025206  -0.017832
     71      -0.208832  -0.124819  -0.105679  -0.004892   0.104435   0.116711
     72       0.029737   0.017632  -0.039342  -0.022435   0.000815   0.028985
     73       0.079320  -0.023614  -0.102758  -0.169880  -0.071314   0.006599
     74       0.004387   0.069551  -0.023940   0.003197   0.010753  -0.053673
     75       0.093530   0.017697  -0.070774  -0.016167   0.024142   0.048048
     76       0.102743  -0.056901  -0.134552  -0.236339  -0.120238  -0.015551
     77      -0.022394   0.112018   0.015988   0.089861   0.075590  -0.023673
     78      -0.002242   0.076151  -0.025916  -0.039079  -0.034096  -0.021314
     79       0.117445  -0.066112  -0.138156  -0.222067  -0.101078   0.003980
     80       0.040276   0.045005  -0.068555  -0.087375  -0.058293  -0.091080
     81      -0.040898   0.032317   0.074847  -0.057257   0.003847   0.012123
     82       0.013973   0.044001  -0.014022   0.081058  -0.077100   0.007448
     83      -0.053281  -0.093110  -0.091319   0.127679  -0.228302  -0.029358
     84      -0.118908  -0.007534  -0.082770   0.053374  -0.084491  -0.071026
     85       0.111853   0.036239   0.024527   0.075440  -0.034813  -0.042433
     86      -0.210935  -0.134088  -0.301004   0.259467  -0.358359  -0.093066
     87       0.121104   0.089473   0.281130  -0.191464   0.142139   0.117424
     88      -0.063185   0.045529  -0.154183   0.163816  -0.141974   0.034257
     89      -0.117405  -0.113573  -0.175928   0.181872  -0.281887  -0.065877
     90       0.010115  -0.001795  -0.023664   0.010990   0.038557   0.007326
     91      -0.026646   0.269102  -0.055828   0.016810  -0.014867   0.137989
     92       0.035688  -0.137683   0.026521  -0.015523  -0.012161  -0.056914
     93       0.035072  -0.108959  -0.004640  -0.001504  -0.009652  -0.022008
     94       0.043192  -0.284218  -0.018494  -0.022182   0.012868   0.033842
     95       0.010881   0.033558   0.011648  -0.002079  -0.005551  -0.022095
     96       0.003669   0.005549  -0.026261  -0.021341  -0.002886   0.032730
     97      -0.016844   0.050710  -0.040997  -0.135316  -0.083899  -0.042614
     98      -0.028162  -0.026932  -0.015017  -0.016834   0.003307  -0.007221
     99       0.045345  -0.048560  -0.080847  -0.116895  -0.037797   0.065013
    100      -0.046481   0.111810  -0.050820  -0.201958  -0.132761  -0.082928
    101      -0.045503   0.029884  -0.066971  -0.183700  -0.095311  -0.046994
    102      -0.069471  -0.009815   0.024560   0.014586   0.001201   0.037688
    103      -0.024787   0.114208  -0.078721  -0.249712  -0.153565  -0.084807
    104      -0.021880  -0.107968   0.035272   0.129461   0.091742   0.046586
    105      -0.012764   0.018778   0.001505   0.006293  -0.010946  -0.025929
    106      -0.050567   0.055531   0.078432   0.001993  -0.079924   0.044854
    107       0.076661  -0.010051   0.084278  -0.008565  -0.073225   0.143346
    108      -0.138202  -0.020100  -0.162758   0.091743  -0.046064  -0.226537
    109      -0.037115   0.015666   0.159868   0.005135  -0.232017   0.166886
    110       0.123792   0.001321   0.150686  -0.039858  -0.071074   0.225809
    111       0.040013   0.049190   0.138317  -0.080675   0.017316   0.108682
    112      -0.113948   0.091870   0.094093  -0.067954   0.027986  -0.017819
    113       0.181775   0.000647   0.233658  -0.062638  -0.113681   0.343306
[...]
  13:        89.45    0.000000  (  0.000000   0.000000   0.000000)
  14:       103.96    0.000000  (  0.000000   0.000000   0.000000)
  15:       113.37    0.000000  (  0.000000   0.000000   0.000000)
  16:       123.67    0.000000  (  0.000000   0.000000   0.000000)
  17:       139.85    0.000000  (  0.000000   0.000000   0.000000)
  18:       147.39    0.000000  (  0.000000   0.000000   0.000000)
  19:       167.45    0.000000  (  0.000000   0.000000   0.000000)
  20:       180.89    0.000000  (  0.000000   0.000000   0.000000)
  21:       208.45    0.000000  (  0.000000   0.000000   0.000000)
  22:       236.20    0.000000  (  0.000000   0.000000   0.000000)
  23:       253.40    0.000000  (  0.000000   0.000000   0.000000)
  24:       267.38    0.000000  (  0.000000   0.000000   0.000000)
  25:       284.40    0.000000  (  0.000000   0.000000   0.000000)
  26:       289.62    0.000000  (  0.000000   0.000000   0.000000)
  27:       297.54    0.000000  (  0.000000   0.000000   0.000000)
  28:       345.92    0.000000  (  0.000000   0.000000   0.000000)
  29:       377.60    0.000000  (  0.000000   0.000000   0.000000)
  30:       385.01    0.000000  (  0.000000   0.000000   0.000000)
  31:       394.89    0.000000  (  0.000000   0.000000   0.000000)
  32:       419.76    0.000000  (  0.000000   0.000000   0.000000)
  33:       427.00    0.000000  (  0.000000   0.000000   0.000000)
  34:       457.41    0.000000  (  0.000000   0.000000   0.000000)
  35:       488.37    0.000000  (  0.000000   0.000000   0.000000)
  36:       538.70    0.000000  (  0.000000   0.000000   0.000000)
  37:       557.63    0.000000  (  0.000000   0.000000   0.000000)
  38:       591.05    0.000000  (  0.000000   0.000000   0.000000)
  39:       630.57    0.000000  (  0.000000   0.000000   0.000000)
  40:       677.35    0.000000  (  0.000000   0.000000   0.000000)
  41:       756.03    0.000000  (  0.000000   0.000000   0.000000)
  42:       764.31    0.000000  (  0.000000   0.000000   0.000000)
  43:       769.13    0.000000  (  0.000000   0.000000   0.000000)
  44:       785.14    0.000000  (  0.000000   0.000000   0.000000)
  45:       822.55    0.000000  (  0.000000   0.000000   0.000000)
  46:       831.28    0.000000  (  0.000000   0.000000   0.000000)
  47:       840.46    0.000000  (  0.000000   0.000000   0.000000)
  48:       879.78    0.000000  (  0.000000   0.000000   0.000000)
  49:       885.40    0.000000  (  0.000000   0.000000   0.000000)
  50:       909.75    0.000000  (  0.000000   0.000000   0.000000)
  51:       926.03    0.000000  (  0.000000   0.000000   0.000000)
  52:       934.03    0.000000  (  0.000000   0.000000   0.000000)
  53:       935.74    0.000000  (  0.000000   0.000000   0.000000)
  54:       945.34    0.000000  (  0.000000   0.000000   0.000000)
  55:       946.40    0.000000  (  0.000000   0.000000   0.000000)
  56:       948.32    0.000000  (  0.000000   0.000000   0.000000)
  57:       983.60    0.000000  (  0.000000   0.000000   0.000000)
  58:       996.63    0.000000  (  0.000000   0.000000   0.000000)
  59:      1028.05    0.000000  (  0.000000   0.000000   0.000000)
  60:      1052.02    0.000000  (  0.000000   0.000000   0.000000)
  61:      1056.80    0.000000  (  0.000000   0.000000   0.000000)
  62:      1068.68    0.000000  (  0.000000   0.000000   0.000000)
  63:      1081.89    0.000000  (  0.000000   0.000000   0.000000)
  64:      1087.47    0.000000  (  0.000000   0.000000   0.000000)
  65:      1098.36    0.000000  (  0.000000   0.000000   0.000000)
  66:      1108.86    0.000000  (  0.000000   0.000000   0.000000)
  67:      1110.68    0.000000  (  0.000000   0.000000   0.000000)
  68:      1112.69    0.000000  (  0.000000   0.000000   0.000000)
  69:      1130.30    0.000000  (  0.000000   0.000000   0.000000)
  70:      1134.79    0.000000  (  0.000000   0.000000   0.000000)
  71:      1160.69    0.000000  (  0.000000   0.000000   0.000000)
  72:      1176.56    0.000000  (  0.000000   0.000000   0.000000)
  73:      1183.83    0.000000  (  0.000000   0.000000   0.000000)
  74:      1198.32    0.000000  (  0.000000   0.000000   0.000000)
  75:      1207.93    0.000000  (  0.000000   0.000000   0.000000)
  76:      1214.30    0.000000  (  0.000000   0.000000   0.000000)
  77:      1240.42    0.000000  (  0.000000   0.000000   0.000000)
  78:      1258.10    0.000000  (  0.000000   0.000000   0.000000)
  79:      1269.35    0.000000  (  0.000000   0.000000   0.000000)
  80:      1272.02    0.000000  (  0.000000   0.000000   0.000000)
  81:      1275.72    0.000000  (  0.000000   0.000000   0.000000)
  82:      1276.48    0.000000  (  0.000000   0.000000   0.000000)
  83:      1279.86    0.000000  (  0.000000   0.000000   0.000000)
  84:      1284.40    0.000000  (  0.000000   0.000000   0.000000)
  85:      1285.11    0.000000  (  0.000000   0.000000   0.000000)
  86:      1307.49    0.000000  (  0.000000   0.000000   0.000000)
  87:      1333.66    0.000000  (  0.000000   0.000000   0.000000)
  88:      1341.85    0.000000  (  0.000000   0.000000   0.000000)
  89:      1370.56    0.000000  (  0.000000   0.000000   0.000000)
  90:      1375.31    0.000000  (  0.000000   0.000000   0.000000)
  91:      1393.55    0.000000  (  0.000000   0.000000   0.000000)
  92:      1409.41    0.000000  (  0.000000   0.000000   0.000000)
  93:      1427.08    0.000000  (  0.000000   0.000000   0.000000)
  94:      1432.19    0.000000  (  0.000000   0.000000   0.000000)
  95:      1435.03    0.000000  (  0.000000   0.000000   0.000000)
  96:      1461.09    0.000000  (  0.000000   0.000000   0.000000)
  97:      1467.99    0.000000  (  0.000000   0.000000   0.000000)
  98:      1479.10    0.000000  (  0.000000   0.000000   0.000000)
  99:      1499.04    0.000000  (  0.000000   0.000000   0.000000)
 100:      1503.69    0.000000  (  0.000000   0.000000   0.000000)
 101:      1504.46    0.000000  (  0.000000   0.000000   0.000000)
 102:      1507.50    0.000000  (  0.000000   0.000000   0.000000)
 103:      1507.67    0.000000  (  0.000000   0.000000   0.000000)
 104:      1507.93    0.000000  (  0.000000   0.000000   0.000000)
 105:      1510.17    0.000000  (  0.000000   0.000000   0.000000)
 106:      1511.07    0.000000  (  0.000000   0.000000   0.000000)
 107:      1512.90    0.000000  (  0.000000   0.000000   0.000000)
 108:      1549.90    0.000000  (  0.000000   0.000000   0.000000)
 109:      1564.86    0.000000  (  0.000000   0.000000   0.000000)
 110:      1574.00    0.000000  (  0.000000   0.000000   0.000000)
 111:      2822.88    0.000000  (  0.000000   0.000000   0.000000)
 112:      2870.77    0.000000  (  0.000000   0.000000   0.000000)
 113:      2892.82    0.000000  (  0.000000   0.000000   0.000000)
 114:      2917.85    0.000000  (  0.000000   0.000000   0.000000)
 115:      2923.76    0.000000  (  0.000000   0.000000   0.000000)
 116:      2929.43    0.000000  (  0.000000   0.000000   0.000000)
 117:      2930.97    0.000000  (  0.000000   0.000000   0.000000)
 118:      2941.27    0.000000  (  0.000000   0.000000   0.000000)
 119:      2942.22    0.000000  (  0.000000   0.000000   0.000000)
 120:      2947.23    0.000000  (  0.000000   0.000000   0.000000)
 121:      2955.73    0.000000  (  0.000000   0.000000   0.000000)
 122:      2958.65    0.000000  (  0.000000   0.000000   0.000000)
 123:      2963.29    0.000000  (  0.000000   0.000000   0.000000)
 124:      2964.31    0.000000  (  0.000000   0.000000   0.000000)
 125:      2977.44    0.000000  (  0.000000   0.000000   0.000000)
 126:      2983.58    0.000000  (  0.000000   0.000000   0.000000)
 127:      2988.04    0.000000  (  0.000000   0.000000   0.000000)
 128:      2988.83    0.000000  (  0.000000   0.000000   0.000000)
 129:      2996.71    0.000000  (  0.000000   0.000000   0.000000)
 130:      3001.93    0.000000  (  0.000000   0.000000   0.000000)
 131:      3043.02    0.000000  (  0.000000   0.000000   0.000000)
 132:      3051.07    0.000000  (  0.000000   0.000000   0.000000)
 133:      3055.75    0.000000  (  0.000000   0.000000   0.000000)
 134:      3066.97    0.000000  (  0.000000   0.000000   0.000000)
 135:      3079.75    0.000000  (  0.000000   0.000000   0.000000)
 136:      3387.93    0.000000  (  0.000000   0.000000   0.000000)
 137:      3585.27    0.000000  (  0.000000   0.000000   0.000000)

The first frequency considered to be a vibration is 7
The total number of vibrations considered is 131


--------------------------
THERMOCHEMISTRY AT 298.15K
--------------------------

Temperature         ... 298.15 K
Pressure            ... 1.00 atm
Total Mass          ... 252.40 AMU

Throughout the following assumptions are being made:
  (1) The electronic state is orbitally nondegenerate
  (2) There are no thermally accessible electronically excited states
  (3) Hindered rotations indicated by low frequency modes are not
      treated as such but are treated as vibrations and this may
      cause some error
  (4) All equations used are the standard statistical mechanics
      equations for an ideal gas
  (5) All vibrations are strictly harmonic

freq.      26.74  E(vib)   ...       0.56 
freq.      44.54  E(vib)   ...       0.53 
freq.      54.49  E(vib)   ...       0.52 
freq.      65.90  E(vib)   ...       0.50 
freq.      70.63  E(vib)   ...       0.50 
freq.      82.71  E(vib)   ...       0.48 
freq.      89.45  E(vib)   ...       0.47 
freq.     103.96  E(vib)   ...       0.46 
freq.     113.37  E(vib)   ...       0.45 
freq.     123.67  E(vib)   ...       0.43 
freq.     139.85  E(vib)   ...       0.41 
freq.     147.39  E(vib)   ...       0.41 
freq.     167.45  E(vib)   ...       0.39 
freq.     180.89  E(vib)   ...       0.37 
freq.     208.45  E(vib)   ...       0.34 
freq.     236.20  E(vib)   ...       0.32 
freq.     253.40  E(vib)   ...       0.30 
freq.     267.38  E(vib)   ...       0.29 
freq.     284.40  E(vib)   ...       0.28 
freq.     289.62  E(vib)   ...       0.27 
freq.     297.54  E(vib)   ...       0.27 
freq.     345.92  E(vib)   ...       0.23 
freq.     377.60  E(vib)   ...       0.21 
freq.     385.01  E(vib)   ...       0.20 
freq.     394.89  E(vib)   ...       0.20 
freq.     419.76  E(vib)   ...       0.18 
freq.     427.00  E(vib)   ...       0.18 
freq.     457.41  E(vib)   ...       0.16 
freq.     488.37  E(vib)   ...       0.15 
freq.     538.70  E(vib)   ...       0.12 
freq.     557.63  E(vib)   ...       0.12 
freq.     591.05  E(vib)   ...       0.10 
freq.     630.57  E(vib)   ...       0.09 
freq.     677.35  E(vib)   ...       0.08 
freq.     756.03  E(vib)   ...       0.06 
freq.     764.31  E(vib)   ...       0.06 
freq.     769.13  E(vib)   ...       0.06 
freq.     785.14  E(vib)   ...       0.05 
freq.     822.55  E(vib)   ...       0.05 
freq.     831.28  E(vib)   ...       0.04 
freq.     840.46  E(vib)   ...       0.04 
freq.     879.78  E(vib)   ...       0.04 
freq.     885.40  E(vib)   ...       0.04 
freq.     909.75  E(vib)   ...       0.03 
freq.     926.03  E(vib)   ...       0.03 
freq.     934.03  E(vib)   ...       0.03 
freq.     935.74  E(vib)   ...       0.03 
freq.     945.34  E(vib)   ...       0.03 
freq.     946.40  E(vib)   ...       0.03 
freq.     948.32  E(vib)   ...       0.03 
freq.     983.60  E(vib)   ...       0.02 
freq.     996.63  E(vib)   ...       0.02 
freq.    1028.05  E(vib)   ...       0.02 
freq.    1052.02  E(vib)   ...       0.02 
freq.    1056.80  E(vib)   ...       0.02 
freq.    1068.68  E(vib)   ...       0.02 
freq.    1081.89  E(vib)   ...       0.02 
freq.    1087.47  E(vib)   ...       0.02 
freq.    1098.36  E(vib)   ...       0.02 
freq.    1108.86  E(vib)   ...       0.02 
freq.    1110.68  E(vib)   ...       0.02 
freq.    1112.69  E(vib)   ...       0.01 
freq.    1130.30  E(vib)   ...       0.01 
freq.    1134.79  E(vib)   ...       0.01 
freq.    1160.69  E(vib)   ...       0.01 
freq.    1176.56  E(vib)   ...       0.01 
freq.    1183.83  E(vib)   ...       0.01 
freq.    1198.32  E(vib)   ...       0.01 
freq.    1207.93  E(vib)   ...       0.01 
freq.    1214.30  E(vib)   ...       0.01 
freq.    1240.42  E(vib)   ...       0.01 
freq.    1258.10  E(vib)   ...       0.01 
freq.    1269.35  E(vib)   ...       0.01 
freq.    1272.02  E(vib)   ...       0.01 
freq.    1275.72  E(vib)   ...       0.01 
freq.    1276.48  E(vib)   ...       0.01 
freq.    1279.86  E(vib)   ...       0.01 
freq.    1284.40  E(vib)   ...       0.01 
freq.    1285.11  E(vib)   ...       0.01 
freq.    1307.49  E(vib)   ...       0.01 
freq.    1333.66  E(vib)   ...       0.01 
freq.    1341.85  E(vib)   ...       0.01 
freq.    1370.56  E(vib)   ...       0.01 
freq.    1375.31  E(vib)   ...       0.01 
freq.    1393.55  E(vib)   ...       0.00 
freq.    1409.41  E(vib)   ...       0.00 
freq.    1427.08  E(vib)   ...       0.00 
freq.    1432.19  E(vib)   ...       0.00 
freq.    1435.03  E(vib)   ...       0.00 
freq.    1461.09  E(vib)   ...       0.00 
freq.    1467.99  E(vib)   ...       0.00 
freq.    1479.10  E(vib)   ...       0.00 
freq.    1499.04  E(vib)   ...       0.00 
freq.    1503.69  E(vib)   ...       0.00 
freq.    1504.46  E(vib)   ...       0.00 
freq.    1507.50  E(vib)   ...       0.00 
freq.    1507.67  E(vib)   ...       0.00 
freq.    1507.93  E(vib)   ...       0.00 
freq.    1510.17  E(vib)   ...       0.00 
freq.    1511.07  E(vib)   ...       0.00 
freq.    1512.90  E(vib)   ...       0.00 
freq.    1549.90  E(vib)   ...       0.00 
freq.    1564.86  E(vib)   ...       0.00 
freq.    1574.00  E(vib)   ...       0.00 
freq.    2822.88  E(vib)   ...       0.00 
freq.    2870.77  E(vib)   ...       0.00 
freq.    2892.82  E(vib)   ...       0.00 
freq.    2917.85  E(vib)   ...       0.00 
freq.    2923.76  E(vib)   ...       0.00 
freq.    2929.43  E(vib)   ...       0.00 
freq.    2930.97  E(vib)   ...       0.00 
freq.    2941.27  E(vib)   ...       0.00 
freq.    2942.22  E(vib)   ...       0.00 
freq.    2947.23  E(vib)   ...       0.00 
freq.    2955.73  E(vib)   ...       0.00 
freq.    2958.65  E(vib)   ...       0.00 
freq.    2963.29  E(vib)   ...       0.00 
freq.    2964.31  E(vib)   ...       0.00 
freq.    2977.44  E(vib)   ...       0.00 
freq.    2983.58  E(vib)   ...       0.00 
freq.    2988.04  E(vib)   ...       0.00 
freq.    2988.83  E(vib)   ...       0.00 
freq.    2996.71  E(vib)   ...       0.00 
freq.    3001.93  E(vib)   ...       0.00 
freq.    3043.02  E(vib)   ...       0.00 
freq.    3051.07  E(vib)   ...       0.00 
freq.    3055.75  E(vib)   ...       0.00 
freq.    3066.97  E(vib)   ...       0.00 
freq.    3079.75  E(vib)   ...       0.00 
freq.    3387.93  E(vib)   ...       0.00 
freq.    3585.27  E(vib)   ...       0.00 

------------
INNER ENERGY
------------

The inner energy is: U= E(el) + E(ZPE) + E(vib) + E(rot) + E(trans)
    E(el)   - is the total energy from the electronic structure calculation
              = E(kin-el) + E(nuc-el) + E(el-el) + E(nuc-nuc)
    E(ZPE)  - the the zero temperature vibrational energy from the frequency calculation
    E(vib)  - the the finite temperature correction to E(ZPE) due to population
              of excited vibrational states
    E(rot)  - is the rotational thermal energy
    E(trans)- is the translational thermal energy

Summary of contributions to the inner energy U:
Electronic energy                ...    -56.26053745 Eh
Zero point energy                ...      0.39801390 Eh     249.76 kcal/mol
Thermal vibrational correction   ...      0.01859371 Eh      11.67 kcal/mol
Thermal rotational correction    ...      0.00141627 Eh       0.89 kcal/mol
Thermal translational correction ...      0.00141627 Eh       0.89 kcal/mol
-----------------------------------------------------------------------
Total thermal energy                    -55.84109730 Eh


Summary of corrections to the electronic energy:
(perhaps to be used in another calculation)
Total thermal correction                  0.02142625 Eh      13.45 kcal/mol
Non-thermal (ZPE) correction              0.39801390 Eh     249.76 kcal/mol
-----------------------------------------------------------------------
Total correction                          0.41944015 Eh     263.20 kcal/mol


--------
ENTHALPY
--------

The enthalpy is H = U + kB*T
                kB is Boltzmann's constant
Total free energy                 ...    -55.84109730 Eh 
Thermal Enthalpy correction       ...      0.00094421 Eh       0.59 kcal/mol
-----------------------------------------------------------------------
Total Enthalpy                    ...    -55.84015309 Eh


Note: Only C1 symmetry has been detected, increase convergence thresholds 
      if your molecule has a higher symmetry. Symmetry factor of 1.0 is   
      used for the rotational entropy correction. 
 

Note: Rotational entropy computed according to Herzberg 
Infrared and Raman Spectra, Chapter V,1, Van Nostrand Reinhold, 1945 
Point Group:  C1, Symmetry Number:   1  
Rotational constants in cm-1:     0.011609     0.007004     0.004885 

Vibrational entropy computed according to the QRRHO of S. Grimme
Chem.Eur.J. 2012 18 9955


-------
ENTROPY
-------

The entropy contributions are T*S = T*(S(el)+S(vib)+S(rot)+S(trans))
     S(el)   - electronic entropy
     S(vib)  - vibrational entropy
     S(rot)  - rotational entropy
     S(trans)- translational entropy
The entropies will be listed as mutliplied by the temperature to get
units of energy

Electronic entropy                ...      0.00000000 Eh      0.00 kcal/mol
Vibrational entropy               ...      0.03325652 Eh     20.87 kcal/mol
Rotational entropy                ...      0.01646885 Eh     10.33 kcal/mol
Translational entropy             ...      0.02018250 Eh     12.66 kcal/mol
-----------------------------------------------------------------------
Final entropy term                ...      0.06990787 Eh     43.87 kcal/mol

In case the symmetry of your molecule has not been determined correctly
or in case you have a reason to use a different symmetry number we print 
out the resulting rotational entropy values for sn=1,12 :
 --------------------------------------------------------
|  sn= 1 | S(rot)=       0.01646885 Eh     10.33 kcal/mol|
|  sn= 2 | S(rot)=       0.01581439 Eh      9.92 kcal/mol|
|  sn= 3 | S(rot)=       0.01543156 Eh      9.68 kcal/mol|
|  sn= 4 | S(rot)=       0.01515994 Eh      9.51 kcal/mol|
|  sn= 5 | S(rot)=       0.01494925 Eh      9.38 kcal/mol|
|  sn= 6 | S(rot)=       0.01477710 Eh      9.27 kcal/mol|
|  sn= 7 | S(rot)=       0.01463156 Eh      9.18 kcal/mol|
|  sn= 8 | S(rot)=       0.01450548 Eh      9.10 kcal/mol|
|  sn= 9 | S(rot)=       0.01439427 Eh      9.03 kcal/mol|
|  sn=10 | S(rot)=       0.01429479 Eh      8.97 kcal/mol|
|  sn=11 | S(rot)=       0.01420480 Eh      8.91 kcal/mol|
|  sn=12 | S(rot)=       0.01412265 Eh      8.86 kcal/mol|
 --------------------------------------------------------


-------------------
GIBBS FREE ENERGY
-------------------

The Gibbs free energy is G = H - T*S

Total enthalpy                    ...    -55.84015309 Eh 
Total entropy correction          ...     -0.06990787 Eh    -43.87 kcal/mol
-----------------------------------------------------------------------
Final Gibbs free energy         ...    -55.91006096 Eh

For completeness - the Gibbs free energy minus the electronic energy
G-E(el)                           ...      0.35047649 Eh    219.93 kcal/mol


Total Time for Numerical Frequencies  :       167.959 sec
Time for Reference State(s)           :         0.269 sec
Time for Displacements                :       151.576 sec

Timings for individual modules:

Sum of individual times         ...        0.553 sec (=   0.009 min)
XTB module                      ...        0.553 sec (=   0.009 min) 100.0 %
                             ****ORCA TERMINATED NORMALLY****
TOTAL RUN TIME: 0 days 0 hours 2 minutes 49 seconds 275 msec
(SLURM) EXECUTION TIME: 169.297465611 seconds.
