(SLURM) JOB ID:         66

                                 *****************
                                 * O   R   C   A *
                                 *****************

           --- An Ab Initio, DFT and Semiempirical electronic structure package ---

                  #######################################################
                  #                        -***-                        #
                  #          Department of theory and spectroscopy      #
                  #               Directorship: Frank Neese             #
                  #        Max Planck Institute fuer Kohlenforschung    #
                  #                Kaiser Wilhelm Platz 1               #
                  #                 D-45470 Muelheim/Ruhr               #
                  #                      Germany                        #
                  #                                                     #
                  #                  All rights reserved                #
                  #                        -***-                        #
                  #######################################################


                         Program Version 4.2.1 -  RELEASE  -


 With contributions from (in alphabetic order):
   Daniel Aravena         : Magnetic Suceptibility
   Michael Atanasov       : Ab Initio Ligand Field Theory (pilot matlab implementation)
   Alexander A. Auer      : GIAO ZORA, VPT2
   Ute Becker             : Parallelization
   Giovanni Bistoni       : ED, misc. LED, open-shell LED, HFLD
   Martin Brehm           : Molecular dynamics
   Dmytro Bykov           : SCF Hessian
   Vijay G. Chilkuri      : MRCI spin determinant printing, contributions to CSF-ICE
   Dipayan Datta          : RHF DLPNO-CCSD density
   Achintya Kumar Dutta   : EOM-CC, STEOM-CC
   Dmitry Ganyushin       : Spin-Orbit,Spin-Spin,Magnetic field MRCI
   Miquel Garcia          : C-PCM Hessian, Gaussian charge scheme
   Yang Guo               : DLPNO-NEVPT2, CIM, IAO-localization
   Andreas Hansen         : Spin unrestricted coupled pair/coupled cluster methods
   Benjamin Helmich-Paris : CASSCF linear response (MC-RPA)
   Lee Huntington         : MR-EOM, pCC
   Robert Izsak           : Overlap fitted RIJCOSX, COSX-SCS-MP3, EOM
   Christian Kollmar      : KDIIS, OOCD, Brueckner-CCSD(T), CCSD density
   Simone Kossmann        : Meta GGA functionals, TD-DFT gradient, OOMP2, MP2 Hessian
   Martin Krupicka        : AUTO-CI
   Lucas Lang             : DCDCAS
   Dagmar Lenk            : GEPOL surface, SMD
   Dimitrios Liakos       : Extrapolation schemes; Compound Job, initial MDCI parallelization
   Dimitrios Manganas     : Further ROCIS development; embedding schemes
   Dimitrios Pantazis     : SARC Basis sets
   Taras Petrenko         : DFT Hessian,TD-DFT gradient, ASA, ECA, R-Raman, ABS, FL, XAS/XES, NRVS
   Peter Pinski           : DLPNO-MP2, DLPNO-MP2 Gradient
   Christoph Reimann      : Effective Core Potentials
   Marius Retegan         : Local ZFS, SOC
   Christoph Riplinger    : Optimizer, TS searches, QM/MM, DLPNO-CCSD(T), (RO)-DLPNO pert. Triples
   Tobias Risthaus        : Range-separated hybrids, TD-DFT gradient, RPA, STAB
   Michael Roemelt        : Original ROCIS implementation
   Masaaki Saitow         : Open-shell DLPNO-CCSD energy and density
   Barbara Sandhoefer     : DKH picture change effects
   Avijit Sen             : IP-ROCIS
   Kantharuban Sivalingam : CASSCF convergence, NEVPT2, FIC-MRCI
   Bernardo de Souza      : ESD, SOC TD-DFT
   Georgi Stoychev        : AutoAux, RI-MP2 NMR
   Willem Van den Heuvel  : Paramagnetic NMR
   Boris Wezisla          : Elementary symmetry handling
   Frank Wennmohs         : Technical directorship


 We gratefully acknowledge several colleagues who have allowed us to
 interface, adapt or use parts of their codes:
   Stefan Grimme, W. Hujo, H. Kruse,             : VdW corrections, initial TS optimization,
                  C. Bannwarth                     DFT functionals, gCP, sTDA/sTD-DF
   Ed Valeev, F. Pavosevic, A. Kumar             : LibInt (2-el integral package), F12 methods
   Garnet Chan, S. Sharma, J. Yang, R. Olivares  : DMRG
   Ulf Ekstrom                                   : XCFun DFT Library
   Mihaly Kallay                                 : mrcc  (arbitrary order and MRCC methods)
   Andreas Klamt, Michael Diedenhofen            : otool_cosmo (COSMO solvation model)
   Jiri Pittner, Ondrej Demel                    : Mk-CCSD
   Frank Weinhold                                : gennbo (NPA and NBO analysis)
   Christopher J. Cramer and Donald G. Truhlar   : smd solvation model
   Lars Goerigk                                  : TD-DFT with DH, B97 family of functionals
   V. Asgeirsson, H. Jonsson                     : NEB implementation
   FAccTs GmbH                                   : IRC, NEB, NEB-TS, Multilevel, MM, QM/MM, CI optimization
   S Lehtola, MJT Oliveira, MAL Marques          : LibXC Library


 Your calculation uses the libint2 library for the computation of 2-el integrals
 For citations please refer to: http://libint.valeyev.net

 Your ORCA version has been built with support for libXC version: 4.2.3
 For citations please refer to: https://tddft.org/programs/libxc/

 This ORCA versions uses:
   CBLAS   interface :  Fast vector & matrix operations
   LAPACKE interface :  Fast linear algebra routines
   SCALAPACK package :  Parallel linear algebra routines




***************************************
The coordinates will be read from file: init.xyz
***************************************


Your calculation utilizes the SMD solvation module
Please cite in your paper:
A.V. Marenich, C.J. Cramer, D.G. Truhlar J. Phys. Chem. B, 113, (2009), 6378 

Your calculation utilizes the semiempirical GFN2-xTB method
Please cite in your paper:
C. Bannwarth, Ehlert S., S. Grimme,  J. Chem. Theory Comput., 15, (2019), 1652.
   

----- Orbital basis set information -----
Your calculation utilizes the basis: def2-SVP
   F. Weigend and R. Ahlrichs, Phys. Chem. Chem. Phys. 7, 3297 (2005).

================================================================================
                                        WARNINGS
                       Please study these warnings very carefully!
================================================================================

WARNING: Gradients needed for Numerical Frequencies
  ===> : Setting RunTyp to EnGrad

WARNING: The environment variable RSH_COMMAND is not set!
  ===> : All Displacements for the Numerical Hessian calculation
         will be started on localhost

WARNING: Found dipole moment calculation with XTB calculation
  ===> : Switching off dipole moment calculation


INFO   : the flag for use of LIBINT has been found!

================================================================================
                                       INPUT FILE
================================================================================
NAME = /tmp/slurm-scratch/freq.66/freq.inp
|  1> ! XTB2 NumFreq
|  2> %maxcore 1450
|  3> 
|  4> * xyzfile 0 1 init.xyz
|  5> 
|  6> %cpcm
|  7>  smd true
|  8>  smdsolvent "ch2cl2"
|  9> end
| 10> %pal nprocs 8 end
| 11> 
| 12>                          ****END OF INPUT****
================================================================================

                     *******************************
                     * Energy+Gradient Calculation *
                     *******************************

      -----------------------------------------------------------      
     |                   =====================                   |     
     |                           x T B                           |     
     |                   =====================                   |     
     |                         S. Grimme                         |     
     |          Mulliken Center for Theoretical Chemistry        |     
     |                    University of Bonn                     |     
      -----------------------------------------------------------      

   * xtb version 6.3.0 (preview) compiled by 'ehlert@majestix' on 2020-01-15

   This program is distributed in the hope that it will be useful,
   but WITHOUT ANY WARRANTY; without even the implied warranty of
   MERCHANTABILITY or FITNESS FOR A PARTICULAR PURPOSE.
   
   FOR NON-COMMERCIAL, ACADEMIA USE ONLY.
   
   Cite this work as:
   * S. Grimme, C. Bannwarth, P. Shushkov, J. Chem. Theory Comput., 2017,
     13, 1989-2009. DOI: 10.1021/acs.jctc.7b00118
   * C. Bannwarth, S. Ehlert and S. Grimme., J. Chem. Theory Comput., 2019,
     15, 1652-1671. DOI: 10.1021/acs.jctc.8b01176
   * P. Pracht, E. Caldeweyher, S. Ehlert, S. Grimme, ChemRxiv, 2019, preprint.
     DOI: 10.26434/chemrxiv.8326202.v1
   * S. Grimme, S. Spicher unpublished
   
   for DFT-D4:
   * E. Caldeweyher, C. Bannwarth and S. Grimme, J. Chem. Phys., 2017,
     147, 034112. DOI: 10.1063/1.4993215
   * E. Caldeweyher, S. Ehlert, A. Hansen, H. Neugebauer, S. Spicher,
     C. Bannwarth and S. Grimme, J. Chem. Phys., 2019, 150, 154122.
     DOI: 10.1063/1.5090222
   
   for sTDA-xTB:
   * S. Grimme and C. Bannwarth, J. Chem. Phys., 2016, 145, 054103.
     DOI: 10.1063/1.4959605
   
   in the mass-spec context:
   * V. Asgeirsson, C. Bauer and S. Grimme, Chem. Sci., 2017, 8, 4879.
     DOI: 10.1039/c7sc00601b
   
   for metadynamics refer to:
   * S. Grimme, J. Chem. Theory Comput., 2019, 155, 2847-2862
     DOI: 10.1021/acs.jctc.9b00143
   
   with help from (in alphabetical order)
   C. Bannwarth, F. Bohle, G. Brandenburg, E. Caldeweyher, M. Checinski,
   S. Dohm, S. Ehlert, S. Ehrlich, F. März, H. Neugebauer, J. Pisarek,
   P. Pracht, P. Shushkov, and S. Spicher.
   
 * started run on 2020/08/07 at 21:39:21.446     

           -------------------------------------------------
          |                Calculation Setup                |
           -------------------------------------------------

          program call               : /opt/orca/otool_xtb /tmp/slurm-scratch/freq.66/freq_XTB.xyz --grad -c 0 -u 0 -P 8 --namespace /tmp/slurm-scratch/freq.66/freq --gbsa CH2Cl2
          hostname                   : headnode-pbs
          calculation namespace      : /tmp/slurm-scratch/freq.66/freq
          coordinate file            : /tmp/slurm-scratch/freq.66/freq_XTB.xyz
          omp threads                :                     8
          number of atoms            :                    30
          number of electrons        :                    72
          charge                     :                     0
          spin                       :                   0.0
          first test random number   :      0.54078985656013


molecular fragmentation (1/2 indicates fragments):
111111111111112112111111111111
# atoms in fragment 1/2:    28     2
 fragment masses (1/2) :      162.25       17.01
CMA distance (Bohr)    :   3.657
constraining FC (au)   :  0.0500

########################################################################
# WARNING! Please study the warnings concerning your input carefully
#  - Process number higher than OMP_NUM_THREADS, I hope you know what you are doing.
########################################################################

           ------------------------------------------------- 
          |                 G F N 2 - x T B                 |
          | Geometry, Frequencies, Noncovalent interactions |
          |            JCTC 2019 parametrisation            |
           ------------------------------------------------- 
             k(s)              :                1.8500
             k(p)              :                2.2300
             k(d)              :                2.2300
             k(f)              :                2.0000
             kEN (H0ij)        :               -2.0000
             D4 a1             :                0.5200
             D4 a2             :                5.0000
             D4 s6             :                1.0000
             D4 s8             :                2.7000
             D4 s9             :                5.0000
             alphaj            :                2.0000

  Z AO/shell   Hii/eV     exponent
  1     Wed Apr 25 08:07:45 CEST 2018   EN: 2.200 GM2: 0.406  GM3: 0.0800  RAES: 1.40
     1s    -10.707211    1.230000
  6     Wed Apr 25 08:07:45 CEST 2018   EN: 2.550 GM2: 0.538  GM3: 0.1500  RAES: 3.00
     2s    -13.970922    2.096432
     2p    -10.063292    1.800000
  7     Wed Apr 25 08:07:45 CEST 2018   EN: 3.040 GM2: 0.461  GM3:-0.0640  RAES: 1.90
     2s    -16.686243    2.339881
     2p    -12.523956    2.014332
  8     Wed Apr 25 08:07:45 CEST 2018   EN: 3.440 GM2: 0.452  GM3:-0.0517  RAES: 1.80
     2s    -20.229985    2.439742
     2p    -15.503117    2.137023

 Solvent             : CH2Cl2
 Using internal parameter file: .param_gbsa2_CH2Cl2
 Gsolv ref. state (COSMO-RS): gsolv [1 M gas/solution]
 temperature (mdtemp)       :    298.150000000000     
 dielectric constant        :    8.93000000000000     
 rho                        :    1.33000000000000     
 mass                       :    84.9300000000000     
 surface tension            :    15.5689454083859     
 probe radius               :   0.719875900000000     
 Gshift (Eh)                :   4.440829173451759E-003
 c1                         :    1.49173776000000     
 soset                      :   0.000000000000000E+000
 HB correction              :  F
           ------------------------------------------------- 
          |        Self-Consistent Charge Iterations        |
           ------------------------------------------------- 

          ...................................................
          :                      SETUP                      :
          :.................................................:
          :  # basis functions                  69          :
          :  # atomic orbitals                  69          :
          :  # shells                           43          :
          :  # electrons                        72          :
          :  max. iterations                   250          :
          :  Hamiltonian                  GFN2-xTB          :
          :  GBSA solvation                   true          :
          :  PC potential                    false          :
          :  electronic temp.          300.0000000     K    :
          :  accuracy                    1.0000000          :
          :  -> integral cutoff          0.2500000E+02      :
          :  -> integral neglect         0.1000000E-07      :
          :  -> SCF convergence          0.1000000E-05 Eh   :
          :  -> wf. convergence          0.1000000E-03 e    :
          :  Broyden damping             0.4000000          :
          ...................................................
  Checking positiv definite overlap ...  done.
 

 iter      E             dE          RMSdq      gap      omega  full diag
   1    -39.5857889 -0.395858E+02  0.422E+00    3.30       0.0  T
   2    -39.6945394 -0.108750E+00  0.252E+00    1.57       1.0  T
   3    -39.4158780  0.278661E+00  0.316E+00    0.26       1.0  T
   4    -39.6883006 -0.272423E+00  0.155E+00    2.19       1.0  T
   5    -39.7001247 -0.118241E-01  0.775E-01    1.69       1.0  T
   6    -39.7061054 -0.598078E-02  0.539E-01    1.36       1.0  T
   7    -39.7113728 -0.526737E-02  0.235E-01    1.07       1.0  T
   8    -39.7126554 -0.128259E-02  0.439E-02    0.93       1.0  T
   9    -39.7126314  0.239798E-04  0.358E-02    0.91       1.0  T
  10    -39.7126627 -0.312627E-04  0.572E-03    0.93       3.2  T
  11    -39.7126628 -0.837252E-07  0.416E-03    0.93       4.4  T
  12    -39.7126618  0.938718E-06  0.655E-03    0.92       2.8  T
  13    -39.7126630 -0.114405E-05  0.398E-04    0.93      45.9  T
  14    -39.7126630  0.114474E-07  0.731E-04    0.93      25.0  T
  15    -39.7126630 -0.126925E-07  0.651E-05    0.93     280.4  T

   *** convergence criteria satisfied after 15 iterations ***

         #    Occupation            Energy/Eh            Energy/eV
      -------------------------------------------------------------
         1        2.0000           -0.6845982             -18.6289
       ...           ...                  ...                  ...
        30        2.0000           -0.4359794             -11.8636
        31        2.0000           -0.4321287             -11.7588
        32        2.0000           -0.4241593             -11.5420
        33        2.0000           -0.4148786             -11.2894
        34        2.0000           -0.4121056             -11.2140
        35        2.0000           -0.3371731              -9.1749
        36        2.0000           -0.3336606              -9.0794 (HOMO)
        37                         -0.2995812              -8.1520 (LUMO)
        38                         -0.2334326              -6.3520
        39                         -0.2050121              -5.5787
        40                         -0.0956605              -2.6031
        41                         -0.0152023              -0.4137
       ...                                ...                  ...
        69                          0.6491338              17.6638
      -------------------------------------------------------------
                  HL-Gap            0.0340794 Eh            0.9273 eV
             Fermi-level           -0.3166092 Eh           -8.6154 eV

 SCC (total)                   0 d,  0 h,  0 min,  0.027 sec
 SCC setup                      ...        0 min,  0.001 sec (  5.459%)
 Dispersion                     ...        0 min,  0.000 sec (  1.556%)
 integral evaluation            ...        0 min,  0.004 sec ( 14.236%)
 zeroth order Hamiltonian       ...        0 min,  0.000 sec (  0.033%)
 iterations                     ...        0 min,  0.015 sec ( 56.386%)
 molecular gradient             ...        0 min,  0.006 sec ( 21.114%)
 printout                       ...        0 min,  0.000 sec (  1.036%)

         :::::::::::::::::::::::::::::::::::::::::::::::::::::
         ::                     SUMMARY                     ::
         :::::::::::::::::::::::::::::::::::::::::::::::::::::
         :: total energy             -39.130479875847 Eh    ::
         :: total w/o Gsasa/hb       -39.114530023379 Eh    ::
         :: gradient norm              0.034672860122 Eh/a0 ::
         :: HOMO-LUMO gap              0.927347331418 eV    ::
         ::.................................................::
         :: SCC energy               -39.728612827950 Eh    ::
         :: -> isotropic ES            0.128689512862 Eh    ::
         :: -> anisotropic ES         -0.012817055893 Eh    ::
         :: -> anisotropic XC          0.023469684812 Eh    ::
         :: -> dispersion             -0.023498365981 Eh    ::
         :: -> Gsolv                  -0.039690551618 Eh    ::
         ::    -> Gborn               -0.023740699150 Eh    ::
         ::    -> Gsasa               -0.020390681641 Eh    ::
         ::    -> Ghb                  0.000000000000 Eh    ::
         ::    -> Gshift               0.004440829173 Eh    ::
         :: repulsion energy           0.598196888474 Eh    ::
         :: add. restraining           0.000000000000 Eh    ::
         :::::::::::::::::::::::::::::::::::::::::::::::::::::

           -------------------------------------------------
          |                Property Printout                |
           -------------------------------------------------

    * Orbital Energies and Occupations

         #    Occupation            Energy/Eh            Energy/eV
      -------------------------------------------------------------
         1        2.0000           -0.6845982             -18.6289
       ...           ...                  ...                  ...
        24        2.0000           -0.4759231             -12.9505
        25        2.0000           -0.4719625             -12.8428
        26        2.0000           -0.4512214             -12.2784
        27        2.0000           -0.4500528             -12.2466
        28        2.0000           -0.4403247             -11.9818
        29        2.0000           -0.4379039             -11.9160
        30        2.0000           -0.4359794             -11.8636
        31        2.0000           -0.4321287             -11.7588
        32        2.0000           -0.4241593             -11.5420
        33        2.0000           -0.4148786             -11.2894
        34        2.0000           -0.4121056             -11.2140
        35        2.0000           -0.3371731              -9.1749
        36        2.0000           -0.3336606              -9.0794 (HOMO)
        37                         -0.2995812              -8.1520 (LUMO)
        38                         -0.2334326              -6.3520
        39                         -0.2050121              -5.5787
        40                         -0.0956605              -2.6031
        41                         -0.0152023              -0.4137
        42                          0.0582275               1.5845
        43                          0.0875412               2.3821
        44                          0.1036812               2.8213
        45                          0.1161839               3.1615
        46                          0.1171692               3.1883
        47                          0.1271761               3.4606
       ...                                ...                  ...
        69                          0.6491338              17.6638
      -------------------------------------------------------------
                  HL-Gap            0.0340794 Eh            0.9273 eV
             Fermi-level           -0.3166092 Eh           -8.6154 eV

     #   Z        covCN         q      C6AA      α(0)
     1   6 C      2.913    -0.026    28.643     8.776
     2   6 C      2.925    -0.028    28.692     8.784
     3   6 C      2.970     0.024    27.456     8.595
     4   6 C      2.918    -0.018    28.464     8.749
     5   6 C      2.914    -0.026    28.653     8.778
     6   6 C      2.916    -0.023    28.576     8.766
     7   1 H      0.925     0.050     2.325     2.385
     8   1 H      0.926     0.045     2.378     2.412
     9   1 H      0.925     0.049     2.327     2.385
    10   7 N      2.683    -0.035    21.927     6.955
    11   6 C      3.744    -0.015    20.910     6.523
    12   1 H      0.925     0.074     2.046     2.237
    13   1 H      0.924     0.081     1.971     2.196
    14   1 H      0.860     0.235     0.943     1.521
    15   1 H      0.805     0.138     1.498     1.923
    16   6 C      2.840     0.081    26.192     8.387
    17   1 H      0.925     0.084     1.940     2.178
    18   8 O      0.805    -0.862    33.584     7.768
    19   6 C      3.803    -0.063    21.713     6.634
    20   1 H      0.924     0.060     2.198     2.318
    21   1 H      0.924     0.044     2.399     2.422
    22   1 H      0.925     0.050     2.321     2.382
    23   1 H      0.925     0.048     2.351     2.398
    24   6 C      3.800    -0.055    21.564     6.612
    25   1 H      0.924     0.042     2.418     2.432
    26   1 H      0.924     0.039     2.468     2.457
    27   6 C      3.750    -0.103    22.530     6.769
    28   1 H      0.924     0.040     2.444     2.445
    29   1 H      0.924     0.036     2.498     2.471
    30   1 H      0.924     0.033     2.538     2.492

 Mol. C6AA /au·bohr⁶  :       8279.419166
 Mol. C8AA /au·bohr⁸  :     188088.745549
 Mol. α(0) /au        :        141.148385


Wiberg/Mayer (AO) data.
largest (>0.10) Wiberg bond orders for each atom
          total WBO             WBO to atom ...
     1  C   3.991        C    2 1.458    C    6 1.433    H   22 0.970    C    4 0.102
     2  C   3.987        C    1 1.458    C    3 1.347    H    7 0.968
     3  C   3.986        C    2 1.347    C    4 1.332    C   16 1.144
     4  C   3.991        C    5 1.483    C    3 1.332    H    8 0.964    C    1 0.102
     5  C   3.991        C    4 1.483    C    6 1.407    H   23 0.970
     6  C   3.988        C    1 1.433    C    5 1.407    H    9 0.971
     7  H   0.998        C    2 0.968
     8  H   0.998        C    4 0.964
     9  H   0.997        C    6 0.971
    10  N   3.626        C   16 1.539    C   11 0.982    H   14 0.880    O   18 0.110
    11  C   3.951        C   19 0.992    N   10 0.982    H   12 0.967    H   13 0.957
    12  H   0.995        C   11 0.967
    13  H   0.991        C   11 0.957
    14  H   0.945        N   10 0.880
    15  H   0.981        O   18 0.976
    16  C   3.946        N   10 1.539    C    3 1.144    H   17 0.950    O   18 0.203
    17  H   0.993        C   16 0.950
    18  O   1.465        H   15 0.976    C   16 0.203    N   10 0.110
    19  C   3.986        C   24 1.004    C   11 0.992    H   21 0.975    H   20 0.970
    20  H   0.996        C   19 0.970
    21  H   0.998        C   19 0.975
    22  H   0.997        C    1 0.970
    23  H   0.997        C    5 0.970
    24  C   3.995        C   27 1.019    C   19 1.004    H   26 0.977    H   25 0.977
    25  H   0.998        C   24 0.977
    26  H   0.999        C   24 0.977
    27  C   3.995        C   24 1.019    H   30 0.988    H   29 0.988    H   28 0.986
    28  H   0.998        C   27 0.986
    29  H   0.999        C   27 0.988
    30  H   0.999        C   27 0.988

molecular dipole:
                 x           y           z       tot (Debye)
 q only:       -0.116       1.452      -2.268
   full:        0.005       1.199      -1.904       5.718
molecular quadrupole (traceless):
                xx          xy          yy          xz          yz          zz
 q only:        8.469      -2.977      -3.579       6.405      -3.785      -4.890
  q+dip:        6.564      -3.528       0.014       7.374      -0.099      -6.578
   full:        5.671      -3.131      -1.177       6.660      -2.397      -4.494

           -------------------------------------------------
          |                Property Printout                |
           -------------------------------------------------

    * Orbital Energies and Occupations

         #    Occupation            Energy/Eh            Energy/eV
      -------------------------------------------------------------
         1        2.0000           -0.6845982             -18.6289
       ...           ...                  ...                  ...
        24        2.0000           -0.4759231             -12.9505
        25        2.0000           -0.4719625             -12.8428
        26        2.0000           -0.4512214             -12.2784
        27        2.0000           -0.4500528             -12.2466
        28        2.0000           -0.4403247             -11.9818
        29        2.0000           -0.4379039             -11.9160
        30        2.0000           -0.4359794             -11.8636
        31        2.0000           -0.4321287             -11.7588
        32        2.0000           -0.4241593             -11.5420
        33        2.0000           -0.4148786             -11.2894
        34        2.0000           -0.4121056             -11.2140
        35        2.0000           -0.3371731              -9.1749
        36        2.0000           -0.3336606              -9.0794 (HOMO)
        37                         -0.2995812              -8.1520 (LUMO)
        38                         -0.2334326              -6.3520
        39                         -0.2050121              -5.5787
        40                         -0.0956605              -2.6031
        41                         -0.0152023              -0.4137
        42                          0.0582275               1.5845
        43                          0.0875412               2.3821
        44                          0.1036812               2.8213
        45                          0.1161839               3.1615
        46                          0.1171692               3.1883
        47                          0.1271761               3.4606
       ...                                ...                  ...
        69                          0.6491338              17.6638
      -------------------------------------------------------------
                  HL-Gap            0.0340794 Eh            0.9273 eV
             Fermi-level           -0.3166092 Eh           -8.6154 eV

     #   Z        covCN         q      C6AA      α(0)
     1   6 C      2.913    -0.026    28.643     8.776
     2   6 C      2.925    -0.028    28.692     8.784
     3   6 C      2.970     0.024    27.456     8.595
     4   6 C      2.918    -0.018    28.464     8.749
     5   6 C      2.914    -0.026    28.653     8.778
     6   6 C      2.916    -0.023    28.576     8.766
     7   1 H      0.925     0.050     2.325     2.385
     8   1 H      0.926     0.045     2.378     2.412
     9   1 H      0.925     0.049     2.327     2.385
    10   7 N      2.683    -0.035    21.927     6.955
    11   6 C      3.744    -0.015    20.910     6.523
    12   1 H      0.925     0.074     2.046     2.237
    13   1 H      0.924     0.081     1.971     2.196
    14   1 H      0.860     0.235     0.943     1.521
    15   1 H      0.805     0.138     1.498     1.923
    16   6 C      2.840     0.081    26.192     8.387
    17   1 H      0.925     0.084     1.940     2.178
    18   8 O      0.805    -0.862    33.584     7.768
    19   6 C      3.803    -0.063    21.713     6.634
    20   1 H      0.924     0.060     2.198     2.318
    21   1 H      0.924     0.044     2.399     2.422
    22   1 H      0.925     0.050     2.321     2.382
    23   1 H      0.925     0.048     2.351     2.398
    24   6 C      3.800    -0.055    21.564     6.612
    25   1 H      0.924     0.042     2.418     2.432
    26   1 H      0.924     0.039     2.468     2.457
    27   6 C      3.750    -0.103    22.530     6.769
    28   1 H      0.924     0.040     2.444     2.445
    29   1 H      0.924     0.036     2.498     2.471
    30   1 H      0.924     0.033     2.538     2.492

 Mol. C6AA /au·bohr⁶  :       8279.419166
 Mol. C8AA /au·bohr⁸  :     188088.745549
 Mol. α(0) /au        :        141.148385


Wiberg/Mayer (AO) data.
largest (>0.10) Wiberg bond orders for each atom
          total WBO             WBO to atom ...
     1  C   3.991        C    2 1.458    C    6 1.433    H   22 0.970    C    4 0.102
     2  C   3.987        C    1 1.458    C    3 1.347    H    7 0.968
     3  C   3.986        C    2 1.347    C    4 1.332    C   16 1.144
     4  C   3.991        C    5 1.483    C    3 1.332    H    8 0.964    C    1 0.102
     5  C   3.991        C    4 1.483    C    6 1.407    H   23 0.970
     6  C   3.988        C    1 1.433    C    5 1.407    H    9 0.971
     7  H   0.998        C    2 0.968
     8  H   0.998        C    4 0.964
     9  H   0.997        C    6 0.971
    10  N   3.626        C   16 1.539    C   11 0.982    H   14 0.880    O   18 0.110
    11  C   3.951        C   19 0.992    N   10 0.982    H   12 0.967    H   13 0.957
    12  H   0.995        C   11 0.967
    13  H   0.991        C   11 0.957
    14  H   0.945        N   10 0.880
    15  H   0.981        O   18 0.976
    16  C   3.946        N   10 1.539    C    3 1.144    H   17 0.950    O   18 0.203
    17  H   0.993        C   16 0.950
    18  O   1.465        H   15 0.976    C   16 0.203    N   10 0.110
    19  C   3.986        C   24 1.004    C   11 0.992    H   21 0.975    H   20 0.970
    20  H   0.996        C   19 0.970
    21  H   0.998        C   19 0.975
    22  H   0.997        C    1 0.970
    23  H   0.997        C    5 0.970
    24  C   3.995        C   27 1.019    C   19 1.004    H   26 0.977    H   25 0.977
    25  H   0.998        C   24 0.977
    26  H   0.999        C   24 0.977
    27  C   3.995        C   24 1.019    H   30 0.988    H   29 0.988    H   28 0.986
    28  H   0.998        C   27 0.986
    29  H   0.999        C   27 0.988
    30  H   0.999        C   27 0.988

molecular dipole:
                 x           y           z       tot (Debye)
 q only:       -0.116       1.452      -2.268
   full:        0.005       1.199      -1.904       5.718
molecular quadrupole (traceless):
                xx          xy          yy          xz          yz          zz
 q only:        8.469      -2.977      -3.579       6.405      -3.785      -4.890
  q+dip:        6.564      -3.528       0.014       7.374      -0.099      -6.578
   full:        5.671      -3.131      -1.177       6.660      -2.397      -4.494


           -------------------------------------------------
          | TOTAL ENERGY              -39.130479875847 Eh   |
          | GRADIENT NORM               0.034672860122 Eh/α |
          | HOMO-LUMO GAP               0.927347331418 eV   |
           -------------------------------------------------

------------------------------------------------------------------------
 * finished run on 2020/08/07 at 21:39:21.569     
------------------------------------------------------------------------
 total:
 * wall-time:     0 d,  0 h,  0 min,  0.123 sec
 *  cpu-time:     0 d,  0 h,  0 min,  0.872 sec
 * ratio c/w:     7.090 speedup
 SCF:
 * wall-time:     0 d,  0 h,  0 min,  0.027 sec
 *  cpu-time:     0 d,  0 h,  0 min,  0.193 sec
 * ratio c/w:     7.051 speedup


-------------------------   --------------------
FINAL SINGLE POINT ENERGY       -39.130479875850
-------------------------   --------------------


----------------------------------------------------------------------------
                           ORCA NUMERICAL FREQUENCIES
                              (8-process run)
----------------------------------------------------------------------------

Number of atoms                ... 30
Central differences            ... used
Number of displacements        ... 180
Numerical increment            ... 5.000e-03 bohr
IR-spectrum generation         ... on
Raman-spectrum generation      ... off
Surface Crossing Hessian       ... off
List of participating nodes    ...  /tmp/slurm-scratch/freq.66/freq.hostnames

The output will be reduced. Please look at the following files:
SCF program output             ... >/tmp/slurm-scratch/freq.66/freq.lastscf
Integral program output        ... >/tmp/slurm-scratch/freq.66/freq.lastint
Gradient program output        ... >/tmp/slurm-scratch/freq.66/freq.lastgrad
Dipole moment program output   ... >/tmp/slurm-scratch/freq.66/freq.lastmom
AutoCI program output          ... >/tmp/slurm-scratch/freq.66/freq.lastautoci


         <<< Energy and Gradient at the input geometry >>>

        <<< Energy and Gradient at displaced geometries >>>
             <<<Displacing   1/coordinate 2 (+)>>>
             <<<Displacing   1/coordinate 1 (+)>>>
             <<<Displacing   2/coordinate 1 (+)>>>
             <<<Displacing   1/coordinate 3 (+)>>>
             <<<Displacing   3/coordinate 1 (+)>>>
             <<<Displacing   2/coordinate 3 (+)>>>
             <<<Displacing   3/coordinate 2 (+)>>>
             <<<Displacing   1/coordinate 2 (-)>>>
             <<<Displacing   1/coordinate 1 (-)>>>
             <<<Displacing   1/coordinate 3 (-)>>>
             <<<Displacing   2/coordinate 1 (-)>>>
             <<<Displacing   3/coordinate 1 (-)>>>
             <<<Displacing   2/coordinate 3 (-)>>>
             <<<Displacing   3/coordinate 2 (-)>>>
             <<<Displacing   2/coordinate 2 (+)>>>
             <<<Displacing   2/coordinate 2 (-)>>>
             <<<Displacing   4/coordinate 1 (+)>>>
             <<<Displacing   3/coordinate 3 (+)>>>
             <<<Displacing   4/coordinate 3 (+)>>>
             <<<Displacing   4/coordinate 2 (+)>>>
             <<<Displacing   5/coordinate 1 (+)>>>
             <<<Displacing   4/coordinate 1 (-)>>>
             <<<Displacing   3/coordinate 3 (-)>>>
             <<<Displacing   4/coordinate 3 (-)>>>
             <<<Displacing   5/coordinate 3 (+)>>>
             <<<Displacing   5/coordinate 2 (+)>>>
             <<<Displacing   4/coordinate 2 (-)>>>
             <<<Displacing   5/coordinate 1 (-)>>>
             <<<Displacing   5/coordinate 3 (-)>>>
             <<<Displacing   6/coordinate 1 (+)>>>
             <<<Displacing   5/coordinate 2 (-)>>>
             <<<Displacing   6/coordinate 1 (-)>>>
             <<<Displacing   6/coordinate 3 (+)>>>
             <<<Displacing   6/coordinate 2 (+)>>>
             <<<Displacing   7/coordinate 1 (+)>>>
             <<<Displacing   7/coordinate 2 (+)>>>
             <<<Displacing   6/coordinate 3 (-)>>>
             <<<Displacing   7/coordinate 3 (+)>>>
             <<<Displacing   6/coordinate 2 (-)>>>
             <<<Displacing   8/coordinate 1 (+)>>>
             <<<Displacing   7/coordinate 1 (-)>>>
             <<<Displacing   7/coordinate 2 (-)>>>
             <<<Displacing   7/coordinate 3 (-)>>>
             <<<Displacing   8/coordinate 2 (+)>>>
             <<<Displacing   8/coordinate 1 (-)>>>
             <<<Displacing   8/coordinate 3 (+)>>>
             <<<Displacing   8/coordinate 2 (-)>>>
             <<<Displacing   8/coordinate 3 (-)>>>
             <<<Displacing   9/coordinate 2 (+)>>>
             <<<Displacing   9/coordinate 1 (+)>>>
             <<<Displacing  10/coordinate 2 (+)>>>
             <<<Displacing  10/coordinate 3 (+)>>>
             <<<Displacing   9/coordinate 2 (-)>>>
             <<<Displacing   9/coordinate 3 (+)>>>
             <<<Displacing   9/coordinate 1 (-)>>>
             <<<Displacing  10/coordinate 1 (+)>>>
             <<<Displacing  10/coordinate 2 (-)>>>
             <<<Displacing  11/coordinate 1 (+)>>>
             <<<Displacing  10/coordinate 3 (-)>>>
             <<<Displacing   9/coordinate 3 (-)>>>
             <<<Displacing  11/coordinate 2 (+)>>>
             <<<Displacing  10/coordinate 1 (-)>>>
             <<<Displacing  11/coordinate 1 (-)>>>
             <<<Displacing  11/coordinate 2 (-)>>>
             <<<Displacing  11/coordinate 3 (+)>>>
             <<<Displacing  12/coordinate 1 (+)>>>
             <<<Displacing  12/coordinate 3 (+)>>>
             <<<Displacing  12/coordinate 2 (+)>>>
             <<<Displacing  11/coordinate 3 (-)>>>
             <<<Displacing  13/coordinate 1 (+)>>>
             <<<Displacing  12/coordinate 1 (-)>>>
             <<<Displacing  12/coordinate 2 (-)>>>
             <<<Displacing  13/coordinate 2 (+)>>>
             <<<Displacing  12/coordinate 3 (-)>>>
             <<<Displacing  13/coordinate 1 (-)>>>
             <<<Displacing  13/coordinate 3 (+)>>>
             <<<Displacing  14/coordinate 1 (+)>>>
             <<<Displacing  13/coordinate 2 (-)>>>
             <<<Displacing  13/coordinate 3 (-)>>>
             <<<Displacing  14/coordinate 1 (-)>>>
             <<<Displacing  14/coordinate 3 (+)>>>
             <<<Displacing  14/coordinate 2 (+)>>>
             <<<Displacing  15/coordinate 2 (+)>>>
             <<<Displacing  14/coordinate 3 (-)>>>
             <<<Displacing  15/coordinate 1 (+)>>>
             <<<Displacing  15/coordinate 3 (+)>>>
             <<<Displacing  14/coordinate 2 (-)>>>
             <<<Displacing  15/coordinate 2 (-)>>>
             <<<Displacing  15/coordinate 3 (-)>>>
             <<<Displacing  15/coordinate 1 (-)>>>
             <<<Displacing  16/coordinate 3 (+)>>>
             <<<Displacing  16/coordinate 1 (+)>>>
             <<<Displacing  16/coordinate 2 (+)>>>
             <<<Displacing  16/coordinate 3 (-)>>>
             <<<Displacing  16/coordinate 1 (-)>>>
             <<<Displacing  16/coordinate 2 (-)>>>
             <<<Displacing  17/coordinate 1 (+)>>>
             <<<Displacing  17/coordinate 3 (+)>>>
             <<<Displacing  17/coordinate 1 (-)>>>
             <<<Displacing  18/coordinate 2 (+)>>>
             <<<Displacing  18/coordinate 1 (+)>>>
             <<<Displacing  17/coordinate 3 (-)>>>
             <<<Displacing  18/coordinate 1 (-)>>>
             <<<Displacing  18/coordinate 2 (-)>>>
             <<<Displacing  18/coordinate 3 (+)>>>
             <<<Displacing  19/coordinate 1 (+)>>>
             <<<Displacing  19/coordinate 2 (+)>>>
             <<<Displacing  18/coordinate 3 (-)>>>
             <<<Displacing  19/coordinate 1 (-)>>>
             <<<Displacing  19/coordinate 2 (-)>>>
             <<<Displacing  17/coordinate 2 (+)>>>
             <<<Displacing  17/coordinate 2 (-)>>>
             <<<Displacing  19/coordinate 3 (+)>>>
             <<<Displacing  20/coordinate 1 (+)>>>
             <<<Displacing  20/coordinate 3 (+)>>>
             <<<Displacing  20/coordinate 2 (+)>>>
             <<<Displacing  19/coordinate 3 (-)>>>
             <<<Displacing  20/coordinate 1 (-)>>>
             <<<Displacing  20/coordinate 3 (-)>>>
             <<<Displacing  20/coordinate 2 (-)>>>
             <<<Displacing  21/coordinate 1 (+)>>>
             <<<Displacing  21/coordinate 2 (+)>>>
             <<<Displacing  21/coordinate 3 (+)>>>
             <<<Displacing  21/coordinate 1 (-)>>>
             <<<Displacing  21/coordinate 2 (-)>>>
             <<<Displacing  21/coordinate 3 (-)>>>
             <<<Displacing  22/coordinate 1 (+)>>>
             <<<Displacing  22/coordinate 1 (-)>>>
             <<<Displacing  22/coordinate 2 (+)>>>
             <<<Displacing  22/coordinate 3 (+)>>>
             <<<Displacing  22/coordinate 2 (-)>>>
             <<<Displacing  23/coordinate 2 (+)>>>
             <<<Displacing  22/coordinate 3 (-)>>>
             <<<Displacing  23/coordinate 1 (+)>>>
             <<<Displacing  23/coordinate 2 (-)>>>
             <<<Displacing  23/coordinate 3 (+)>>>
             <<<Displacing  24/coordinate 1 (+)>>>
             <<<Displacing  23/coordinate 1 (-)>>>
             <<<Displacing  24/coordinate 2 (+)>>>
             <<<Displacing  23/coordinate 3 (-)>>>
             <<<Displacing  24/coordinate 1 (-)>>>
             <<<Displacing  24/coordinate 2 (-)>>>
             <<<Displacing  24/coordinate 3 (+)>>>
             <<<Displacing  24/coordinate 3 (-)>>>
             <<<Displacing  25/coordinate 1 (+)>>>
             <<<Displacing  25/coordinate 2 (+)>>>
             <<<Displacing  25/coordinate 1 (-)>>>
             <<<Displacing  25/coordinate 2 (-)>>>
             <<<Displacing  25/coordinate 3 (+)>>>
             <<<Displacing  26/coordinate 1 (+)>>>
             <<<Displacing  26/coordinate 2 (+)>>>
             <<<Displacing  26/coordinate 3 (+)>>>
             <<<Displacing  25/coordinate 3 (-)>>>
             <<<Displacing  27/coordinate 1 (+)>>>
             <<<Displacing  26/coordinate 1 (-)>>>
             <<<Displacing  26/coordinate 2 (-)>>>
             <<<Displacing  26/coordinate 3 (-)>>>
             <<<Displacing  27/coordinate 1 (-)>>>
             <<<Displacing  27/coordinate 2 (+)>>>
             <<<Displacing  27/coordinate 2 (-)>>>
             <<<Displacing  27/coordinate 3 (+)>>>
             <<<Displacing  28/coordinate 1 (+)>>>
             <<<Displacing  27/coordinate 3 (-)>>>
             <<<Displacing  28/coordinate 1 (-)>>>
             <<<Displacing  28/coordinate 2 (+)>>>
             <<<Displacing  29/coordinate 2 (+)>>>
             <<<Displacing  29/coordinate 1 (+)>>>
             <<<Displacing  28/coordinate 3 (+)>>>
             <<<Displacing  28/coordinate 2 (-)>>>
             <<<Displacing  29/coordinate 1 (-)>>>
             <<<Displacing  29/coordinate 3 (+)>>>
             <<<Displacing  28/coordinate 3 (-)>>>
             <<<Displacing  29/coordinate 2 (-)>>>
             <<<Displacing  29/coordinate 3 (-)>>>
             <<<Displacing  30/coordinate 1 (+)>>>
             <<<Displacing  30/coordinate 1 (-)>>>
             <<<Displacing  30/coordinate 2 (+)>>>
             <<<Displacing  30/coordinate 3 (+)>>>
             <<<Displacing  30/coordinate 2 (-)>>>
             <<<Displacing  30/coordinate 3 (-)>>>

-----------------------
VIBRATIONAL FREQUENCIES
-----------------------

Scaling factor for frequencies =  1.000000000 (already applied!)

   0:         0.00 cm**-1
   1:         0.00 cm**-1
   2:         0.00 cm**-1
   3:         0.00 cm**-1
   4:         0.00 cm**-1
   5:         0.00 cm**-1
   6:      -337.01 cm**-1 ***imaginary mode***
   7:        27.01 cm**-1
   8:        53.09 cm**-1
   9:        59.29 cm**-1
  10:        91.13 cm**-1
  11:       102.90 cm**-1
  12:       121.14 cm**-1
  13:       141.99 cm**-1
  14:       167.91 cm**-1
  15:       187.25 cm**-1
  16:       246.98 cm**-1
  17:       268.71 cm**-1
  18:       273.54 cm**-1
  19:       362.18 cm**-1
  20:       371.63 cm**-1
  21:       377.64 cm**-1
  22:       410.21 cm**-1
  23:       450.74 cm**-1
  24:       485.31 cm**-1
  25:       540.30 cm**-1
  26:       582.53 cm**-1
  27:       590.79 cm**-1
  28:       626.59 cm**-1
  29:       657.98 cm**-1
  30:       752.07 cm**-1
  31:       769.88 cm**-1
  32:       820.13 cm**-1
  33:       849.62 cm**-1
  34:       856.01 cm**-1
  35:       877.25 cm**-1
  36:       900.30 cm**-1
  37:       926.94 cm**-1
  38:       932.69 cm**-1
  39:       937.60 cm**-1
  40:       947.18 cm**-1
  41:       982.69 cm**-1
  42:      1033.53 cm**-1
  43:      1065.44 cm**-1
  44:      1072.19 cm**-1
  45:      1101.55 cm**-1
  46:      1115.36 cm**-1
  47:      1122.23 cm**-1
  48:      1131.35 cm**-1
  49:      1179.91 cm**-1
  50:      1183.77 cm**-1
  51:      1201.27 cm**-1
  52:      1218.70 cm**-1
  53:      1242.70 cm**-1
  54:      1259.59 cm**-1
  55:      1269.91 cm**-1
  56:      1279.71 cm**-1
  57:      1291.72 cm**-1
  58:      1309.31 cm**-1
  59:      1328.85 cm**-1
  60:      1339.85 cm**-1
  61:      1367.28 cm**-1
  62:      1420.71 cm**-1
  63:      1427.52 cm**-1
  64:      1451.18 cm**-1
  65:      1457.83 cm**-1
  66:      1501.58 cm**-1
  67:      1503.29 cm**-1
  68:      1506.25 cm**-1
  69:      1510.77 cm**-1
  70:      1557.67 cm**-1
  71:      1558.64 cm**-1
  72:      1626.65 cm**-1
  73:      2939.53 cm**-1
  74:      2957.54 cm**-1
  75:      2964.39 cm**-1
  76:      2967.88 cm**-1
  77:      2983.47 cm**-1
  78:      2987.26 cm**-1
  79:      2998.77 cm**-1
  80:      2999.31 cm**-1
  81:      3004.95 cm**-1
  82:      3041.52 cm**-1
  83:      3058.05 cm**-1
  84:      3061.30 cm**-1
  85:      3067.46 cm**-1
  86:      3075.10 cm**-1
  87:      3084.17 cm**-1
  88:      3233.98 cm**-1
  89:      3590.51 cm**-1


------------
NORMAL MODES
------------

These modes are the cartesian displacements weighted by the diagonal matrix
M(i,i)=1/sqrt(m[i]) where m[i] is the mass of the displaced atom
Thus, these vectors are normalized but *not* orthogonal

                  0          1          2          3          4          5    
      0       0.000000   0.000000   0.000000   0.000000   0.000000   0.000000
      1       0.000000   0.000000   0.000000   0.000000   0.000000   0.000000
      2       0.000000   0.000000   0.000000   0.000000   0.000000   0.000000
      3       0.000000   0.000000   0.000000   0.000000   0.000000   0.000000
      4       0.000000   0.000000   0.000000   0.000000   0.000000   0.000000
      5       0.000000   0.000000   0.000000   0.000000   0.000000   0.000000
      6       0.000000   0.000000   0.000000   0.000000   0.000000   0.000000
      7       0.000000   0.000000   0.000000   0.000000   0.000000   0.000000
      8       0.000000   0.000000   0.000000   0.000000   0.000000   0.000000
      9       0.000000   0.000000   0.000000   0.000000   0.000000   0.000000
     10       0.000000   0.000000   0.000000   0.000000   0.000000   0.000000
     11       0.000000   0.000000   0.000000   0.000000   0.000000   0.000000
     12       0.000000   0.000000   0.000000   0.000000   0.000000   0.000000
     13       0.000000   0.000000   0.000000   0.000000   0.000000   0.000000
     14       0.000000   0.000000   0.000000   0.000000   0.000000   0.000000
     15       0.000000   0.000000   0.000000   0.000000   0.000000   0.000000
     16       0.000000   0.000000   0.000000   0.000000   0.000000   0.000000
     17       0.000000   0.000000   0.000000   0.000000   0.000000   0.000000
     18       0.000000   0.000000   0.000000   0.000000   0.000000   0.000000
     19       0.000000   0.000000   0.000000   0.000000   0.000000   0.000000
     20       0.000000   0.000000   0.000000   0.000000   0.000000   0.000000
     21       0.000000   0.000000   0.000000   0.000000   0.000000   0.000000
     22       0.000000   0.000000   0.000000   0.000000   0.000000   0.000000
     23       0.000000   0.000000   0.000000   0.000000   0.000000   0.000000
     24       0.000000   0.000000   0.000000   0.000000   0.000000   0.000000
     25       0.000000   0.000000   0.000000   0.000000   0.000000   0.000000
     26       0.000000   0.000000   0.000000   0.000000   0.000000   0.000000
     27       0.000000   0.000000   0.000000   0.000000   0.000000   0.000000
     28       0.000000   0.000000   0.000000   0.000000   0.000000   0.000000
     29       0.000000   0.000000   0.000000   0.000000   0.000000   0.000000
     30       0.000000   0.000000   0.000000   0.000000   0.000000   0.000000
     31       0.000000   0.000000   0.000000   0.000000   0.000000   0.000000
     32       0.000000   0.000000   0.000000   0.000000   0.000000   0.000000
     33       0.000000   0.000000   0.000000   0.000000   0.000000   0.000000
     34       0.000000   0.000000   0.000000   0.000000   0.000000   0.000000
     35       0.000000   0.000000   0.000000   0.000000   0.000000   0.000000
     36       0.000000   0.000000   0.000000   0.000000   0.000000   0.000000
     37       0.000000   0.000000   0.000000   0.000000   0.000000   0.000000
     38       0.000000   0.000000   0.000000   0.000000   0.000000   0.000000
     39       0.000000   0.000000   0.000000   0.000000   0.000000   0.000000
     40       0.000000   0.000000   0.000000   0.000000   0.000000   0.000000
     41       0.000000   0.000000   0.000000   0.000000   0.000000   0.000000
     42       0.000000   0.000000   0.000000   0.000000   0.000000   0.000000
     43       0.000000   0.000000   0.000000   0.000000   0.000000   0.000000
     44       0.000000   0.000000   0.000000   0.000000   0.000000   0.000000
     45       0.000000   0.000000   0.000000   0.000000   0.000000   0.000000
     46       0.000000   0.000000   0.000000   0.000000   0.000000   0.000000
     47       0.000000   0.000000   0.000000   0.000000   0.000000   0.000000
     48       0.000000   0.000000   0.000000   0.000000   0.000000   0.000000
     49       0.000000   0.000000   0.000000   0.000000   0.000000   0.000000
     50       0.000000   0.000000   0.000000   0.000000   0.000000   0.000000
     51       0.000000   0.000000   0.000000   0.000000   0.000000   0.000000
     52       0.000000   0.000000   0.000000   0.000000   0.000000   0.000000
     53       0.000000   0.000000   0.000000   0.000000   0.000000   0.000000
     54       0.000000   0.000000   0.000000   0.000000   0.000000   0.000000
     55       0.000000   0.000000   0.000000   0.000000   0.000000   0.000000
     56       0.000000   0.000000   0.000000   0.000000   0.000000   0.000000
     57       0.000000   0.000000   0.000000   0.000000   0.000000   0.000000
     58       0.000000   0.000000   0.000000   0.000000   0.000000   0.000000
     59       0.000000   0.000000   0.000000   0.000000   0.000000   0.000000
     60       0.000000   0.000000   0.000000   0.000000   0.000000   0.000000
     61       0.000000   0.000000   0.000000   0.000000   0.000000   0.000000
     62       0.000000   0.000000   0.000000   0.000000   0.000000   0.000000
     63       0.000000   0.000000   0.000000   0.000000   0.000000   0.000000
     64       0.000000   0.000000   0.000000   0.000000   0.000000   0.000000
     65       0.000000   0.000000   0.000000   0.000000   0.000000   0.000000
     66       0.000000   0.000000   0.000000   0.000000   0.000000   0.000000
     67       0.000000   0.000000   0.000000   0.000000   0.000000   0.000000
     68       0.000000   0.000000   0.000000   0.000000   0.000000   0.000000
     69       0.000000   0.000000   0.000000   0.000000   0.000000   0.000000
     70       0.000000   0.000000   0.000000   0.000000   0.000000   0.000000
     71       0.000000   0.000000   0.000000   0.000000   0.000000   0.000000
     72       0.000000   0.000000   0.000000   0.000000   0.000000   0.000000
     73       0.000000   0.000000   0.000000   0.000000   0.000000   0.000000
     74       0.000000   0.000000   0.000000   0.000000   0.000000   0.000000
     75       0.000000   0.000000   0.000000   0.000000   0.000000   0.000000
     76       0.000000   0.000000   0.000000   0.000000   0.000000   0.000000
     77       0.000000   0.000000   0.000000   0.000000   0.000000   0.000000
     78       0.000000   0.000000   0.000000   0.000000   0.000000   0.000000
     79       0.000000   0.000000   0.000000   0.000000   0.000000   0.000000
     80       0.000000   0.000000   0.000000   0.000000   0.000000   0.000000
     81       0.000000   0.000000   0.000000   0.000000   0.000000   0.000000
     82       0.000000   0.000000   0.000000   0.000000   0.000000   0.000000
     83       0.000000   0.000000   0.000000   0.000000   0.000000   0.000000
     84       0.000000   0.000000   0.000000   0.000000   0.000000   0.000000
     85       0.000000   0.000000   0.000000   0.000000   0.000000   0.000000
     86       0.000000   0.000000   0.000000   0.000000   0.000000   0.000000
     87       0.000000   0.000000   0.000000   0.000000   0.000000   0.000000
     88       0.000000   0.000000   0.000000   0.000000   0.000000   0.000000
     89       0.000000   0.000000   0.000000   0.000000   0.000000   0.000000
                  6          7          8          9         10         11    
      0      -0.003443  -0.070572  -0.007125   0.039269  -0.005450   0.033288
      1       0.002345   0.025911   0.027577   0.143079   0.011827  -0.027153
      2      -0.010124   0.114431  -0.022617  -0.179484  -0.040442  -0.021026
      3      -0.009161  -0.078628  -0.002637   0.017281   0.000745   0.032432
      4      -0.017179  -0.019172   0.040808   0.053002   0.039135  -0.015267
      5       0.006877   0.087016  -0.061393  -0.066967  -0.076069   0.051210
      6      -0.000475  -0.026555  -0.007127   0.019685  -0.014995   0.001522
      7      -0.035460  -0.018940   0.016081  -0.043092   0.017602   0.010621
      8       0.023507   0.002342  -0.014561   0.089737  -0.012941   0.057842
      9       0.013354   0.033272  -0.014648   0.042162  -0.036136  -0.030868
     10      -0.013315   0.029967  -0.030796  -0.056352  -0.029503   0.014470
     11      -0.004777  -0.049669   0.082451   0.141632   0.072281   0.016187
     12       0.014355   0.040422  -0.019885   0.062667  -0.046127  -0.030144
     13      -0.000220   0.074983  -0.048251   0.029847  -0.066091   0.004245
     14      -0.009701  -0.020062   0.128679   0.033748   0.125915  -0.059911
     15       0.005830  -0.010909  -0.016316   0.062436  -0.031081   0.003382
     16       0.005104   0.073677  -0.017981   0.131503  -0.046080  -0.012685
     17      -0.005930   0.059958   0.075077  -0.130153   0.073261  -0.085103
     18      -0.017264  -0.124311   0.004361   0.001227   0.019358   0.057193
     19      -0.023498  -0.055755   0.074147   0.064489   0.077838  -0.021471
     20       0.014097   0.128427  -0.133733  -0.110155  -0.149026   0.090354
     21       0.021387   0.073106  -0.016328   0.040236  -0.049073  -0.053571
     22      -0.033776   0.034575  -0.060165  -0.141990  -0.048696   0.026242
     23       0.016122  -0.115855   0.132142   0.282511   0.123016   0.030945
     24       0.006566  -0.004445  -0.020196   0.078576  -0.038596   0.005061
     25       0.009843   0.109964  -0.031389   0.198107  -0.076829  -0.015213
     26       0.000887   0.080010   0.109673  -0.214996   0.116916  -0.149374
     27      -0.017565   0.009729  -0.000360   0.011191  -0.026172   0.029783
     28       0.032156  -0.091521   0.075723  -0.040620   0.074000   0.044793
     29      -0.116099  -0.096348  -0.104633   0.058138  -0.038801  -0.010825
     30      -0.019991   0.000907  -0.002902   0.021948  -0.029142   0.024993
     31       0.011924  -0.129622   0.074882  -0.001955   0.073813   0.009400
     32      -0.016428  -0.143416  -0.048427   0.051389   0.028048  -0.055483
     33       0.006350  -0.008877  -0.003829   0.050980  -0.009088  -0.003290
     34      -0.001628  -0.064817   0.033954  -0.012744   0.099047   0.048265
     35       0.026864  -0.357062   0.083992   0.093201  -0.051495  -0.190797
     36      -0.075740  -0.019028  -0.017954   0.044560  -0.100161   0.021312
     37       0.049285  -0.352966   0.201947   0.055086  -0.016089  -0.143750
     38      -0.000370  -0.124228  -0.049755   0.041058   0.055895  -0.045838
     39      -0.000880   0.035096  -0.007702  -0.006967  -0.027675   0.029150
     40       0.017376  -0.086739   0.067954  -0.051514   0.068306   0.043008
     41      -0.682198  -0.072994  -0.227272  -0.057313  -0.082602  -0.039818
     42       0.249118   0.021742  -0.200981  -0.120717   0.238860  -0.300285
     43       0.420125  -0.124755  -0.113381  -0.307415  -0.079325  -0.059394
     44       0.110566  -0.125840  -0.080882  -0.023099  -0.219607   0.066615
     45      -0.025113  -0.037670   0.000681   0.006604  -0.012349   0.006223
     46      -0.117914  -0.068288   0.034794  -0.093296   0.030693   0.032221
     47       0.152716  -0.036279  -0.046586   0.151817   0.004493   0.054172
     48      -0.063095  -0.084409   0.003917  -0.007067   0.002236   0.001272
     49      -0.197154  -0.083781   0.021840  -0.121862   0.019950   0.023572
     50       0.403315  -0.024802   0.001910   0.245194   0.061750   0.076845
     51       0.016655   0.010067  -0.154280  -0.079928   0.158676  -0.206025
     52       0.085320  -0.126259  -0.065698  -0.249515  -0.093423  -0.001395
     53       0.004042  -0.119397  -0.074058  -0.005113  -0.179490   0.051089
     54       0.003761   0.029520   0.032034  -0.043052   0.033170   0.072386
     55      -0.001115   0.037317  -0.041722   0.001602   0.132881   0.083118
     56      -0.002982   0.060158  -0.132389  -0.009004   0.150055   0.066483
     57       0.019049   0.077443   0.134473  -0.077825  -0.023428   0.031233
     58      -0.001159   0.197116  -0.238325  -0.057943   0.359058   0.310488
     59      -0.011451   0.047743  -0.194736   0.003333   0.191778   0.102223
     60       0.005049  -0.004154  -0.060621  -0.077350   0.193845   0.220611
     61      -0.000469  -0.035899   0.032608   0.016991   0.057968   0.005239
     62      -0.003950   0.235764  -0.311544  -0.045480   0.330055   0.253068
     63      -0.008476  -0.109891  -0.003978   0.036993   0.006798   0.058692
     64       0.011193   0.025437   0.048849   0.220077   0.029760  -0.043807
     65      -0.016794   0.176613  -0.063413  -0.305280  -0.089470  -0.032892
     66       0.021901   0.085925  -0.026371   0.078936  -0.063604  -0.056621
     67       0.003021   0.111946  -0.085538   0.018388  -0.110429   0.011912
     68      -0.010075  -0.060641   0.207232   0.075360   0.209565  -0.102159
     69       0.002760   0.042674   0.068378  -0.021237  -0.043062   0.004525
     70      -0.003546   0.076937   0.006906   0.072105  -0.044908  -0.083951
     71       0.003789   0.042076   0.111254  -0.040351  -0.036894  -0.104229
     72       0.000340   0.025765  -0.059403   0.010285   0.038042   0.036609
     73      -0.002903  -0.001222   0.135493   0.105299  -0.210531  -0.335716
     74       0.004650   0.042067   0.177231  -0.050742  -0.086376  -0.140802
     75       0.003167   0.070365   0.166990   0.017424  -0.217615  -0.150214
     76      -0.003351   0.114403  -0.042007   0.067113   0.002883   0.000627
     77       0.003486  -0.044672   0.223943  -0.028785  -0.147020  -0.298999
     78       0.001948   0.039978   0.143517  -0.092443   0.002662   0.099369
     79      -0.002038   0.163542  -0.050552   0.109149  -0.074983  -0.044076
     80       0.004134   0.133694   0.126816  -0.074505  -0.021123   0.037816
     81       0.002030   0.050208   0.154536  -0.076626  -0.042303   0.052936
     82      -0.001268   0.191998  -0.043379   0.156581  -0.179480  -0.154672
     83       0.003496   0.128773   0.260167  -0.104555  -0.115404  -0.041410
     84       0.001308   0.006130   0.088501  -0.125156   0.136574   0.223592
     85      -0.002496   0.133148  -0.015965   0.113500  -0.112428  -0.120969
     86       0.005150   0.207985   0.051341  -0.081336   0.052965   0.204794
     87       0.001651   0.061960   0.245346  -0.128532  -0.053139   0.095533
     88      -0.001649   0.228126  -0.136080   0.084605   0.044656   0.171589
     89       0.004261   0.130713   0.080206  -0.062660   0.010575   0.057720
                 12         13         14         15         16         17    
      0       0.008098  -0.006025  -0.044950  -0.044866   0.074855  -0.041361
      1      -0.010773   0.019988   0.004880   0.017264  -0.004440   0.017879
      2       0.007029   0.061405   0.021594   0.010084  -0.025553  -0.015769
      3       0.009924  -0.009593  -0.033831  -0.066523   0.083829  -0.035127
      4       0.003973  -0.032465   0.022502  -0.092470   0.057466   0.025405
      5       0.022430  -0.055781  -0.065581   0.078150  -0.093429  -0.049152
      6      -0.004145   0.055882  -0.015688  -0.019253   0.040705  -0.015638
      7       0.016520  -0.061397   0.018199  -0.126724   0.052712  -0.007093
      8       0.025055  -0.122542  -0.098729   0.060089  -0.024398  -0.012579
      9      -0.021085   0.145136   0.000824   0.034148   0.047651  -0.023518
     10       0.016928  -0.030496   0.021172  -0.113426   0.084689   0.014171
     11       0.007739  -0.104419  -0.097012   0.081058  -0.090839  -0.060833
     12      -0.024537   0.156728  -0.006010   0.063290   0.032892  -0.029513
     13      -0.000012   0.025188   0.008584   0.007631   0.007589   0.003819
     14      -0.002681   0.001567  -0.012536  -0.009613  -0.003988  -0.016291
     15      -0.009688   0.079056  -0.033867   0.028397   0.043773  -0.052697
     16      -0.013561   0.040187  -0.010588   0.089137  -0.073711  -0.014821
     17      -0.002788   0.095287   0.064118  -0.086627   0.107564   0.049819
     18       0.023236  -0.070989  -0.049423  -0.120221   0.122593  -0.048333
     19       0.005050  -0.048883   0.026496  -0.131360   0.094742   0.032670
     20       0.033223  -0.077579  -0.092361   0.117132  -0.141313  -0.080715
     21      -0.032562   0.202342   0.027184   0.055844   0.047447  -0.023391
     22       0.028035  -0.047702   0.023876  -0.161995   0.125681   0.038805
     23       0.007212  -0.163559  -0.141114   0.126381  -0.157397  -0.098712
     24      -0.011893   0.081781  -0.041573   0.053308   0.021235  -0.060399
     25      -0.026346   0.070900  -0.034125   0.195513  -0.162146  -0.042531
     26      -0.011163   0.188344   0.147149  -0.197145   0.246127   0.122096
     27      -0.005967  -0.039076  -0.030392  -0.054746  -0.002914   0.008391
     28       0.026364  -0.011556   0.068336  -0.037298  -0.036050  -0.069568
     29       0.041095  -0.026226  -0.056537   0.027487   0.099002   0.051014
     30      -0.005125  -0.024371  -0.021478  -0.017344  -0.015664   0.043583
     31       0.029209   0.097805   0.068033   0.118618  -0.049175   0.011228
     32       0.021126   0.160826  -0.044149  -0.076172  -0.097701   0.025170
     33      -0.023753   0.085418  -0.004099   0.055561  -0.049857   0.089834
     34      -0.014176   0.047422   0.066675   0.130509   0.006559   0.001972
     35       0.159864   0.347072  -0.043169  -0.098707  -0.286401   0.067662
     36       0.050065  -0.116432  -0.049465   0.032054   0.120485   0.060204
     37       0.176253   0.305944   0.061603   0.126735  -0.226646   0.077556
     38      -0.004921   0.178562  -0.034812  -0.091698  -0.131950   0.016001
     39      -0.000027  -0.101267   0.002862  -0.157552   0.004885  -0.021365
     40       0.026416  -0.026953   0.057900  -0.044665  -0.035938  -0.069656
     41       0.041494  -0.117384  -0.566154   0.292434   0.085992   0.166835
     42       0.146186  -0.250053   0.430036   0.154827  -0.102838  -0.062158
     43      -0.020945  -0.031974  -0.146458   0.055403  -0.025975   0.011220
     44      -0.043471  -0.003148   0.244026  -0.015328   0.035108   0.037777
     45      -0.003744   0.049344   0.006881  -0.001011  -0.006429  -0.016098
     46       0.021920  -0.073649   0.031973  -0.059877  -0.036669  -0.055442
     47       0.043281  -0.098654  -0.103578  -0.048228   0.130181   0.070715
     48       0.000337   0.096285   0.005285   0.078094  -0.034272  -0.037339
     49       0.019286  -0.070105   0.011862   0.009188  -0.064174  -0.065900
     50       0.058423  -0.060648  -0.040797  -0.213889   0.208897   0.088609
     51       0.101051  -0.133113   0.070096   0.074909  -0.018147  -0.001615
     52      -0.027068   0.016965  -0.260906   0.040675  -0.014789   0.003787
     53      -0.019583  -0.040797   0.387180   0.024551  -0.010721  -0.006208
     54      -0.050968  -0.045393   0.014452  -0.064866  -0.124364   0.012679
     55      -0.084748   0.028939   0.068219   0.161004   0.082758   0.015975
     56      -0.143038   0.069683  -0.013325  -0.089353  -0.054192  -0.027425
     57      -0.108677  -0.113967   0.023146  -0.061398  -0.132303   0.017395
     58      -0.190219   0.017718   0.100034   0.153112   0.131456  -0.068651
     59      -0.121806   0.101382  -0.015103  -0.089470  -0.044974  -0.035250
     60      -0.028342   0.036939   0.044438  -0.056900  -0.148660  -0.044310
     61      -0.037097   0.042859   0.056110   0.160659   0.049273   0.041668
     62      -0.255342   0.036224   0.016289  -0.092906   0.023277  -0.091163
     63       0.019930  -0.071238  -0.059766  -0.083590   0.085275  -0.039104
     64      -0.020344   0.041208  -0.006134   0.059007  -0.010587   0.019929
     65       0.004719   0.127363   0.062491   0.000396  -0.030873  -0.023095
     66      -0.038074   0.223723   0.012528   0.116124   0.003886  -0.014817
     67      -0.001900   0.046046   0.008600   0.042181  -0.006231   0.010235
     68      -0.011382   0.017597   0.005369  -0.038073  -0.000605  -0.016429
     69      -0.053984  -0.083505  -0.001673  -0.088590  -0.141984   0.044686
     70      -0.088836  -0.048833   0.022304   0.066538   0.043249   0.067557
     71      -0.149932  -0.029455  -0.031189  -0.006639  -0.002698   0.012430
     72      -0.137437  -0.058639  -0.001036  -0.172730  -0.217750   0.038699
     73      -0.321500  -0.191083  -0.012503   0.060884   0.036059   0.124801
     74      -0.134929  -0.052969  -0.034596   0.029962   0.030406   0.020236
     75      -0.031368  -0.157269  -0.043505  -0.157192  -0.175177   0.054477
     76       0.010943   0.003115   0.028567   0.045363   0.029945   0.040007
     77      -0.378944  -0.148583  -0.046681   0.039919   0.026551   0.072067
     78       0.029462  -0.062043   0.039615   0.118551   0.015123   0.087555
     79       0.106190   0.006762  -0.004586  -0.100319  -0.071785  -0.007064
     80       0.148643   0.056173  -0.020009   0.031343   0.049394  -0.035755
     81       0.022331  -0.088220   0.022904   0.074424   0.036369  -0.055932
     82       0.093007  -0.046927  -0.049304  -0.244173  -0.065816  -0.326957
     83       0.115469  -0.039573  -0.019712   0.179147   0.347397  -0.418601
     84       0.028822   0.017334   0.082338   0.203128  -0.100780   0.538678
     85      -0.006439  -0.053020  -0.011432  -0.076623  -0.002154  -0.117090
     86       0.411812   0.187905  -0.008330  -0.032830  -0.102165   0.176115
     87       0.099146  -0.101065   0.048532   0.249887   0.247585  -0.179864
     88       0.381255   0.166044   0.022591  -0.118319  -0.242758   0.345180
     89       0.145192   0.084746  -0.021198  -0.020792  -0.054636   0.097219
                 18         19         20         21         22         23    
      0      -0.069259  -0.005244  -0.062160   0.013402  -0.002080  -0.081982
      1       0.024755   0.007873   0.009320   0.088147  -0.029650   0.023858
      2      -0.009543  -0.016421   0.004785  -0.177426   0.031234   0.077646
      3      -0.064004  -0.008346  -0.061230  -0.034578  -0.005620  -0.056267
      4       0.013971  -0.015723  -0.062430  -0.100847  -0.047021   0.017928
      5      -0.037939  -0.026918  -0.084397   0.178775  -0.002625   0.004277
      6      -0.025745  -0.007309  -0.024262  -0.003682  -0.013013   0.072407
      7      -0.024650  -0.036129  -0.116400  -0.019379   0.012641   0.010000
      8      -0.016383   0.010933  -0.024999  -0.006869  -0.090593  -0.146701
      9      -0.034554   0.016863   0.026927   0.027810   0.021380  -0.042030
     10      -0.010879  -0.014157  -0.098321   0.070010  -0.026850  -0.088734
     11      -0.047705  -0.023007  -0.040849  -0.180610   0.014634  -0.034062
     12      -0.036920   0.024436   0.057229  -0.012334   0.030835  -0.052630
     13       0.001081   0.004267   0.009873  -0.090288  -0.013847  -0.063551
     14      -0.012180  -0.007615  -0.035181   0.181836   0.043602   0.033302
     15      -0.070733   0.009697  -0.002351   0.003085   0.047250  -0.117212
     16       0.005213  -0.004977   0.022110   0.010028   0.028001   0.075557
     17       0.034711   0.030702   0.044311  -0.005667  -0.048939  -0.079845
     18      -0.093625  -0.017126  -0.113871  -0.076816  -0.008753  -0.161848
     19       0.012362  -0.009857  -0.057082  -0.215201  -0.069517  -0.051276
     20      -0.065609  -0.049494  -0.149472   0.407337   0.049268   0.054828
     21      -0.031717   0.033217   0.078338   0.070336   0.052186  -0.069644
     22       0.003122  -0.010629  -0.147624   0.190588  -0.096970  -0.133622
     23      -0.072064  -0.055255  -0.039521  -0.438441   0.077041   0.084535
     24      -0.073411   0.007795   0.001317   0.007907   0.055768  -0.103932
     25      -0.001430  -0.007323   0.050797   0.030972   0.065679   0.121796
     26       0.085863   0.065877   0.103083  -0.025730  -0.097193  -0.130819
     27       0.008732  -0.020166  -0.043399  -0.003978  -0.055944   0.170210
     28      -0.057796   0.029936   0.155735   0.017786   0.085524   0.016241
     29       0.033615   0.026791   0.140191   0.016681   0.079757   0.035398
     30       0.052457  -0.017053  -0.045371  -0.003874  -0.090364   0.162179
     31       0.033488   0.012164   0.031981   0.006389  -0.131957  -0.041766
     32       0.081704  -0.025980  -0.089642  -0.009918   0.083774   0.001522
     33       0.116141  -0.060740  -0.220473  -0.020867  -0.227342   0.174284
     34       0.010347   0.021930   0.072904   0.010400  -0.121905  -0.022405
     35       0.172815  -0.067173  -0.263072  -0.026853   0.022717  -0.058174
     36       0.014158   0.007934   0.081679   0.009351  -0.073625   0.241965
     37       0.144186  -0.043681  -0.196777  -0.015523  -0.236437  -0.076088
     38       0.087496  -0.030656  -0.117879  -0.012955   0.081208  -0.024714
     39      -0.026905  -0.052092  -0.007941   0.004985   0.090293   0.286007
     40      -0.059193   0.026642   0.153136   0.018075   0.091328   0.022523
     41       0.144329   0.184170   0.025459   0.004262  -0.359684  -0.318118
     42      -0.050655   0.643397  -0.488099  -0.087898   0.024062  -0.009701
     43       0.012976  -0.255969   0.043125  -0.021110  -0.152298  -0.335771
     44       0.028167  -0.644657   0.351730   0.045421  -0.166479  -0.272070
     45      -0.011324  -0.007953   0.015743   0.003850  -0.019091   0.125377
     46      -0.049778   0.002111   0.075967   0.014469   0.077194   0.037216
     47       0.044958   0.046559   0.093417  -0.003036  -0.009193   0.044736
     48      -0.022153   0.035956   0.146231   0.016164  -0.001131   0.086141
     49      -0.056243   0.022083   0.095897   0.009206   0.041762  -0.043295
     50       0.056601   0.019025   0.143763   0.026710   0.126010   0.273949
     51      -0.003414  -0.066436   0.050849   0.006335  -0.009061  -0.002728
     52       0.009401   0.039889  -0.000781   0.004276   0.022432   0.042095
     53      -0.004479   0.025802  -0.021637   0.005228  -0.016327   0.005712
     54       0.061483   0.029933   0.071037   0.008078  -0.093775  -0.030574
     55       0.013652  -0.012677  -0.024428  -0.000831  -0.096779   0.052292
     56       0.031167  -0.004597  -0.027140  -0.004089   0.068121  -0.031208
     57      -0.002540   0.052175   0.143819   0.016679  -0.164517  -0.061528
     58       0.049559   0.001673   0.024014   0.003952  -0.107933   0.017607
     59       0.064405  -0.014553  -0.058196  -0.007811   0.098907  -0.017202
     60       0.121232   0.045796   0.117575   0.014499  -0.193857  -0.057578
     61       0.006367  -0.012140  -0.028455  -0.000869  -0.108989   0.049071
     62       0.049596  -0.005692  -0.015009  -0.003697   0.104359  -0.027447
     63      -0.072600  -0.019641  -0.119450   0.030222  -0.039166  -0.070920
     64       0.030352   0.031055   0.050168   0.198074  -0.035291  -0.053224
     65      -0.014391  -0.033295   0.024678  -0.388387   0.099095   0.185342
     66      -0.008035   0.039852   0.130522  -0.026418   0.025066   0.020054
     67       0.011370   0.016992   0.050982  -0.182491  -0.046102  -0.094322
     68      -0.007463  -0.022250  -0.060123   0.377139   0.109462   0.175026
     69       0.063544   0.030473   0.070584   0.006549   0.000442  -0.083775
     70      -0.000330  -0.024736  -0.061976  -0.007781   0.123849  -0.000544
     71      -0.087409   0.007528   0.025639   0.003558  -0.079439   0.023704
     72       0.090595   0.037635   0.078299   0.006923   0.025131  -0.125772
     73      -0.081856  -0.017309  -0.033677  -0.004220   0.126809  -0.003278
     74      -0.105369   0.004355   0.023284   0.003520  -0.086332   0.041555
     75       0.037779   0.042077   0.101970   0.009037   0.045024  -0.117472
     76       0.032280  -0.022871  -0.061426  -0.007987   0.116223  -0.008143
     77      -0.160648   0.004610   0.028166   0.004500  -0.070599   0.040996
     78       0.100606  -0.013301  -0.038126  -0.006952   0.172976  -0.074255
     79       0.030222   0.010112   0.019864   0.001244   0.027084  -0.036859
     80      -0.033228  -0.001472   0.001508   0.000233  -0.067801   0.045590
     81       0.212399  -0.000783  -0.005448  -0.002651   0.105368  -0.074940
     82       0.258869   0.049819   0.122323   0.014533  -0.177215  -0.038785
     83       0.385219  -0.035697  -0.082301  -0.009734   0.060023   0.045737
     84      -0.275591  -0.038847  -0.106246  -0.016057   0.323255  -0.073209
     85       0.137997   0.005872   0.011501   0.000627   0.034042  -0.036812
     86      -0.248050   0.011206   0.028415   0.002685  -0.101205   0.046040
     87       0.408235  -0.043873  -0.117802  -0.016819   0.300303  -0.073747
     88      -0.295012   0.011014   0.015415  -0.000394   0.053848  -0.033768
     89      -0.179097   0.010271   0.031760   0.003870  -0.113862   0.045290
                 24         25         26         27         28         29    
      0       0.013983   0.003957  -0.085510  -0.253218  -0.031910   0.026550
      1      -0.079798   0.017140   0.020273  -0.187462  -0.054320   0.084923
      2       0.101932   0.020702  -0.020478  -0.109808  -0.059997  -0.161849
      3       0.022849   0.003885  -0.039083  -0.191947  -0.043607  -0.013707
      4       0.011516  -0.019232   0.208721   0.090868  -0.082461  -0.058246
      5      -0.014840  -0.013342   0.108665   0.006400  -0.014447   0.139254
      6       0.004750   0.018955   0.155140  -0.090255  -0.103346   0.032420
      7       0.149369  -0.014751   0.037483   0.078727   0.009310   0.093991
      8      -0.234065  -0.038034   0.059251   0.013111  -0.002138  -0.198686
      9       0.019376  -0.013086   0.100108   0.212956  -0.009874  -0.012646
     10       0.056473  -0.035809   0.017731   0.126910   0.037864  -0.067751
     11       0.003877  -0.031224   0.027811   0.080782   0.049780   0.116484
     12       0.002753  -0.005596   0.050755   0.194085   0.007489   0.023684
     13      -0.040324  -0.003051  -0.172984  -0.158415   0.073531   0.071800
     14       0.116803   0.012054  -0.092062  -0.041691   0.008638  -0.164722
     15       0.072723  -0.014527  -0.154105   0.081724   0.091668  -0.026164
     16       0.050319   0.024245  -0.042052  -0.097810  -0.030700  -0.060545
     17      -0.146519  -0.006888  -0.020283  -0.050513   0.031617   0.127872
     18       0.047908  -0.033023  -0.055007  -0.029647   0.023627  -0.062811
     19      -0.057868  -0.040001   0.200242   0.129180  -0.050625  -0.212776
     20       0.178145   0.000328   0.092116   0.055984  -0.020572   0.455681
     21      -0.011686  -0.014267  -0.077680   0.186654   0.092765  -0.066888
     22      -0.046912  -0.038005   0.165235   0.123326  -0.022233  -0.243419
     23       0.214429  -0.022291   0.049174   0.098006  -0.011352   0.480428
     24       0.079672  -0.015317  -0.126339   0.129731   0.090828  -0.066510
     25       0.077934   0.016537   0.081485   0.191742  -0.013386  -0.212705
     26      -0.217272  -0.011965   0.040990   0.101843   0.018254   0.440005
     27      -0.109622   0.051847  -0.078951   0.087521   0.015142  -0.002647
     28      -0.076072   0.051002   0.015594   0.037936  -0.061712  -0.000689
     29       0.086992  -0.047514   0.171897  -0.132734   0.166005  -0.014749
     30      -0.045540   0.015481  -0.057220   0.052632   0.124289  -0.009191
     31       0.081710  -0.029626   0.018055  -0.022616  -0.011600   0.002213
     32      -0.055260   0.022050  -0.012613   0.019122   0.015754  -0.002633
     33      -0.015973  -0.034093  -0.145477   0.075165   0.194845  -0.014015
     34       0.089484  -0.019593   0.045616  -0.034938  -0.010398   0.004674
     35      -0.077260  -0.013263  -0.133190   0.075691   0.027845  -0.010700
     36       0.004837   0.006897   0.045428  -0.011667   0.192078  -0.007626
     37       0.069548  -0.066763  -0.142237   0.055736   0.035399  -0.004639
     38      -0.069627   0.025995  -0.038534   0.036292  -0.012678  -0.002716
     39      -0.216476   0.008920  -0.139740   0.140636   0.232646  -0.028657
     40      -0.088716   0.064395  -0.015184   0.066858  -0.045944  -0.000634
     41       0.226761   0.468977  -0.372394   0.432042  -0.578715   0.115225
     42       0.093906   0.402311   0.291854  -0.118404   0.341349  -0.023224
     43       0.156377   0.678116   0.403774  -0.127451   0.429262  -0.035686
     44       0.065878   0.248804   0.057322   0.023438   0.042095  -0.001835
     45      -0.084390   0.026505   0.122896  -0.080278  -0.051379  -0.006077
     46      -0.082894   0.047778  -0.089891   0.107819   0.089243  -0.004544
     47       0.066643   0.047004  -0.099137   0.101551  -0.073183   0.019200
     48      -0.133064   0.094100   0.179428  -0.105969  -0.129154  -0.020715
     49      -0.114283   0.103756  -0.031034   0.077321   0.069289  -0.025541
     50       0.152330  -0.079425  -0.233869   0.174530  -0.109258   0.085330
     51      -0.018056  -0.057687  -0.051578   0.024605  -0.052284   0.004634
     52      -0.026368  -0.070824  -0.028684   0.004163  -0.025586   0.001244
     53      -0.001191  -0.023081  -0.056631   0.036541  -0.057085   0.008654
     54       0.074278  -0.024353   0.002429  -0.009637   0.024913   0.000122
     55       0.031686  -0.020439  -0.015997   0.003031   0.052354  -0.000411
     56      -0.034967   0.014689   0.001614   0.003957  -0.027691  -0.001196
     57       0.143443  -0.064100   0.032126  -0.048785   0.029086   0.001109
     58       0.071054  -0.050460  -0.009446  -0.018799   0.024049   0.003080
     59      -0.064127   0.030503  -0.013318   0.021592  -0.030969  -0.001149
     60       0.150400  -0.053775   0.023222  -0.036464   0.036098   0.002420
     61       0.034533  -0.015918  -0.012933   0.004482   0.054542  -0.000622
     62      -0.043770   0.004583  -0.003199  -0.000763  -0.035555  -0.001108
[...]
     30      -0.000024   0.000012   0.000028  -0.000031   0.000879  -0.000193
     31       0.000029  -0.000022  -0.000072   0.000014  -0.002948   0.000038
     32      -0.000020  -0.000017   0.000070   0.000019  -0.000034  -0.000135
     33       0.000276   0.000012  -0.000203   0.000550  -0.005820   0.000093
     34      -0.000880   0.000075   0.001261  -0.001518   0.032152   0.000744
     35      -0.000272   0.000037   0.000447  -0.000425   0.011625   0.000107
     36       0.000105   0.000058  -0.000382   0.000111  -0.003945   0.000710
     37       0.000030   0.000003  -0.000083   0.000095  -0.002378  -0.000132
     38       0.000343   0.000178  -0.001177   0.000164  -0.008421   0.000498
     39      -0.002103  -0.000410   0.003890  -0.002683  -0.172317   0.002841
     40       0.006665  -0.003809  -0.007907  -0.008618   0.979417  -0.014605
     41      -0.000178  -0.000182   0.000553   0.000251  -0.033027  -0.002104
     42       0.000097   0.000069  -0.000135  -0.000369  -0.007604  -0.448533
     43      -0.000049  -0.000317   0.000372   0.000569   0.003356   0.536368
     44       0.000261   0.000244  -0.000805   0.000068  -0.013112  -0.712018
     45      -0.000884   0.000357   0.000540   0.000253  -0.001552  -0.000131
     46       0.002965  -0.000798  -0.001702   0.001305  -0.006690  -0.000301
     47       0.000803  -0.000221  -0.000497   0.000462  -0.002589  -0.000233
     48       0.011906  -0.003688  -0.006222   0.002638  -0.011752  -0.000789
     49      -0.039162   0.010708   0.020002  -0.011342   0.053921   0.002154
     50      -0.010576   0.002839   0.005340  -0.003156   0.018637   0.000340
     51       0.000019   0.000010  -0.000049   0.000045   0.000411   0.028165
     52       0.000006   0.000002  -0.000035  -0.000109  -0.000860  -0.033570
     53      -0.000055  -0.000011   0.000118  -0.000005   0.000211   0.044587
     54       0.000025  -0.000016  -0.000044  -0.000040   0.000099  -0.000059
     55      -0.000034   0.000026   0.000072   0.000017  -0.000207   0.000069
     56       0.000025  -0.000032  -0.000018  -0.000098   0.000272  -0.000211
     57      -0.000227   0.000155   0.000386   0.000499  -0.001305   0.000294
     58       0.000075  -0.000060  -0.000089  -0.000016   0.000310  -0.000734
     59      -0.000407   0.000446   0.000453   0.001164  -0.004095   0.003477
     60      -0.000049   0.000043   0.000115  -0.000001   0.000790  -0.000061
     61       0.000270  -0.000236  -0.000645   0.000041   0.003658  -0.001072
     62       0.000111  -0.000105  -0.000263  -0.000108   0.000665  -0.000170
     63      -0.035131   0.304482   0.400370   0.075399   0.003049  -0.000616
     64      -0.039793   0.326610   0.431296   0.081815   0.002995  -0.000469
     65      -0.023468   0.195065   0.257369   0.048752   0.001844  -0.000290
     66      -0.204975  -0.238055   0.089553   0.135178   0.002306  -0.000513
     67       0.488569   0.565161  -0.215114  -0.324172  -0.004080   0.000767
     68       0.215195   0.248716  -0.094875  -0.143015  -0.001642   0.000323
     69      -0.000007   0.000013  -0.000009   0.000024   0.000078  -0.000019
     70       0.000005  -0.000020   0.000006  -0.000088  -0.000172   0.000023
     71      -0.000014   0.000005   0.000020   0.000000   0.000058  -0.000003
     72       0.000075  -0.000087  -0.000002  -0.000139  -0.001119   0.000241
     73      -0.000013  -0.000009   0.000006   0.000009   0.000172  -0.000125
     74       0.000199  -0.000213  -0.000119  -0.000412  -0.001870   0.000074
     75      -0.000001  -0.000031   0.000052  -0.000006  -0.000427   0.000027
     76      -0.000074   0.000263  -0.000145   0.000978   0.001922   0.000074
     77      -0.000042   0.000137  -0.000069   0.000436   0.001010   0.000102
     78      -0.000008   0.000015  -0.000002   0.000014   0.000093  -0.000006
     79      -0.000018   0.000017   0.000002  -0.000014   0.000002  -0.000005
     80       0.000001  -0.000012   0.000017  -0.000036  -0.000046  -0.000002
     81       0.000151  -0.000266  -0.000025  -0.000410  -0.001723   0.000275
     82      -0.000065   0.000096   0.000029   0.000151   0.000500   0.000045
     83      -0.000007   0.000012  -0.000012   0.000027   0.000200  -0.000114
     84       0.000005  -0.000006   0.000039   0.000020  -0.000014   0.000047
     85       0.000244  -0.000285  -0.000040  -0.000011  -0.000292   0.000083
     86       0.000106  -0.000123  -0.000012  -0.000041  -0.000146   0.000071
     87      -0.000054   0.000084  -0.000012   0.000168   0.000243   0.000071
     88       0.000010  -0.000027   0.000002  -0.000021  -0.000040  -0.000060
     89      -0.000120   0.000221  -0.000159   0.000394   0.000574  -0.000007


-----------
IR SPECTRUM  
-----------

 Mode    freq (cm**-1)   T**2         TX         TY         TZ
-------------------------------------------------------------------
   7:        27.01    0.000000  (  0.000000   0.000000   0.000000)
   8:        53.09    0.000000  (  0.000000   0.000000   0.000000)
   9:        59.29    0.000000  (  0.000000   0.000000   0.000000)
  10:        91.13    0.000000  (  0.000000   0.000000   0.000000)
  11:       102.90    0.000000  (  0.000000   0.000000   0.000000)
  12:       121.14    0.000000  (  0.000000   0.000000   0.000000)
  13:       141.99    0.000000  (  0.000000   0.000000   0.000000)
  14:       167.91    0.000000  (  0.000000   0.000000   0.000000)
  15:       187.25    0.000000  (  0.000000   0.000000   0.000000)
  16:       246.98    0.000000  (  0.000000   0.000000   0.000000)
  17:       268.71    0.000000  (  0.000000   0.000000   0.000000)
  18:       273.54    0.000000  (  0.000000   0.000000   0.000000)
  19:       362.18    0.000000  (  0.000000   0.000000   0.000000)
  20:       371.63    0.000000  (  0.000000   0.000000   0.000000)
  21:       377.64    0.000000  (  0.000000   0.000000   0.000000)
  22:       410.21    0.000000  (  0.000000   0.000000   0.000000)
  23:       450.74    0.000000  (  0.000000   0.000000   0.000000)
  24:       485.31    0.000000  (  0.000000   0.000000   0.000000)
  25:       540.30    0.000000  (  0.000000   0.000000   0.000000)
  26:       582.53    0.000000  (  0.000000   0.000000   0.000000)
  27:       590.79    0.000000  (  0.000000   0.000000   0.000000)
  28:       626.59    0.000000  (  0.000000   0.000000   0.000000)
  29:       657.98    0.000000  (  0.000000   0.000000   0.000000)
  30:       752.07    0.000000  (  0.000000   0.000000   0.000000)
  31:       769.88    0.000000  (  0.000000   0.000000   0.000000)
  32:       820.13    0.000000  (  0.000000   0.000000   0.000000)
  33:       849.62    0.000000  (  0.000000   0.000000   0.000000)
  34:       856.01    0.000000  (  0.000000   0.000000   0.000000)
  35:       877.25    0.000000  (  0.000000   0.000000   0.000000)
  36:       900.30    0.000000  (  0.000000   0.000000   0.000000)
  37:       926.94    0.000000  (  0.000000   0.000000   0.000000)
  38:       932.69    0.000000  (  0.000000   0.000000   0.000000)
  39:       937.60    0.000000  (  0.000000   0.000000   0.000000)
  40:       947.18    0.000000  (  0.000000   0.000000   0.000000)
  41:       982.69    0.000000  (  0.000000   0.000000   0.000000)
  42:      1033.53    0.000000  (  0.000000   0.000000   0.000000)
  43:      1065.44    0.000000  (  0.000000   0.000000   0.000000)
  44:      1072.19    0.000000  (  0.000000   0.000000   0.000000)
  45:      1101.55    0.000000  (  0.000000   0.000000   0.000000)
  46:      1115.36    0.000000  (  0.000000   0.000000   0.000000)
  47:      1122.23    0.000000  (  0.000000   0.000000   0.000000)
  48:      1131.35    0.000000  (  0.000000   0.000000   0.000000)
  49:      1179.91    0.000000  (  0.000000   0.000000   0.000000)
  50:      1183.77    0.000000  (  0.000000   0.000000   0.000000)
  51:      1201.27    0.000000  (  0.000000   0.000000   0.000000)
  52:      1218.70    0.000000  (  0.000000   0.000000   0.000000)
  53:      1242.70    0.000000  (  0.000000   0.000000   0.000000)
  54:      1259.59    0.000000  (  0.000000   0.000000   0.000000)
  55:      1269.91    0.000000  (  0.000000   0.000000   0.000000)
  56:      1279.71    0.000000  (  0.000000   0.000000   0.000000)
  57:      1291.72    0.000000  (  0.000000   0.000000   0.000000)
  58:      1309.31    0.000000  (  0.000000   0.000000   0.000000)
  59:      1328.85    0.000000  (  0.000000   0.000000   0.000000)
  60:      1339.85    0.000000  (  0.000000   0.000000   0.000000)
  61:      1367.28    0.000000  (  0.000000   0.000000   0.000000)
  62:      1420.71    0.000000  (  0.000000   0.000000   0.000000)
  63:      1427.52    0.000000  (  0.000000   0.000000   0.000000)
  64:      1451.18    0.000000  (  0.000000   0.000000   0.000000)
  65:      1457.83    0.000000  (  0.000000   0.000000   0.000000)
  66:      1501.58    0.000000  (  0.000000   0.000000   0.000000)
  67:      1503.29    0.000000  (  0.000000   0.000000   0.000000)
  68:      1506.25    0.000000  (  0.000000   0.000000   0.000000)
  69:      1510.77    0.000000  (  0.000000   0.000000   0.000000)
  70:      1557.67    0.000000  (  0.000000   0.000000   0.000000)
  71:      1558.64    0.000000  (  0.000000   0.000000   0.000000)
  72:      1626.65    0.000000  (  0.000000   0.000000   0.000000)
  73:      2939.53    0.000000  (  0.000000   0.000000   0.000000)
  74:      2957.54    0.000000  (  0.000000   0.000000   0.000000)
  75:      2964.39    0.000000  (  0.000000   0.000000   0.000000)
  76:      2967.88    0.000000  (  0.000000   0.000000   0.000000)
  77:      2983.47    0.000000  (  0.000000   0.000000   0.000000)
  78:      2987.26    0.000000  (  0.000000   0.000000   0.000000)
  79:      2998.77    0.000000  (  0.000000   0.000000   0.000000)
  80:      2999.31    0.000000  (  0.000000   0.000000   0.000000)
  81:      3004.95    0.000000  (  0.000000   0.000000   0.000000)
  82:      3041.52    0.000000  (  0.000000   0.000000   0.000000)
  83:      3058.05    0.000000  (  0.000000   0.000000   0.000000)
  84:      3061.30    0.000000  (  0.000000   0.000000   0.000000)
  85:      3067.46    0.000000  (  0.000000   0.000000   0.000000)
  86:      3075.10    0.000000  (  0.000000   0.000000   0.000000)
  87:      3084.17    0.000000  (  0.000000   0.000000   0.000000)
  88:      3233.98    0.000000  (  0.000000   0.000000   0.000000)
  89:      3590.51    0.000000  (  0.000000   0.000000   0.000000)

The first frequency considered to be a vibration is 7
The total number of vibrations considered is 83


--------------------------
THERMOCHEMISTRY AT 298.15K
--------------------------

Temperature         ... 298.15 K
Pressure            ... 1.00 atm
Total Mass          ... 179.26 AMU

Throughout the following assumptions are being made:
  (1) The electronic state is orbitally nondegenerate
  (2) There are no thermally accessible electronically excited states
  (3) Hindered rotations indicated by low frequency modes are not
      treated as such but are treated as vibrations and this may
      cause some error
  (4) All equations used are the standard statistical mechanics
      equations for an ideal gas
  (5) All vibrations are strictly harmonic

freq.      27.01  E(vib)   ...       0.55 
freq.      53.09  E(vib)   ...       0.52 
freq.      59.29  E(vib)   ...       0.51 
freq.      91.13  E(vib)   ...       0.47 
freq.     102.90  E(vib)   ...       0.46 
freq.     121.14  E(vib)   ...       0.44 
freq.     141.99  E(vib)   ...       0.41 
freq.     167.91  E(vib)   ...       0.38 
freq.     187.25  E(vib)   ...       0.36 
freq.     246.98  E(vib)   ...       0.31 
freq.     268.71  E(vib)   ...       0.29 
freq.     273.54  E(vib)   ...       0.29 
freq.     362.18  E(vib)   ...       0.22 
freq.     371.63  E(vib)   ...       0.21 
freq.     377.64  E(vib)   ...       0.21 
freq.     410.21  E(vib)   ...       0.19 
freq.     450.74  E(vib)   ...       0.17 
freq.     485.31  E(vib)   ...       0.15 
freq.     540.30  E(vib)   ...       0.12 
freq.     582.53  E(vib)   ...       0.11 
freq.     590.79  E(vib)   ...       0.10 
freq.     626.59  E(vib)   ...       0.09 
freq.     657.98  E(vib)   ...       0.08 
freq.     752.07  E(vib)   ...       0.06 
freq.     769.88  E(vib)   ...       0.05 
freq.     820.13  E(vib)   ...       0.05 
freq.     849.62  E(vib)   ...       0.04 
freq.     856.01  E(vib)   ...       0.04 
freq.     877.25  E(vib)   ...       0.04 
freq.     900.30  E(vib)   ...       0.03 
freq.     926.94  E(vib)   ...       0.03 
freq.     932.69  E(vib)   ...       0.03 
freq.     937.60  E(vib)   ...       0.03 
freq.     947.18  E(vib)   ...       0.03 
freq.     982.69  E(vib)   ...       0.02 
freq.    1033.53  E(vib)   ...       0.02 
freq.    1065.44  E(vib)   ...       0.02 
freq.    1072.19  E(vib)   ...       0.02 
freq.    1101.55  E(vib)   ...       0.02 
freq.    1115.36  E(vib)   ...       0.01 
freq.    1122.23  E(vib)   ...       0.01 
freq.    1131.35  E(vib)   ...       0.01 
freq.    1179.91  E(vib)   ...       0.01 
freq.    1183.77  E(vib)   ...       0.01 
freq.    1201.27  E(vib)   ...       0.01 
freq.    1218.70  E(vib)   ...       0.01 
freq.    1242.70  E(vib)   ...       0.01 
freq.    1259.59  E(vib)   ...       0.01 
freq.    1269.91  E(vib)   ...       0.01 
freq.    1279.71  E(vib)   ...       0.01 
freq.    1291.72  E(vib)   ...       0.01 
freq.    1309.31  E(vib)   ...       0.01 
freq.    1328.85  E(vib)   ...       0.01 
freq.    1339.85  E(vib)   ...       0.01 
freq.    1367.28  E(vib)   ...       0.01 
freq.    1420.71  E(vib)   ...       0.00 
freq.    1427.52  E(vib)   ...       0.00 
freq.    1451.18  E(vib)   ...       0.00 
freq.    1457.83  E(vib)   ...       0.00 
freq.    1501.58  E(vib)   ...       0.00 
freq.    1503.29  E(vib)   ...       0.00 
freq.    1506.25  E(vib)   ...       0.00 
freq.    1510.77  E(vib)   ...       0.00 
freq.    1557.67  E(vib)   ...       0.00 
freq.    1558.64  E(vib)   ...       0.00 
freq.    1626.65  E(vib)   ...       0.00 
freq.    2939.53  E(vib)   ...       0.00 
freq.    2957.54  E(vib)   ...       0.00 
freq.    2964.39  E(vib)   ...       0.00 
freq.    2967.88  E(vib)   ...       0.00 
freq.    2983.47  E(vib)   ...       0.00 
freq.    2987.26  E(vib)   ...       0.00 
freq.    2998.77  E(vib)   ...       0.00 
freq.    2999.31  E(vib)   ...       0.00 
freq.    3004.95  E(vib)   ...       0.00 
freq.    3041.52  E(vib)   ...       0.00 
freq.    3058.05  E(vib)   ...       0.00 
freq.    3061.30  E(vib)   ...       0.00 
freq.    3067.46  E(vib)   ...       0.00 
freq.    3075.10  E(vib)   ...       0.00 
freq.    3084.17  E(vib)   ...       0.00 
freq.    3233.98  E(vib)   ...       0.00 
freq.    3590.51  E(vib)   ...       0.00 

------------
INNER ENERGY
------------

The inner energy is: U= E(el) + E(ZPE) + E(vib) + E(rot) + E(trans)
    E(el)   - is the total energy from the electronic structure calculation
              = E(kin-el) + E(nuc-el) + E(el-el) + E(nuc-nuc)
    E(ZPE)  - the the zero temperature vibrational energy from the frequency calculation
    E(vib)  - the the finite temperature correction to E(ZPE) due to population
              of excited vibrational states
    E(rot)  - is the rotational thermal energy
    E(trans)- is the translational thermal energy

Summary of contributions to the inner energy U:
Electronic energy                ...    -39.13047988 Eh
Zero point energy                ...      0.25151126 Eh     157.83 kcal/mol
Thermal vibrational correction   ...      0.01171542 Eh       7.35 kcal/mol
Thermal rotational correction    ...      0.00141627 Eh       0.89 kcal/mol
Thermal translational correction ...      0.00141627 Eh       0.89 kcal/mol
-----------------------------------------------------------------------
Total thermal energy                    -38.86442065 Eh


Summary of corrections to the electronic energy:
(perhaps to be used in another calculation)
Total thermal correction                  0.01454797 Eh       9.13 kcal/mol
Non-thermal (ZPE) correction              0.25151126 Eh     157.83 kcal/mol
-----------------------------------------------------------------------
Total correction                          0.26605923 Eh     166.95 kcal/mol


--------
ENTHALPY
--------

The enthalpy is H = U + kB*T
                kB is Boltzmann's constant
Total free energy                 ...    -38.86442065 Eh 
Thermal Enthalpy correction       ...      0.00094421 Eh       0.59 kcal/mol
-----------------------------------------------------------------------
Total Enthalpy                    ...    -38.86347644 Eh


Note: Only C1 symmetry has been detected, increase convergence thresholds 
      if your molecule has a higher symmetry. Symmetry factor of 1.0 is   
      used for the rotational entropy correction. 
 

Note: Rotational entropy computed according to Herzberg 
Infrared and Raman Spectra, Chapter V,1, Van Nostrand Reinhold, 1945 
Point Group:  C1, Symmetry Number:   1  
Rotational constants in cm-1:     0.079593     0.009383     0.009197 

Vibrational entropy computed according to the QRRHO of S. Grimme
Chem.Eur.J. 2012 18 9955


-------
ENTROPY
-------

The entropy contributions are T*S = T*(S(el)+S(vib)+S(rot)+S(trans))
     S(el)   - electronic entropy
     S(vib)  - vibrational entropy
     S(rot)  - rotational entropy
     S(trans)- translational entropy
The entropies will be listed as mutliplied by the temperature to get
units of energy

Electronic entropy                ...      0.00000000 Eh      0.00 kcal/mol
Vibrational entropy               ...      0.02078659 Eh     13.04 kcal/mol
Rotational entropy                ...      0.01512328 Eh      9.49 kcal/mol
Translational entropy             ...      0.01969790 Eh     12.36 kcal/mol
-----------------------------------------------------------------------
Final entropy term                ...      0.05560777 Eh     34.89 kcal/mol

In case the symmetry of your molecule has not been determined correctly
or in case you have a reason to use a different symmetry number we print 
out the resulting rotational entropy values for sn=1,12 :
 --------------------------------------------------------
|  sn= 1 | S(rot)=       0.01512328 Eh      9.49 kcal/mol|
|  sn= 2 | S(rot)=       0.01446883 Eh      9.08 kcal/mol|
|  sn= 3 | S(rot)=       0.01408599 Eh      8.84 kcal/mol|
|  sn= 4 | S(rot)=       0.01381437 Eh      8.67 kcal/mol|
|  sn= 5 | S(rot)=       0.01360368 Eh      8.54 kcal/mol|
|  sn= 6 | S(rot)=       0.01343154 Eh      8.43 kcal/mol|
|  sn= 7 | S(rot)=       0.01328599 Eh      8.34 kcal/mol|
|  sn= 8 | S(rot)=       0.01315991 Eh      8.26 kcal/mol|
|  sn= 9 | S(rot)=       0.01304870 Eh      8.19 kcal/mol|
|  sn=10 | S(rot)=       0.01294922 Eh      8.13 kcal/mol|
|  sn=11 | S(rot)=       0.01285923 Eh      8.07 kcal/mol|
|  sn=12 | S(rot)=       0.01277708 Eh      8.02 kcal/mol|
 --------------------------------------------------------


-------------------
GIBBS FREE ENERGY
-------------------

The Gibbs free energy is G = H - T*S

Total enthalpy                    ...    -38.86347644 Eh 
Total entropy correction          ...     -0.05560777 Eh    -34.89 kcal/mol
-----------------------------------------------------------------------
Final Gibbs free energy         ...    -38.91908421 Eh

For completeness - the Gibbs free energy minus the electronic energy
G-E(el)                           ...      0.21139567 Eh    132.65 kcal/mol


Total Time for Numerical Frequencies  :        47.613 sec
Time for Reference State(s)           :         0.082 sec
Time for Displacements                :        42.158 sec

Timings for individual modules:

Sum of individual times         ...        0.211 sec (=   0.004 min)
XTB module                      ...        0.211 sec (=   0.004 min) 100.0 %
                             ****ORCA TERMINATED NORMALLY****
TOTAL RUN TIME: 0 days 0 hours 0 minutes 48 seconds 192 msec
(SLURM) EXECUTION TIME: 48.213139574 seconds.
