(SLURM) JOB ID:         714

                                 *****************
                                 * O   R   C   A *
                                 *****************

           --- An Ab Initio, DFT and Semiempirical electronic structure package ---

                  #######################################################
                  #                        -***-                        #
                  #          Department of theory and spectroscopy      #
                  #               Directorship: Frank Neese             #
                  #        Max Planck Institute fuer Kohlenforschung    #
                  #                Kaiser Wilhelm Platz 1               #
                  #                 D-45470 Muelheim/Ruhr               #
                  #                      Germany                        #
                  #                                                     #
                  #                  All rights reserved                #
                  #                        -***-                        #
                  #######################################################


                         Program Version 4.2.1 -  RELEASE  -


 With contributions from (in alphabetic order):
   Daniel Aravena         : Magnetic Suceptibility
   Michael Atanasov       : Ab Initio Ligand Field Theory (pilot matlab implementation)
   Alexander A. Auer      : GIAO ZORA, VPT2
   Ute Becker             : Parallelization
   Giovanni Bistoni       : ED, misc. LED, open-shell LED, HFLD
   Martin Brehm           : Molecular dynamics
   Dmytro Bykov           : SCF Hessian
   Vijay G. Chilkuri      : MRCI spin determinant printing, contributions to CSF-ICE
   Dipayan Datta          : RHF DLPNO-CCSD density
   Achintya Kumar Dutta   : EOM-CC, STEOM-CC
   Dmitry Ganyushin       : Spin-Orbit,Spin-Spin,Magnetic field MRCI
   Miquel Garcia          : C-PCM Hessian, Gaussian charge scheme
   Yang Guo               : DLPNO-NEVPT2, CIM, IAO-localization
   Andreas Hansen         : Spin unrestricted coupled pair/coupled cluster methods
   Benjamin Helmich-Paris : CASSCF linear response (MC-RPA)
   Lee Huntington         : MR-EOM, pCC
   Robert Izsak           : Overlap fitted RIJCOSX, COSX-SCS-MP3, EOM
   Christian Kollmar      : KDIIS, OOCD, Brueckner-CCSD(T), CCSD density
   Simone Kossmann        : Meta GGA functionals, TD-DFT gradient, OOMP2, MP2 Hessian
   Martin Krupicka        : AUTO-CI
   Lucas Lang             : DCDCAS
   Dagmar Lenk            : GEPOL surface, SMD
   Dimitrios Liakos       : Extrapolation schemes; Compound Job, initial MDCI parallelization
   Dimitrios Manganas     : Further ROCIS development; embedding schemes
   Dimitrios Pantazis     : SARC Basis sets
   Taras Petrenko         : DFT Hessian,TD-DFT gradient, ASA, ECA, R-Raman, ABS, FL, XAS/XES, NRVS
   Peter Pinski           : DLPNO-MP2, DLPNO-MP2 Gradient
   Christoph Reimann      : Effective Core Potentials
   Marius Retegan         : Local ZFS, SOC
   Christoph Riplinger    : Optimizer, TS searches, QM/MM, DLPNO-CCSD(T), (RO)-DLPNO pert. Triples
   Tobias Risthaus        : Range-separated hybrids, TD-DFT gradient, RPA, STAB
   Michael Roemelt        : Original ROCIS implementation
   Masaaki Saitow         : Open-shell DLPNO-CCSD energy and density
   Barbara Sandhoefer     : DKH picture change effects
   Avijit Sen             : IP-ROCIS
   Kantharuban Sivalingam : CASSCF convergence, NEVPT2, FIC-MRCI
   Bernardo de Souza      : ESD, SOC TD-DFT
   Georgi Stoychev        : AutoAux, RI-MP2 NMR
   Willem Van den Heuvel  : Paramagnetic NMR
   Boris Wezisla          : Elementary symmetry handling
   Frank Wennmohs         : Technical directorship


 We gratefully acknowledge several colleagues who have allowed us to
 interface, adapt or use parts of their codes:
   Stefan Grimme, W. Hujo, H. Kruse,             : VdW corrections, initial TS optimization,
                  C. Bannwarth                     DFT functionals, gCP, sTDA/sTD-DF
   Ed Valeev, F. Pavosevic, A. Kumar             : LibInt (2-el integral package), F12 methods
   Garnet Chan, S. Sharma, J. Yang, R. Olivares  : DMRG
   Ulf Ekstrom                                   : XCFun DFT Library
   Mihaly Kallay                                 : mrcc  (arbitrary order and MRCC methods)
   Andreas Klamt, Michael Diedenhofen            : otool_cosmo (COSMO solvation model)
   Jiri Pittner, Ondrej Demel                    : Mk-CCSD
   Frank Weinhold                                : gennbo (NPA and NBO analysis)
   Christopher J. Cramer and Donald G. Truhlar   : smd solvation model
   Lars Goerigk                                  : TD-DFT with DH, B97 family of functionals
   V. Asgeirsson, H. Jonsson                     : NEB implementation
   FAccTs GmbH                                   : IRC, NEB, NEB-TS, Multilevel, MM, QM/MM, CI optimization
   S Lehtola, MJT Oliveira, MAL Marques          : LibXC Library


 Your calculation uses the libint2 library for the computation of 2-el integrals
 For citations please refer to: http://libint.valeyev.net

 Your ORCA version has been built with support for libXC version: 4.2.3
 For citations please refer to: https://tddft.org/programs/libxc/

 This ORCA versions uses:
   CBLAS   interface :  Fast vector & matrix operations
   LAPACKE interface :  Fast linear algebra routines
   SCALAPACK package :  Parallel linear algebra routines




***************************************
The coordinates will be read from file: init.xyz
***************************************


Your calculation utilizes the SMD solvation module
Please cite in your paper:
A.V. Marenich, C.J. Cramer, D.G. Truhlar J. Phys. Chem. B, 113, (2009), 6378 

Your calculation utilizes the semiempirical GFN2-xTB method
Please cite in your paper:
C. Bannwarth, Ehlert S., S. Grimme,  J. Chem. Theory Comput., 15, (2019), 1652.
   

----- Orbital basis set information -----
Your calculation utilizes the basis: def2-SVP
   F. Weigend and R. Ahlrichs, Phys. Chem. Chem. Phys. 7, 3297 (2005).

================================================================================
                                        WARNINGS
                       Please study these warnings very carefully!
================================================================================

WARNING: Gradients needed for Numerical Frequencies
  ===> : Setting RunTyp to EnGrad

WARNING: The environment variable RSH_COMMAND is not set!
  ===> : All Displacements for the Numerical Hessian calculation
         will be started on localhost

WARNING: Found dipole moment calculation with XTB calculation
  ===> : Switching off dipole moment calculation


INFO   : the flag for use of LIBINT has been found!

================================================================================
                                       INPUT FILE
================================================================================
NAME = /tmp/slurm-scratch/freq.714/freq.inp
|  1> ! XTB2 NumFreq
|  2> %maxcore 1150
|  3> 
|  4> * xyzfile 0 1 init.xyz
|  5> 
|  6> %cpcm
|  7>  smd true
|  8>  smdsolvent "ch2cl2"
|  9> end
| 10> %pal nprocs 9 end
| 11> 
| 12>                          ****END OF INPUT****
================================================================================

                     *******************************
                     * Energy+Gradient Calculation *
                     *******************************

      -----------------------------------------------------------      
     |                   =====================                   |     
     |                           x T B                           |     
     |                   =====================                   |     
     |                         S. Grimme                         |     
     |          Mulliken Center for Theoretical Chemistry        |     
     |                    University of Bonn                     |     
      -----------------------------------------------------------      

   * xtb version 6.3.2 (30e43eb) compiled by 'schneider@apollo14' on 2020-08-08

   xtb is free software: you can redistribute it and/or modify it under
   the terms of the GNU Lesser General Public License as published by
   the Free Software Foundation, either version 3 of the License, or
   (at your option) any later version.
   
   xtb is distributed in the hope that it will be useful,
   but WITHOUT ANY WARRANTY; without even the implied warranty of
   MERCHANTABILITY or FITNESS FOR A PARTICULAR PURPOSE.  See the
   GNU Lesser General Public License for more details.
   
   Cite this work as:
   * S. Grimme, C. Bannwarth, P. Shushkov, J. Chem. Theory Comput., 2017,
     13, 1989-2009. DOI: 10.1021/acs.jctc.7b00118
   * C. Bannwarth, S. Ehlert and S. Grimme., J. Chem. Theory Comput., 2019,
     15, 1652-1671. DOI: 10.1021/acs.jctc.8b01176
   * P. Pracht, E. Caldeweyher, S. Ehlert, S. Grimme, ChemRxiv, 2019, preprint.
     DOI: 10.26434/chemrxiv.8326202.v1
   
   for GFN-FF:
   * S. Spicher and S. Grimme, Angew. Chem. Int. Ed., 2020,
     DOI: 10.1002/anie.202004239
   
   for DFT-D4:
   * E. Caldeweyher, C. Bannwarth and S. Grimme, J. Chem. Phys., 2017,
     147, 034112. DOI: 10.1063/1.4993215
   * E. Caldeweyher, S. Ehlert, A. Hansen, H. Neugebauer, S. Spicher,
     C. Bannwarth and S. Grimme, J. Chem. Phys., 2019, 150, 154122.
     DOI: 10.1063/1.5090222
   
   for sTDA-xTB:
   * S. Grimme and C. Bannwarth, J. Chem. Phys., 2016, 145, 054103.
     DOI: 10.1063/1.4959605
   
   in the mass-spec context:
   * V. Asgeirsson, C. Bauer and S. Grimme, Chem. Sci., 2017, 8, 4879.
     DOI: 10.1039/c7sc00601b
   * J. Koopman and S. Grimme, ACS Omega 2019, 4, 12, 15120-15133.
     DOI: 10.1021/acsomega.9b02011
   
   for metadynamics refer to:
   * S. Grimme, J. Chem. Theory Comput., 2019, 155, 2847-2862
     DOI: 10.1021/acs.jctc.9b00143
   
   with help from (in alphabetical order)
   C. Bannwarth, F. Bohle, G. Brandenburg, E. Caldeweyher, M. Checinski,
   S. Dohm, S. Ehlert, S. Ehrlich, F. März, H. Neugebauer, J. Pisarek,
   P. Pracht, P. Shushkov, and S. Spicher.
   
 * started run on 2021/03/02 at 01:12:29.933     

           -------------------------------------------------
          |                Calculation Setup                |
           -------------------------------------------------

          program call               : /opt/orca/otool_xtb /tmp/slurm-scratch/freq.714/freq_XTB.xyz --grad -c 0 -u 0 -P 9 --namespace /tmp/slurm-scratch/freq.714/freq --gbsa CH2Cl2
          hostname                   : apollo14
          calculation namespace      : /tmp/slurm-scratch/freq.714/freq
          coordinate file            : /tmp/slurm-scratch/freq.714/freq_XTB.xyz
          omp threads                :                     9
          number of atoms            :                    33
          number of electrons        :                    80
          charge                     :                     0
          spin                       :                   0.0
          first test random number   :      0.68681226922524

   ID    Z sym.   atoms
    1    6 C      1-7, 12, 14, 27, 30
    2    1 H      8-10, 13, 15-18, 20, 21, 23-26, 28, 29, 31-33
    3    7 N      11
    4    8 O      19, 22

molecular fragmentation (1/2 indicates fragments):
111111111111211111212222111111111
# atoms in fragment 1/2:    27     6
 fragment masses (1/2) :      161.24       36.03
CMA distance (Bohr)    :   6.771
constraining FC (au)   :  0.0500
########################################################################
[WARNING] Please study the warnings concerning your input carefully
-1- prog_main_parseArguments: Process number higher than OMP_NUM_THREADS, I hope you know what you are doing.
########################################################################

           -------------------------------------------------
          |                 G F N 2 - x T B                 |
           -------------------------------------------------

        Reference                      10.1021/acs.jctc.8b01176
      * Hamiltonian:
        H0-scaling (s, p, d)           1.850000    2.230000    2.230000
        zeta-weighting                 0.500000
      * Dispersion:
        s8                             2.700000
        a1                             0.520000
        a2                             5.000000
        s9                             5.000000
      * Repulsion:
        kExp                           1.500000    1.000000
        rExp                           1.000000
      * Coulomb:
        alpha                          2.000000
        third order                    shell-resolved
        anisotropic                    true
        a3                             3.000000
        a5                             4.000000
        cn-shift                       1.200000
        cn-exp                         4.000000
        max-rad                        5.000000

      * Solvation model:               GBSA
        Solvent                        CH2Cl2
        Parameter file                 internal GFN2-xTB/GBSA
        Dielectric constant                8.9300E+00
        Reference state                gsolv [1 M gas/solution]
        Free energy shift                  4.4408E-03 Eh       2.7867E+00 kcal/mol
        Temperature                        2.9815E+02 K
        Density                            1.3300E+00 kg/L
        Solvent mass                       8.4930E+01 g/mol
        Interaction kernel             Still
        Born radius scaling (c1)           1.4917E+00
        Born radii integrator          GBOBC
        Born offset                        0.0000E+00 a0       0.0000E+00 AA
        H-bond correction              false
        Ion screening                  false
        Surface tension                    1.0000E-05 Eh       1.5569E+01 dyn/cm
        Grid points                               230 per atom

          ...................................................
          :                      SETUP                      :
          :.................................................:
          :  # basis functions                  75          :
          :  # atomic orbitals                  75          :
          :  # shells                           47          :
          :  # electrons                        80          :
          :  max. iterations                   250          :
          :  Hamiltonian                  GFN2-xTB          :
          :  restarted?                      false          :
          :  GBSA solvation                   true          :
          :  PC potential                    false          :
          :  electronic temp.          300.0000000     K    :
          :  accuracy                    1.0000000          :
          :  -> integral cutoff          0.2500000E+02      :
          :  -> integral neglect         0.1000000E-07      :
          :  -> SCF convergence          0.1000000E-05 Eh   :
          :  -> wf. convergence          0.1000000E-03 e    :
          :  Broyden damping             0.4000000          :
          ...................................................

 iter      E             dE          RMSdq      gap      omega  full diag
   1    -44.8216994 -0.448217E+02  0.395E+00    3.24       0.0  T
   2    -44.8590637 -0.373643E-01  0.239E+00    3.30       1.0  T
   3    -44.8516272  0.743648E-02  0.853E-01    2.90       1.0  T
   4    -44.8624468 -0.108196E-01  0.360E-01    3.11       1.0  T
   5    -44.8646220 -0.217514E-02  0.713E-02    3.05       1.0  T
   6    -44.8646361 -0.141904E-04  0.353E-02    3.06       1.0  T
   7    -44.8646447 -0.858920E-05  0.170E-02    3.05       1.0  T
   8    -44.8646471 -0.231781E-05  0.432E-03    3.06       4.0  T
   9    -44.8646472 -0.181874E-06  0.187E-03    3.06       9.3  T
  10    -44.8646472 -0.595685E-08  0.106E-03    3.06      16.4  T
  11    -44.8646473 -0.120984E-07  0.312E-04    3.06      55.8  T
  12    -44.8646473 -0.266247E-09  0.129E-04    3.06     135.0  T

   *** convergence criteria satisfied after 12 iterations ***

         #    Occupation            Energy/Eh            Energy/eV
      -------------------------------------------------------------
         1        2.0000           -0.6729912             -18.3130
       ...           ...                  ...                  ...
        34        2.0000           -0.4340766             -11.8118
        35        2.0000           -0.4297262             -11.6934
        36        2.0000           -0.4282441             -11.6531
        37        2.0000           -0.4280324             -11.6474
        38        2.0000           -0.4129333             -11.2365
        39        2.0000           -0.4060547             -11.0493
        40        2.0000           -0.3958957             -10.7729 (HOMO)
        41                         -0.2835677              -7.7163 (LUMO)
        42                         -0.2358975              -6.4191
        43                         -0.2021013              -5.4995
        44                         -0.1012524              -2.7552
        45                          0.0039245               0.1068
       ...                                ...                  ...
        75                          0.6185328              16.8311
      -------------------------------------------------------------
                  HL-Gap            0.1123280 Eh            3.0566 eV
             Fermi-level           -0.3397317 Eh           -9.2446 eV

 SCC (total)                   0 d,  0 h,  0 min,  0.104 sec
 SCC setup                      ...        0 min,  0.005 sec (  5.122%)
 Dispersion                     ...        0 min,  0.003 sec (  3.210%)
 classical contributions        ...        0 min,  0.005 sec (  4.821%)
 integral evaluation            ...        0 min,  0.017 sec ( 16.091%)
 iterations                     ...        0 min,  0.035 sec ( 33.979%)
 molecular gradient             ...        0 min,  0.037 sec ( 35.562%)
 printout                       ...        0 min,  0.001 sec (  1.193%)

         :::::::::::::::::::::::::::::::::::::::::::::::::::::
         ::                     SUMMARY                     ::
         :::::::::::::::::::::::::::::::::::::::::::::::::::::
         :: total energy             -44.277924095489 Eh    ::
         :: total w/o Gsasa/hb       -44.259735833856 Eh    ::
         :: gradient norm              0.051627381794 Eh/a0 ::
         :: HOMO-LUMO gap              3.056599850476 eV    ::
         ::.................................................::
         :: SCC energy               -44.864647251107 Eh    ::
         :: -> isotropic ES            0.084237222564 Eh    ::
         :: -> anisotropic ES         -0.002606395623 Eh    ::
         :: -> anisotropic XC          0.028119826834 Eh    ::
         :: -> dispersion             -0.024774380245 Eh    ::
         :: -> Gsolv                  -0.025972635393 Eh    ::
         ::    -> Gborn               -0.007784373761 Eh    ::
         ::    -> Gsasa               -0.022629090806 Eh    ::
         ::    -> Ghb                  0.000000000000 Eh    ::
         ::    -> Gshift               0.004440829173 Eh    ::
         :: repulsion energy           0.586686567984 Eh    ::
         :: add. restraining           0.000000000000 Eh    ::
         :: total charge               0.000000000000 e     ::
         :::::::::::::::::::::::::::::::::::::::::::::::::::::

           -------------------------------------------------
          |                Property Printout                |
           -------------------------------------------------

    * Orbital Energies and Occupations

         #    Occupation            Energy/Eh            Energy/eV
      -------------------------------------------------------------
         1        2.0000           -0.6729912             -18.3130
       ...           ...                  ...                  ...
        28        2.0000           -0.4764768             -12.9656
        29        2.0000           -0.4656496             -12.6710
        30        2.0000           -0.4505165             -12.2592
        31        2.0000           -0.4448953             -12.1062
        32        2.0000           -0.4412512             -12.0071
        33        2.0000           -0.4388857             -11.9427
        34        2.0000           -0.4340766             -11.8118
        35        2.0000           -0.4297262             -11.6934
        36        2.0000           -0.4282441             -11.6531
        37        2.0000           -0.4280324             -11.6474
        38        2.0000           -0.4129333             -11.2365
        39        2.0000           -0.4060547             -11.0493
        40        2.0000           -0.3958957             -10.7729 (HOMO)
        41                         -0.2835677              -7.7163 (LUMO)
        42                         -0.2358975              -6.4191
        43                         -0.2021013              -5.4995
        44                         -0.1012524              -2.7552
        45                          0.0039245               0.1068
        46                          0.0388453               1.0570
        47                          0.0788951               2.1468
        48                          0.0848806               2.3097
        49                          0.1025684               2.7910
        50                          0.1072636               2.9188
        51                          0.1184484               3.2231
       ...                                ...                  ...
        75                          0.6185328              16.8311
      -------------------------------------------------------------
                  HL-Gap            0.1123280 Eh            3.0566 eV
             Fermi-level           -0.3397317 Eh           -9.2446 eV

     #   Z          covCN         q      C6AA      α(0)
     1   6 C        2.963     0.004    27.942     8.670
     2   6 C        2.915    -0.029    28.718     8.788
     3   6 C        2.907    -0.028    28.689     8.783
     4   6 C        2.909    -0.023    28.580     8.766
     5   6 C        2.907    -0.027    28.682     8.782
     6   6 C        2.911    -0.029    28.733     8.790
     7   6 C        2.846     0.078    26.254     8.397
     8   1 H        0.925     0.040     2.448     2.447
     9   1 H        0.925     0.066     2.135     2.285
    10   1 H        0.925     0.045     2.380     2.412
    11   7 N        1.824    -0.261    27.635     7.789
    12   6 C        3.753     0.017    20.349     6.433
    13   1 H        0.798     0.316     0.677     1.293
    14   6 C        3.797    -0.058    21.628     6.622
    15   1 H        0.923     0.016     2.803     2.618
    16   1 H        0.923     0.045     2.389     2.417
    17   1 H        0.923     0.047     2.359     2.402
    18   1 H        0.923     0.035     2.512     2.479
    19   8 O        1.605    -0.628    25.867     6.864
    20   1 H        0.923     0.013     2.848     2.639
    21   1 H        0.804     0.279     0.786     1.393
    22   8 O        1.600    -0.623    25.754     6.849
    23   1 H        0.801     0.313     0.685     1.300
    24   1 H        0.804     0.284     0.773     1.381
    25   1 H        0.925     0.044     2.403     2.424
    26   1 H        0.925     0.048     2.345     2.395
    27   6 C        3.796    -0.052    21.515     6.605
    28   1 H        0.923     0.033     2.540     2.493
    29   1 H        0.923     0.031     2.572     2.508
    30   6 C        3.745    -0.101    22.500     6.766
    31   1 H        0.923     0.037     2.495     2.470
    32   1 H        0.923     0.037     2.491     2.468
    33   1 H        0.923     0.035     2.519     2.482

 Mol. C6AA /au·bohr⁶  :       9598.230001
 Mol. C8AA /au·bohr⁸  :     214439.018855
 Mol. α(0) /au        :        151.210083


Wiberg/Mayer (AO) data.
largest (>0.10) Wiberg bond orders for each atom

 ---------------------------------------------------------------------------
     #   Z sym  total        # sym  WBO       # sym  WBO       # sym  WBO
 ---------------------------------------------------------------------------
     1   6 C    3.987 --     2 C    1.373     6 C    1.363     7 C    1.092
     2   6 C    3.986 --     3 C    1.454     1 C    1.373     8 H    0.968
                             5 C    0.105
     3   6 C    3.990 --     2 C    1.454     4 C    1.434    25 H    0.970
                             6 C    0.105
     4   6 C    3.986 --     3 C    1.434     5 C    1.423    10 H    0.971
     5   6 C    3.990 --     6 C    1.463     4 C    1.423    26 H    0.970
                             2 C    0.105
     6   6 C    3.987 --     5 C    1.463     1 C    1.363     9 H    0.963
                             3 C    0.105
     7   6 C    3.965 --    11 N    1.820     1 C    1.092    20 H    0.942
     8   1 H    0.998 --     2 C    0.968
     9   1 H    0.996 --     6 C    0.963
    10   1 H    0.997 --     4 C    0.971
    11   7 N    3.130 --     7 C    1.820    12 C    1.017
    12   6 C    3.981 --    11 N    1.017    14 C    0.987    15 H    0.967
                            16 H    0.959
    13   1 H    0.900 --    22 O    0.820
    14   6 C    3.990 --    27 C    1.005    12 C    0.987    18 H    0.978
                            17 H    0.976
    15   1 H    1.000 --    12 C    0.967
    16   1 H    0.995 --    12 C    0.959
    17   1 H    0.998 --    14 C    0.976
    18   1 H    0.999 --    14 C    0.978
    19   8 O    1.801 --    21 H    0.918    23 H    0.856
    20   1 H    0.999 --     7 C    0.942
    21   1 H    0.922 --    19 O    0.918
    22   8 O    1.846 --    24 H    0.917    13 H    0.820
    23   1 H    0.902 --    19 O    0.856
    24   1 H    0.920 --    22 O    0.917
    25   1 H    0.998 --     3 C    0.970
    26   1 H    0.997 --     5 C    0.970
    27   6 C    3.995 --    30 C    1.018    14 C    1.005    29 H    0.978
                            28 H    0.978
    28   1 H    0.999 --    27 C    0.978
    29   1 H    0.999 --    27 C    0.978
    30   6 C    3.995 --    27 C    1.018    33 H    0.988    31 H    0.988
                            32 H    0.987
    31   1 H    0.999 --    30 C    0.988
    32   1 H    0.998 --    30 C    0.987
    33   1 H    0.999 --    30 C    0.988
 ---------------------------------------------------------------------------

Topologies differ in total number of bonds
Writing topology from bond orders to xtbtopo.mol

molecular dipole:
                 x           y           z       tot (Debye)
 q only:       -0.062      -1.002       1.200
   full:       -0.165      -1.663       1.576       5.839
molecular quadrupole (traceless):
                xx          xy          yy          xz          yz          zz
 q only:       17.472       3.620      -4.300      -2.837       7.334     -13.172
  q+dip:       21.336       5.809      -1.870      -2.511       6.921     -19.466
   full:       20.282       5.999      -3.812      -2.569       8.379     -16.470


           -------------------------------------------------
          | TOTAL ENERGY              -44.277924095489 Eh   |
          | GRADIENT NORM               0.051627381794 Eh/α |
          | HOMO-LUMO GAP               3.056599850476 eV   |
           -------------------------------------------------

------------------------------------------------------------------------
 * finished run on 2021/03/02 at 01:12:30.095     
------------------------------------------------------------------------
 total:
 * wall-time:     0 d,  0 h,  0 min,  0.162 sec
 *  cpu-time:     0 d,  0 h,  0 min,  1.871 sec
 * ratio c/w:    11.547 speedup
 SCF:
 * wall-time:     0 d,  0 h,  0 min,  0.108 sec
 *  cpu-time:     0 d,  0 h,  0 min,  1.260 sec
 * ratio c/w:    11.685 speedup


-------------------------   --------------------
FINAL SINGLE POINT ENERGY       -44.277924095490
-------------------------   --------------------


----------------------------------------------------------------------------
                           ORCA NUMERICAL FREQUENCIES
                              (9-process run)
----------------------------------------------------------------------------

Number of atoms                ... 33
Central differences            ... used
Number of displacements        ... 198
Numerical increment            ... 5.000e-03 bohr
IR-spectrum generation         ... on
Raman-spectrum generation      ... off
Surface Crossing Hessian       ... off
List of participating nodes    ...  /tmp/slurm-scratch/freq.714/freq.hostnames

The output will be reduced. Please look at the following files:
SCF program output             ... >/tmp/slurm-scratch/freq.714/freq.lastscf
Integral program output        ... >/tmp/slurm-scratch/freq.714/freq.lastint
Gradient program output        ... >/tmp/slurm-scratch/freq.714/freq.lastgrad
Dipole moment program output   ... >/tmp/slurm-scratch/freq.714/freq.lastmom
AutoCI program output          ... >/tmp/slurm-scratch/freq.714/freq.lastautoci


         <<< Energy and Gradient at the input geometry >>>

        <<< Energy and Gradient at displaced geometries >>>
             <<<Displacing   2/coordinate 3 (+)>>>
             <<<Displacing   2/coordinate 2 (+)>>>
             <<<Displacing   3/coordinate 2 (+)>>>
             <<<Displacing   2/coordinate 3 (-)>>>
             <<<Displacing   2/coordinate 2 (-)>>>
             <<<Displacing   3/coordinate 2 (-)>>>
             <<<Displacing   3/coordinate 3 (+)>>>
             <<<Displacing   2/coordinate 1 (+)>>>
             <<<Displacing   1/coordinate 1 (+)>>>
             <<<Displacing   1/coordinate 3 (+)>>>
             <<<Displacing   3/coordinate 1 (+)>>>
             <<<Displacing   3/coordinate 3 (-)>>>
             <<<Displacing   2/coordinate 1 (-)>>>
             <<<Displacing   1/coordinate 2 (+)>>>
             <<<Displacing   1/coordinate 1 (-)>>>
             <<<Displacing   1/coordinate 3 (-)>>>
             <<<Displacing   3/coordinate 1 (-)>>>
             <<<Displacing   1/coordinate 2 (-)>>>
             <<<Displacing   5/coordinate 3 (+)>>>
             <<<Displacing   5/coordinate 2 (+)>>>
             <<<Displacing   6/coordinate 1 (+)>>>
             <<<Displacing   5/coordinate 2 (-)>>>
             <<<Displacing   5/coordinate 3 (-)>>>
             <<<Displacing   6/coordinate 1 (-)>>>
             <<<Displacing   4/coordinate 1 (+)>>>
             <<<Displacing   4/coordinate 1 (-)>>>
             <<<Displacing   4/coordinate 2 (+)>>>
             <<<Displacing   4/coordinate 3 (+)>>>
             <<<Displacing   4/coordinate 2 (-)>>>
             <<<Displacing   4/coordinate 3 (-)>>>
             <<<Displacing   5/coordinate 1 (+)>>>
             <<<Displacing   6/coordinate 2 (+)>>>
             <<<Displacing   5/coordinate 1 (-)>>>
             <<<Displacing   6/coordinate 2 (-)>>>
             <<<Displacing   6/coordinate 3 (+)>>>
             <<<Displacing   6/coordinate 3 (-)>>>
             <<<Displacing   7/coordinate 2 (+)>>>
             <<<Displacing   8/coordinate 2 (+)>>>
             <<<Displacing   7/coordinate 1 (+)>>>
             <<<Displacing   7/coordinate 3 (+)>>>
             <<<Displacing   7/coordinate 2 (-)>>>
             <<<Displacing   8/coordinate 2 (-)>>>
             <<<Displacing   7/coordinate 3 (-)>>>
             <<<Displacing   7/coordinate 1 (-)>>>
             <<<Displacing   8/coordinate 1 (+)>>>
             <<<Displacing   8/coordinate 3 (+)>>>
             <<<Displacing   8/coordinate 3 (-)>>>
             <<<Displacing   8/coordinate 1 (-)>>>
             <<<Displacing   9/coordinate 2 (+)>>>
             <<<Displacing   9/coordinate 1 (+)>>>
             <<<Displacing   9/coordinate 2 (-)>>>
             <<<Displacing   9/coordinate 1 (-)>>>
             <<<Displacing   9/coordinate 3 (+)>>>
             <<<Displacing   9/coordinate 3 (-)>>>
             <<<Displacing  10/coordinate 2 (+)>>>
             <<<Displacing  10/coordinate 1 (+)>>>
             <<<Displacing  10/coordinate 2 (-)>>>
             <<<Displacing  11/coordinate 1 (+)>>>
             <<<Displacing  10/coordinate 3 (+)>>>
             <<<Displacing  11/coordinate 1 (-)>>>
             <<<Displacing  10/coordinate 1 (-)>>>
             <<<Displacing  10/coordinate 3 (-)>>>
             <<<Displacing  11/coordinate 2 (+)>>>
             <<<Displacing  11/coordinate 3 (+)>>>
             <<<Displacing  11/coordinate 2 (-)>>>
             <<<Displacing  11/coordinate 3 (-)>>>
             <<<Displacing  12/coordinate 1 (+)>>>
             <<<Displacing  12/coordinate 1 (-)>>>
             <<<Displacing  12/coordinate 2 (+)>>>
             <<<Displacing  12/coordinate 2 (-)>>>
             <<<Displacing  12/coordinate 3 (+)>>>
             <<<Displacing  12/coordinate 3 (-)>>>
             <<<Displacing  13/coordinate 2 (+)>>>
             <<<Displacing  14/coordinate 1 (+)>>>
             <<<Displacing  13/coordinate 1 (+)>>>
             <<<Displacing  13/coordinate 2 (-)>>>
             <<<Displacing  14/coordinate 1 (-)>>>
             <<<Displacing  13/coordinate 1 (-)>>>
             <<<Displacing  13/coordinate 3 (+)>>>
             <<<Displacing  13/coordinate 3 (-)>>>
             <<<Displacing  14/coordinate 3 (+)>>>
             <<<Displacing  14/coordinate 2 (+)>>>
             <<<Displacing  14/coordinate 3 (-)>>>
             <<<Displacing  14/coordinate 2 (-)>>>
             <<<Displacing  15/coordinate 2 (+)>>>
             <<<Displacing  15/coordinate 1 (+)>>>
             <<<Displacing  15/coordinate 2 (-)>>>
             <<<Displacing  15/coordinate 1 (-)>>>
             <<<Displacing  15/coordinate 3 (+)>>>
             <<<Displacing  15/coordinate 3 (-)>>>
             <<<Displacing  16/coordinate 1 (+)>>>
             <<<Displacing  16/coordinate 2 (+)>>>
             <<<Displacing  16/coordinate 3 (+)>>>
             <<<Displacing  16/coordinate 1 (-)>>>
             <<<Displacing  16/coordinate 2 (-)>>>
             <<<Displacing  16/coordinate 3 (-)>>>
             <<<Displacing  17/coordinate 1 (+)>>>
             <<<Displacing  17/coordinate 1 (-)>>>
             <<<Displacing  17/coordinate 2 (+)>>>
             <<<Displacing  17/coordinate 3 (+)>>>
             <<<Displacing  17/coordinate 2 (-)>>>
             <<<Displacing  17/coordinate 3 (-)>>>
             <<<Displacing  18/coordinate 2 (+)>>>
             <<<Displacing  18/coordinate 2 (-)>>>
             <<<Displacing  18/coordinate 1 (+)>>>
             <<<Displacing  18/coordinate 1 (-)>>>
             <<<Displacing  18/coordinate 3 (+)>>>
             <<<Displacing  18/coordinate 3 (-)>>>
             <<<Displacing  19/coordinate 1 (+)>>>
             <<<Displacing  19/coordinate 1 (-)>>>
             <<<Displacing  19/coordinate 2 (+)>>>
             <<<Displacing  19/coordinate 3 (+)>>>
             <<<Displacing  20/coordinate 2 (+)>>>
             <<<Displacing  19/coordinate 3 (-)>>>
             <<<Displacing  20/coordinate 1 (+)>>>
             <<<Displacing  19/coordinate 2 (-)>>>
             <<<Displacing  20/coordinate 2 (-)>>>
             <<<Displacing  20/coordinate 1 (-)>>>
             <<<Displacing  20/coordinate 3 (+)>>>
             <<<Displacing  20/coordinate 3 (-)>>>
             <<<Displacing  21/coordinate 1 (+)>>>
             <<<Displacing  21/coordinate 2 (+)>>>
             <<<Displacing  21/coordinate 1 (-)>>>
             <<<Displacing  21/coordinate 2 (-)>>>
             <<<Displacing  21/coordinate 3 (+)>>>
             <<<Displacing  21/coordinate 3 (-)>>>
             <<<Displacing  22/coordinate 1 (+)>>>
             <<<Displacing  22/coordinate 3 (+)>>>
             <<<Displacing  22/coordinate 3 (-)>>>
             <<<Displacing  22/coordinate 1 (-)>>>
             <<<Displacing  22/coordinate 2 (+)>>>
             <<<Displacing  23/coordinate 2 (+)>>>
             <<<Displacing  23/coordinate 2 (-)>>>
             <<<Displacing  22/coordinate 2 (-)>>>
             <<<Displacing  23/coordinate 1 (+)>>>
             <<<Displacing  23/coordinate 1 (-)>>>
             <<<Displacing  23/coordinate 3 (+)>>>
             <<<Displacing  23/coordinate 3 (-)>>>
             <<<Displacing  24/coordinate 1 (+)>>>
             <<<Displacing  24/coordinate 2 (+)>>>
             <<<Displacing  24/coordinate 1 (-)>>>
             <<<Displacing  24/coordinate 3 (+)>>>
             <<<Displacing  24/coordinate 2 (-)>>>
             <<<Displacing  24/coordinate 3 (-)>>>
             <<<Displacing  25/coordinate 1 (+)>>>
             <<<Displacing  25/coordinate 3 (+)>>>
             <<<Displacing  25/coordinate 1 (-)>>>
             <<<Displacing  25/coordinate 3 (-)>>>
             <<<Displacing  25/coordinate 2 (+)>>>
             <<<Displacing  25/coordinate 2 (-)>>>
             <<<Displacing  26/coordinate 1 (+)>>>
             <<<Displacing  26/coordinate 2 (+)>>>
             <<<Displacing  26/coordinate 1 (-)>>>
             <<<Displacing  26/coordinate 2 (-)>>>
             <<<Displacing  26/coordinate 3 (+)>>>
             <<<Displacing  26/coordinate 3 (-)>>>
             <<<Displacing  27/coordinate 2 (+)>>>
             <<<Displacing  27/coordinate 1 (+)>>>
             <<<Displacing  27/coordinate 2 (-)>>>
             <<<Displacing  27/coordinate 1 (-)>>>
             <<<Displacing  27/coordinate 3 (+)>>>
             <<<Displacing  27/coordinate 3 (-)>>>
             <<<Displacing  28/coordinate 1 (+)>>>
             <<<Displacing  28/coordinate 2 (+)>>>
             <<<Displacing  28/coordinate 2 (-)>>>
             <<<Displacing  28/coordinate 1 (-)>>>
             <<<Displacing  28/coordinate 3 (+)>>>
             <<<Displacing  29/coordinate 2 (+)>>>
             <<<Displacing  28/coordinate 3 (-)>>>
             <<<Displacing  29/coordinate 2 (-)>>>
             <<<Displacing  29/coordinate 1 (+)>>>
             <<<Displacing  29/coordinate 1 (-)>>>
             <<<Displacing  29/coordinate 3 (+)>>>
             <<<Displacing  29/coordinate 3 (-)>>>
             <<<Displacing  30/coordinate 1 (+)>>>
             <<<Displacing  30/coordinate 2 (+)>>>
             <<<Displacing  30/coordinate 1 (-)>>>
             <<<Displacing  30/coordinate 2 (-)>>>
             <<<Displacing  31/coordinate 1 (+)>>>
             <<<Displacing  30/coordinate 3 (+)>>>
             <<<Displacing  31/coordinate 1 (-)>>>
             <<<Displacing  30/coordinate 3 (-)>>>
             <<<Displacing  31/coordinate 2 (+)>>>
             <<<Displacing  31/coordinate 3 (+)>>>
             <<<Displacing  32/coordinate 1 (+)>>>
             <<<Displacing  31/coordinate 2 (-)>>>
             <<<Displacing  31/coordinate 3 (-)>>>
             <<<Displacing  32/coordinate 1 (-)>>>
             <<<Displacing  32/coordinate 2 (+)>>>
             <<<Displacing  32/coordinate 2 (-)>>>
             <<<Displacing  32/coordinate 3 (+)>>>
             <<<Displacing  32/coordinate 3 (-)>>>
             <<<Displacing  33/coordinate 1 (+)>>>
             <<<Displacing  33/coordinate 1 (-)>>>
             <<<Displacing  33/coordinate 2 (+)>>>
             <<<Displacing  33/coordinate 2 (-)>>>
             <<<Displacing  33/coordinate 3 (+)>>>
             <<<Displacing  33/coordinate 3 (-)>>>

-----------------------
VIBRATIONAL FREQUENCIES
-----------------------

Scaling factor for frequencies =  1.000000000 (already applied!)

   0:         0.00 cm**-1
   1:         0.00 cm**-1
   2:         0.00 cm**-1
   3:         0.00 cm**-1
   4:         0.00 cm**-1
   5:         0.00 cm**-1
   6:        45.69 cm**-1
   7:        58.46 cm**-1
   8:        72.79 cm**-1
   9:        82.43 cm**-1
  10:       102.48 cm**-1
  11:       117.74 cm**-1
  12:       145.58 cm**-1
  13:       157.23 cm**-1
  14:       168.20 cm**-1
  15:       179.47 cm**-1
  16:       192.25 cm**-1
  17:       212.92 cm**-1
  18:       252.43 cm**-1
  19:       288.46 cm**-1
  20:       305.15 cm**-1
  21:       349.54 cm**-1
  22:       396.14 cm**-1
  23:       402.14 cm**-1
  24:       404.30 cm**-1
  25:       430.65 cm**-1
  26:       481.96 cm**-1
  27:       483.18 cm**-1
  28:       514.27 cm**-1
  29:       546.88 cm**-1
  30:       589.44 cm**-1
  31:       619.57 cm**-1
  32:       635.27 cm**-1
  33:       678.42 cm**-1
  34:       716.33 cm**-1
  35:       787.20 cm**-1
  36:       798.68 cm**-1
  37:       809.98 cm**-1
  38:       838.40 cm**-1
  39:       864.99 cm**-1
  40:       903.51 cm**-1
  41:       924.27 cm**-1
  42:       937.43 cm**-1
  43:       945.00 cm**-1
  44:       953.72 cm**-1
  45:       963.19 cm**-1
  46:       964.68 cm**-1
  47:       974.24 cm**-1
  48:      1008.93 cm**-1
  49:      1042.18 cm**-1
  50:      1056.70 cm**-1
  51:      1076.64 cm**-1
  52:      1111.13 cm**-1
  53:      1119.56 cm**-1
  54:      1146.57 cm**-1
  55:      1184.99 cm**-1
  56:      1187.57 cm**-1
  57:      1208.08 cm**-1
  58:      1216.00 cm**-1
  59:      1245.51 cm**-1
  60:      1261.83 cm**-1
  61:      1273.24 cm**-1
  62:      1280.86 cm**-1
  63:      1283.69 cm**-1
  64:      1330.16 cm**-1
  65:      1356.05 cm**-1
  66:      1370.35 cm**-1
  67:      1407.48 cm**-1
  68:      1434.70 cm**-1
  69:      1438.36 cm**-1
  70:      1473.51 cm**-1
  71:      1503.48 cm**-1
  72:      1507.93 cm**-1
  73:      1510.78 cm**-1
  74:      1515.39 cm**-1
  75:      1522.92 cm**-1
  76:      1531.54 cm**-1
  77:      1562.44 cm**-1
  78:      1583.30 cm**-1
  79:      1600.41 cm**-1
  80:      2729.53 cm**-1
  81:      2813.62 cm**-1
  82:      2830.29 cm**-1
  83:      2872.79 cm**-1
  84:      2875.35 cm**-1
  85:      2890.35 cm**-1
  86:      2897.50 cm**-1
  87:      2908.28 cm**-1
  88:      2913.86 cm**-1
  89:      2919.58 cm**-1
  90:      2931.72 cm**-1
  91:      2982.46 cm**-1
  92:      2991.48 cm**-1
  93:      2996.89 cm**-1
  94:      3005.97 cm**-1
  95:      3035.18 cm**-1
  96:      3092.85 cm**-1
  97:      3427.78 cm**-1
  98:      3448.61 cm**-1


------------
NORMAL MODES
------------

These modes are the cartesian displacements weighted by the diagonal matrix
M(i,i)=1/sqrt(m[i]) where m[i] is the mass of the displaced atom
Thus, these vectors are normalized but *not* orthogonal

                  0          1          2          3          4          5    
      0       0.000000   0.000000   0.000000   0.000000   0.000000   0.000000
      1       0.000000   0.000000   0.000000   0.000000   0.000000   0.000000
      2       0.000000   0.000000   0.000000   0.000000   0.000000   0.000000
      3       0.000000   0.000000   0.000000   0.000000   0.000000   0.000000
      4       0.000000   0.000000   0.000000   0.000000   0.000000   0.000000
      5       0.000000   0.000000   0.000000   0.000000   0.000000   0.000000
      6       0.000000   0.000000   0.000000   0.000000   0.000000   0.000000
      7       0.000000   0.000000   0.000000   0.000000   0.000000   0.000000
      8       0.000000   0.000000   0.000000   0.000000   0.000000   0.000000
      9       0.000000   0.000000   0.000000   0.000000   0.000000   0.000000
     10       0.000000   0.000000   0.000000   0.000000   0.000000   0.000000
     11       0.000000   0.000000   0.000000   0.000000   0.000000   0.000000
     12       0.000000   0.000000   0.000000   0.000000   0.000000   0.000000
     13       0.000000   0.000000   0.000000   0.000000   0.000000   0.000000
     14       0.000000   0.000000   0.000000   0.000000   0.000000   0.000000
     15       0.000000   0.000000   0.000000   0.000000   0.000000   0.000000
     16       0.000000   0.000000   0.000000   0.000000   0.000000   0.000000
     17       0.000000   0.000000   0.000000   0.000000   0.000000   0.000000
     18       0.000000   0.000000   0.000000   0.000000   0.000000   0.000000
     19       0.000000   0.000000   0.000000   0.000000   0.000000   0.000000
     20       0.000000   0.000000   0.000000   0.000000   0.000000   0.000000
     21       0.000000   0.000000   0.000000   0.000000   0.000000   0.000000
     22       0.000000   0.000000   0.000000   0.000000   0.000000   0.000000
     23       0.000000   0.000000   0.000000   0.000000   0.000000   0.000000
     24       0.000000   0.000000   0.000000   0.000000   0.000000   0.000000
     25       0.000000   0.000000   0.000000   0.000000   0.000000   0.000000
     26       0.000000   0.000000   0.000000   0.000000   0.000000   0.000000
     27       0.000000   0.000000   0.000000   0.000000   0.000000   0.000000
     28       0.000000   0.000000   0.000000   0.000000   0.000000   0.000000
     29       0.000000   0.000000   0.000000   0.000000   0.000000   0.000000
     30       0.000000   0.000000   0.000000   0.000000   0.000000   0.000000
     31       0.000000   0.000000   0.000000   0.000000   0.000000   0.000000
     32       0.000000   0.000000   0.000000   0.000000   0.000000   0.000000
     33       0.000000   0.000000   0.000000   0.000000   0.000000   0.000000
     34       0.000000   0.000000   0.000000   0.000000   0.000000   0.000000
     35       0.000000   0.000000   0.000000   0.000000   0.000000   0.000000
     36       0.000000   0.000000   0.000000   0.000000   0.000000   0.000000
     37       0.000000   0.000000   0.000000   0.000000   0.000000   0.000000
     38       0.000000   0.000000   0.000000   0.000000   0.000000   0.000000
     39       0.000000   0.000000   0.000000   0.000000   0.000000   0.000000
     40       0.000000   0.000000   0.000000   0.000000   0.000000   0.000000
     41       0.000000   0.000000   0.000000   0.000000   0.000000   0.000000
     42       0.000000   0.000000   0.000000   0.000000   0.000000   0.000000
     43       0.000000   0.000000   0.000000   0.000000   0.000000   0.000000
     44       0.000000   0.000000   0.000000   0.000000   0.000000   0.000000
     45       0.000000   0.000000   0.000000   0.000000   0.000000   0.000000
     46       0.000000   0.000000   0.000000   0.000000   0.000000   0.000000
     47       0.000000   0.000000   0.000000   0.000000   0.000000   0.000000
     48       0.000000   0.000000   0.000000   0.000000   0.000000   0.000000
     49       0.000000   0.000000   0.000000   0.000000   0.000000   0.000000
     50       0.000000   0.000000   0.000000   0.000000   0.000000   0.000000
     51       0.000000   0.000000   0.000000   0.000000   0.000000   0.000000
     52       0.000000   0.000000   0.000000   0.000000   0.000000   0.000000
     53       0.000000   0.000000   0.000000   0.000000   0.000000   0.000000
     54       0.000000   0.000000   0.000000   0.000000   0.000000   0.000000
     55       0.000000   0.000000   0.000000   0.000000   0.000000   0.000000
     56       0.000000   0.000000   0.000000   0.000000   0.000000   0.000000
     57       0.000000   0.000000   0.000000   0.000000   0.000000   0.000000
     58       0.000000   0.000000   0.000000   0.000000   0.000000   0.000000
     59       0.000000   0.000000   0.000000   0.000000   0.000000   0.000000
     60       0.000000   0.000000   0.000000   0.000000   0.000000   0.000000
     61       0.000000   0.000000   0.000000   0.000000   0.000000   0.000000
     62       0.000000   0.000000   0.000000   0.000000   0.000000   0.000000
     63       0.000000   0.000000   0.000000   0.000000   0.000000   0.000000
     64       0.000000   0.000000   0.000000   0.000000   0.000000   0.000000
     65       0.000000   0.000000   0.000000   0.000000   0.000000   0.000000
     66       0.000000   0.000000   0.000000   0.000000   0.000000   0.000000
     67       0.000000   0.000000   0.000000   0.000000   0.000000   0.000000
     68       0.000000   0.000000   0.000000   0.000000   0.000000   0.000000
     69       0.000000   0.000000   0.000000   0.000000   0.000000   0.000000
     70       0.000000   0.000000   0.000000   0.000000   0.000000   0.000000
     71       0.000000   0.000000   0.000000   0.000000   0.000000   0.000000
     72       0.000000   0.000000   0.000000   0.000000   0.000000   0.000000
     73       0.000000   0.000000   0.000000   0.000000   0.000000   0.000000
     74       0.000000   0.000000   0.000000   0.000000   0.000000   0.000000
     75       0.000000   0.000000   0.000000   0.000000   0.000000   0.000000
     76       0.000000   0.000000   0.000000   0.000000   0.000000   0.000000
     77       0.000000   0.000000   0.000000   0.000000   0.000000   0.000000
     78       0.000000   0.000000   0.000000   0.000000   0.000000   0.000000
     79       0.000000   0.000000   0.000000   0.000000   0.000000   0.000000
     80       0.000000   0.000000   0.000000   0.000000   0.000000   0.000000
     81       0.000000   0.000000   0.000000   0.000000   0.000000   0.000000
     82       0.000000   0.000000   0.000000   0.000000   0.000000   0.000000
     83       0.000000   0.000000   0.000000   0.000000   0.000000   0.000000
     84       0.000000   0.000000   0.000000   0.000000   0.000000   0.000000
     85       0.000000   0.000000   0.000000   0.000000   0.000000   0.000000
     86       0.000000   0.000000   0.000000   0.000000   0.000000   0.000000
     87       0.000000   0.000000   0.000000   0.000000   0.000000   0.000000
     88       0.000000   0.000000   0.000000   0.000000   0.000000   0.000000
     89       0.000000   0.000000   0.000000   0.000000   0.000000   0.000000
     90       0.000000   0.000000   0.000000   0.000000   0.000000   0.000000
     91       0.000000   0.000000   0.000000   0.000000   0.000000   0.000000
     92       0.000000   0.000000   0.000000   0.000000   0.000000   0.000000
     93       0.000000   0.000000   0.000000   0.000000   0.000000   0.000000
     94       0.000000   0.000000   0.000000   0.000000   0.000000   0.000000
     95       0.000000   0.000000   0.000000   0.000000   0.000000   0.000000
     96       0.000000   0.000000   0.000000   0.000000   0.000000   0.000000
     97       0.000000   0.000000   0.000000   0.000000   0.000000   0.000000
     98       0.000000   0.000000   0.000000   0.000000   0.000000   0.000000
                  6          7          8          9         10         11    
      0       0.070140   0.038036   0.024497   0.025046   0.031719   0.026378
      1      -0.008705  -0.057206  -0.024104   0.030484   0.050615   0.012413
      2      -0.000610   0.050437  -0.003874   0.052263   0.011502   0.002072
      3       0.072920   0.040824   0.047159   0.010225  -0.012443   0.003372
      4      -0.004020  -0.046979   0.003255   0.003957  -0.006754  -0.039346
      5       0.010537   0.114931  -0.054427   0.003653   0.076134  -0.206518
      6       0.072310   0.044528   0.023695   0.009997   0.018279   0.006879
      7      -0.000777  -0.045800   0.030176  -0.035121  -0.093522  -0.037555
      8       0.013760   0.136417  -0.121276  -0.081404   0.052181  -0.184625
      9       0.068735   0.043726  -0.021735   0.027342   0.094280   0.032948
     10      -0.002279  -0.054449   0.030545  -0.047312  -0.123187   0.016348
     11       0.005470   0.099403  -0.142134  -0.124549  -0.037480   0.058811
     12       0.065875   0.039254  -0.044115   0.043839   0.139443   0.055071
     13      -0.006778  -0.064515   0.003945  -0.022779  -0.066924   0.060686
     14      -0.005419   0.035838  -0.098349  -0.086791  -0.105393   0.255894
     15       0.066621   0.035846  -0.021222   0.044468   0.108243   0.049648
     16      -0.009793  -0.067041  -0.023361   0.016835   0.018805   0.056836
     17      -0.008616   0.007298  -0.028906   0.001496  -0.083935   0.219787
     18       0.069834   0.032845   0.048026   0.025061  -0.000481   0.020308
     19      -0.011994  -0.049422  -0.050510   0.055868   0.129622   0.022703
     20      -0.010350   0.036920   0.070723   0.127930   0.028474   0.001280
     21       0.075449   0.040254   0.082192  -0.000920  -0.069432  -0.017040
     22      -0.003037  -0.040090   0.002613   0.012223   0.015380  -0.075910
     23       0.016011   0.144483  -0.039474   0.033796   0.141958  -0.373326
     24       0.063380   0.027262  -0.038080   0.062254   0.135272   0.058398
     25      -0.013882  -0.080125  -0.043231   0.040550   0.054487   0.076570
     26      -0.016593  -0.048667   0.010453   0.027728  -0.135531   0.343602
     27       0.068137   0.046612  -0.039094   0.027269   0.116781   0.036379
     28      -0.000048  -0.052972   0.051180  -0.074971  -0.185985   0.020859
     29       0.007184   0.117044  -0.188874  -0.184560  -0.053589   0.086567
     30       0.070850   0.040295   0.029735   0.015426   0.010796   0.023200
     31      -0.008688  -0.049848  -0.078762   0.059568   0.156314   0.055533
     32      -0.007041   0.005970   0.089705   0.169482   0.028885   0.056840
     33       0.065050   0.033190   0.039993   0.024623   0.011423   0.018593
     34      -0.006450  -0.031320  -0.078821   0.025254   0.135535   0.056924
     35      -0.029823   0.017467   0.126784   0.145243   0.004110   0.044961
     36      -0.101582  -0.049417  -0.053034   0.151022  -0.185195  -0.026299
     37       0.069528  -0.100657  -0.180898   0.064990   0.062632  -0.069552
     38       0.193284  -0.091254   0.025196   0.119014  -0.116287  -0.080850
     39       0.028469   0.040777  -0.011017  -0.089348  -0.041983  -0.007200
     40       0.028146   0.009608   0.008825  -0.008074   0.051195   0.044214
     41      -0.090223  -0.009390   0.011001   0.074225   0.027136   0.033417
     42       0.053799   0.020861   0.049340   0.048851   0.027828   0.015689
     43       0.007044  -0.021638  -0.035263   0.041585   0.123279   0.055353
     44       0.008590   0.047914   0.230694   0.175147  -0.032612   0.042920
     45       0.099604   0.034975   0.071545   0.080636   0.025635   0.030498
     46      -0.039630  -0.053195  -0.184108  -0.023490   0.154358   0.055887
     47      -0.046895   0.018974   0.119699   0.116592  -0.007067   0.037439
     48       0.058796   0.063983   0.051526  -0.091175  -0.114029   0.000938
     49       0.020894   0.003288  -0.011109  -0.011856   0.053515   0.049396
     50      -0.119875  -0.033824  -0.062014   0.066050   0.061111   0.043292
     51      -0.011690   0.036072  -0.077267  -0.176332  -0.054261  -0.034074
     52       0.043631   0.020489   0.048524   0.006618   0.058335   0.031426
     53      -0.067994  -0.007890   0.045803   0.124581   0.033439   0.050964
     54      -0.316161  -0.238645   0.113295  -0.039983   0.025658  -0.056183
     55      -0.184851   0.357978   0.166756   0.028368   0.018596  -0.078744
     56       0.106157  -0.239804   0.241842  -0.191401   0.142612  -0.047141
     57       0.068158   0.021009   0.084692   0.036029  -0.036392   0.013613
     58      -0.017629  -0.037828  -0.036213   0.053644   0.131578  -0.000238
     59      -0.023944   0.064926   0.102210   0.122939   0.036377  -0.051125
     60      -0.314293  -0.190254   0.104694  -0.001837  -0.015738  -0.055750
     61      -0.179108   0.360162   0.165728   0.032186   0.016153  -0.068197
     62       0.110621  -0.306436   0.253818  -0.241732   0.199892  -0.035521
     63      -0.157795  -0.103303  -0.081430   0.187945  -0.231522  -0.062809
     64       0.097329  -0.119752  -0.197604   0.063387   0.006556  -0.121779
     65       0.238322  -0.096406   0.010212   0.107592  -0.166362  -0.135062
     66      -0.281508  -0.220396   0.055807   0.021593  -0.041108  -0.067145
     67      -0.106129   0.244692   0.071086   0.041185   0.008139  -0.085456
     68       0.147445  -0.210206   0.175048  -0.115806   0.058300  -0.057525
     69      -0.168002  -0.109752  -0.064905   0.169447  -0.218821  -0.059206
     70       0.086915  -0.157817  -0.240962   0.102275  -0.062917  -0.177262
     71       0.262928  -0.068211  -0.005068   0.128781  -0.163575  -0.120037
     72       0.074269   0.047436   0.040667  -0.003090  -0.016737  -0.009825
     73       0.002540  -0.038176   0.049911  -0.055335  -0.135805  -0.073573
     74       0.021518   0.179405  -0.153741  -0.111299   0.100197  -0.338627
     75       0.063082   0.040447  -0.078306   0.055904   0.197460   0.075396
     76      -0.007853  -0.070407   0.004536  -0.031669  -0.088061   0.094391
     77      -0.011476   0.008394  -0.113495  -0.121226  -0.171167   0.419499
     78       0.006764   0.025701  -0.055794  -0.092573   0.008039  -0.012730
     79       0.053701   0.043865   0.072338  -0.065194  -0.071490   0.029635
     80      -0.135201  -0.004553  -0.052538  -0.054639  -0.005149  -0.019250
     81       0.037751   0.027845  -0.001760  -0.010270   0.020025   0.011011
     82       0.053825   0.038918   0.058950  -0.067824  -0.072210   0.053186
     83      -0.153316  -0.005187  -0.082400  -0.102473  -0.012121  -0.036252
     84      -0.023680   0.003849  -0.117763  -0.089872   0.085969  -0.016508
     85       0.054790   0.047235   0.080507  -0.066770  -0.077027   0.018811
     86      -0.119895   0.013025  -0.006285  -0.059440  -0.050941  -0.044377
     87      -0.013476   0.037125  -0.088359  -0.208090  -0.062900  -0.044912
     88       0.077211   0.077440   0.138620  -0.118082  -0.189705  -0.008235
     89      -0.172170  -0.022350  -0.134846  -0.110557   0.030125  -0.016071
     90       0.003398   0.053875  -0.050116  -0.227727  -0.125690  -0.052502
     91       0.072744   0.073926   0.125685  -0.124042  -0.183321  -0.002089
     92      -0.192544  -0.040209  -0.188138  -0.115340   0.079761   0.003641
     93      -0.021497   0.028866  -0.106626  -0.197381  -0.031501  -0.040949
     94       0.086918   0.095737   0.165367  -0.165335  -0.264253  -0.027030
     95      -0.187305  -0.015946  -0.156823  -0.180445  -0.006930  -0.045300
     96      -0.036002   0.036456  -0.130965  -0.279426  -0.081249  -0.064096
     97       0.088337   0.085723   0.170229  -0.101930  -0.203880  -0.022919
     98      -0.161393  -0.022980  -0.115725  -0.074103   0.041694  -0.003986
                 12         13         14         15         16         17    
      0      -0.002471   0.002119   0.035427  -0.007101   0.011166  -0.013047
      1       0.022860  -0.002225  -0.103215   0.025345  -0.116372   0.026453
      2       0.133854  -0.184415  -0.027087  -0.011468   0.019576   0.011213
      3      -0.009466   0.007294   0.078336  -0.024039   0.051163  -0.026717
      4       0.009353   0.009685  -0.044223  -0.000451  -0.056578   0.009002
      5       0.070517  -0.083790  -0.033287  -0.026128   0.018107   0.007742
      6      -0.024841   0.034329   0.053729  -0.011606   0.013868  -0.021634
      7      -0.014990   0.027255   0.039233  -0.028912   0.033286  -0.011570
      8      -0.061008   0.092770   0.001935  -0.017719   0.003549  -0.003610
      9      -0.035243   0.064419  -0.016882   0.021034  -0.079743  -0.005853
     10      -0.026705   0.035932   0.055652  -0.026143   0.039515  -0.014209
     11      -0.116554   0.145158   0.035843   0.011055  -0.020165  -0.006487
     12      -0.025696   0.058048  -0.064539   0.039696  -0.127719   0.006829
     13      -0.006869   0.015824  -0.009634  -0.000233  -0.024388   0.004745
     14      -0.020741  -0.005617   0.019845   0.024681  -0.010722   0.002344
     15      -0.010863   0.031629  -0.035551   0.024833  -0.082241  -0.000130
     16       0.017250   0.000100  -0.091732   0.025991  -0.106082   0.025373
     17       0.105693  -0.169987  -0.011791   0.009682   0.021401   0.008899
     18      -0.003519   0.000345   0.038987  -0.007743   0.003256  -0.013949
     19       0.029030  -0.006007  -0.105160   0.026398  -0.085683   0.024176
     20       0.133728  -0.170341  -0.002112  -0.001158  -0.015314  -0.023671
     21      -0.005649  -0.005418   0.133520  -0.047352   0.112632  -0.042393
     22       0.016011   0.005129  -0.055596  -0.001616  -0.062326   0.011482
     23       0.100164  -0.109423  -0.053068  -0.042802   0.023373   0.009336
     24      -0.005416   0.038919  -0.075320   0.040196  -0.125292   0.004177
     25       0.026887   0.004468  -0.144315   0.047177  -0.164150   0.030846
     26       0.162183  -0.255454  -0.013627   0.015879   0.045318  -0.004236
     27      -0.046820   0.084560  -0.034764   0.030311  -0.106230  -0.001749
     28      -0.047582   0.052743   0.114807  -0.044005   0.094385  -0.029094
     29      -0.222521   0.288142   0.068442   0.021737  -0.042689  -0.016971
     30       0.020633  -0.026532   0.049348  -0.022854   0.068692   0.003691
     31      -0.002265   0.035997  -0.041544  -0.016605   0.060063   0.063122
     32      -0.018566   0.014406   0.078322  -0.027531   0.017805   0.001319
     33      -0.013979  -0.029118   0.033518   0.001163  -0.002567  -0.035081
     34       0.034261   0.056672  -0.002948  -0.047260   0.183624   0.107444
     35      -0.102320   0.065052   0.104717   0.014663  -0.051546  -0.110117
     36       0.100665   0.133185  -0.144492  -0.002299   0.070981  -0.080689
     37      -0.111831  -0.199568   0.151017   0.018335   0.005331  -0.165388
     38       0.031710   0.117092  -0.012439   0.000798  -0.031304   0.278605
     39      -0.068123  -0.099450  -0.084969  -0.059179   0.062841   0.031457
     40       0.110216   0.118461   0.137009   0.029310   0.126992   0.028990
     41      -0.215024  -0.037864  -0.108896  -0.100883   0.049967   0.007636
     42      -0.065300  -0.019175   0.017586   0.044096  -0.112085  -0.106877
     43       0.055618   0.097194   0.066859   0.010225   0.115508   0.036943
     44      -0.024450   0.160241   0.290781   0.138178  -0.165878  -0.252271
     45       0.066313  -0.002343   0.112572   0.032184  -0.023583  -0.042724
     46      -0.011074  -0.045854  -0.181337  -0.186822   0.344311   0.280813
     47      -0.143780   0.059876   0.076642   0.012955  -0.058802  -0.125520
     48      -0.153042  -0.155003  -0.154124  -0.230561  -0.030975  -0.000837
     49       0.045878   0.068580   0.046468  -0.074750   0.133464   0.059175
     50      -0.337775  -0.136182  -0.300859  -0.288989   0.104460   0.093850
     51      -0.056959  -0.126493  -0.138053  -0.012579   0.117669   0.085948
     52       0.272130   0.241294   0.359010   0.297950   0.114230  -0.040095
     53      -0.241236  -0.037455  -0.104582  -0.162447   0.017144  -0.016999
     54      -0.057282  -0.075033   0.125334   0.001938  -0.061337   0.171623
     55       0.016531   0.009468  -0.013126   0.023708   0.004088   0.003923
     56       0.039202   0.058055  -0.095845   0.009880   0.057025  -0.157629
     57      -0.029139   0.025340   0.031441   0.010419  -0.085024  -0.037417
     58       0.065158  -0.041560  -0.122032   0.045066  -0.118853  -0.007892
     59       0.215797  -0.254993  -0.039273   0.043103  -0.094325  -0.100041
     60      -0.043825  -0.042465   0.109842   0.001904  -0.064711   0.212669
     61       0.018435   0.021566  -0.018668   0.023010   0.007075   0.008230
     62       0.021612   0.025988  -0.079302   0.009044   0.064979  -0.209268
     63       0.085606   0.148280  -0.152326   0.002999   0.073600  -0.170836
     64      -0.104134  -0.201251   0.141820   0.029499  -0.005576  -0.180187
     65       0.031015   0.080859   0.006731   0.012489  -0.046529   0.266013
     66      -0.048828  -0.061348   0.120683   0.002840  -0.062922   0.189118
     67      -0.004299  -0.038881   0.010651   0.024895   0.016299  -0.084281
     68       0.058251   0.088180  -0.119102   0.011181   0.061581  -0.150840
     69       0.092753   0.151954  -0.167575   0.006067   0.083220  -0.218343
     70      -0.119904  -0.202337   0.151233   0.034003  -0.013979  -0.212774
     71       0.023335   0.075339   0.033093   0.004298  -0.063055   0.380446
     72      -0.028199   0.032005   0.090021  -0.027447   0.059517  -0.030398
     73      -0.024826   0.033008   0.087619  -0.050988   0.093778  -0.023732
     74      -0.121106   0.189817   0.005303  -0.029196   0.001310  -0.011353
     75      -0.029507   0.070981  -0.120896   0.063826  -0.193955   0.023082
     76      -0.012765   0.019042   0.000621   0.001292  -0.019501   0.002274
     77      -0.049153   0.015707   0.036735   0.043961  -0.022010  -0.000530
     78       0.002487  -0.060362  -0.030713   0.057721   0.140958   0.061671
     79       0.030659   0.043682   0.051306  -0.103233  -0.023958  -0.018781
     80      -0.082527   0.003263  -0.037760   0.140995   0.068789   0.023021
     81      -0.120674  -0.101736  -0.094697   0.036489   0.218338   0.085146
     82       0.071371   0.063272   0.065909  -0.432824  -0.212688  -0.094203
     83      -0.015091   0.025037  -0.002015   0.196107   0.046947   0.018698
     84       0.102829   0.011704   0.061390   0.219262   0.264052   0.101201
     85       0.010209   0.030678   0.039229   0.028739   0.044469   0.010465
     86      -0.174120  -0.057830  -0.103886   0.402113   0.188652   0.078679
     87       0.116399  -0.062700  -0.007272  -0.019312  -0.067583   0.002401
     88      -0.080050  -0.070175  -0.071579   0.048187  -0.054449  -0.002710
     89       0.104971   0.097567   0.084063  -0.049181  -0.091918  -0.045021
     90       0.063282  -0.119256  -0.068829  -0.070680  -0.161453  -0.024972
     91      -0.043844  -0.049993  -0.046328  -0.042086  -0.115054  -0.030713
     92       0.225513   0.179197   0.181171  -0.251973  -0.196478  -0.101878
     93       0.141321  -0.035007   0.022732   0.007372  -0.019446   0.016530
     94      -0.104292  -0.126609  -0.126080   0.026510  -0.166983  -0.029926
     95       0.166885   0.089360   0.092907   0.028590  -0.143417  -0.045281
     96       0.227350  -0.037454   0.040804  -0.049111  -0.177152  -0.027795
     97      -0.168986  -0.119529  -0.133152   0.269835   0.095704   0.066551
     98       0.056061   0.089854   0.065664  -0.059931  -0.051178  -0.037231
                 18         19         20         21         22         23    
      0      -0.058155   0.042456  -0.020874  -0.002539   0.038692   0.000925
      1       0.044267  -0.010134   0.037062   0.003579  -0.093252  -0.008960
      2      -0.031034   0.032090   0.002818  -0.001222  -0.039878  -0.005072
      3      -0.106482   0.096113  -0.032357  -0.005102   0.079186   0.006811
      4      -0.008624   0.047322   0.038091   0.000974  -0.044638   0.002414
      5      -0.031329   0.070283   0.131285  -0.000794   0.101399   0.032563
      6      -0.091917   0.090862  -0.031942  -0.003481   0.039745  -0.000352
      7      -0.049883   0.044967  -0.012614  -0.003565   0.008392  -0.006691
      8       0.001607  -0.020210   0.058356   0.001127  -0.040811  -0.030746
      9      -0.054993   0.091783  -0.034825   0.000068  -0.022916   0.000241
     10      -0.040871   0.025093  -0.059764  -0.004079   0.017094  -0.001214
     11       0.059560  -0.104030  -0.143033   0.001440  -0.058736  -0.005902
     12      -0.023494   0.078381   0.002757   0.002542  -0.035315   0.001617
     13      -0.000908   0.013646   0.006224  -0.000501   0.006082   0.003876
     14       0.015659   0.024998   0.023288   0.001634   0.101546   0.034672
     15      -0.047799   0.084534   0.001352   0.000282  -0.005513  -0.003542
     16       0.036558   0.002365   0.066525   0.003999  -0.092051  -0.014285
     17      -0.045340   0.086389   0.139317   0.000792  -0.007230  -0.027951
     18      -0.018971  -0.006487  -0.002461   0.001260  -0.046631  -0.005143
     19       0.055741  -0.044047  -0.065869  -0.004432   0.115689   0.005417
     20       0.065725  -0.032986  -0.264171  -0.002712  -0.045574  -0.003715
     21      -0.160661   0.143521  -0.055686  -0.008771   0.136988   0.014821
     22      -0.004803   0.049590   0.058039   0.001279  -0.026536   0.011115
     23      -0.046154   0.109892   0.203402  -0.001362   0.206431   0.073030
     24      -0.034277   0.095592   0.017195   0.002393  -0.047800  -0.010473
     25       0.052420   0.022469   0.090412   0.006764  -0.148908  -0.023876
     26      -0.063187   0.120534   0.202221   0.000807  -0.020534  -0.051611
     27      -0.035295   0.074032  -0.047519   0.001208  -0.046271  -0.001581
     28      -0.059728   0.013780  -0.120075  -0.006701   0.040309   0.000405
     29       0.120982  -0.217786  -0.340581   0.001751  -0.132213  -0.011447
     30      -0.021434  -0.033588  -0.026373  -0.000764  -0.028916  -0.003156
     31      -0.065938  -0.184120   0.034447  -0.005359   0.107541   0.006109
     32      -0.126601  -0.262284   0.044852   0.006355  -0.194758  -0.012598
     33       0.061140  -0.109451   0.042206   0.000779   0.039809   0.000650
     34      -0.041013  -0.025803  -0.045152  -0.006118   0.071811   0.005648
     35       0.128252  -0.055103   0.085971   0.004116   0.102606   0.006036
     36       0.001172   0.006714  -0.008959  -0.000425   0.008027   0.002456
     37      -0.049476  -0.060667   0.028567   0.004384  -0.072935  -0.006521
     38      -0.023463  -0.065013   0.036512  -0.000263  -0.002735  -0.004988
     39       0.144895   0.012518   0.031089   0.010364  -0.077622  -0.004950
     40       0.122518   0.065046   0.032468  -0.006191  -0.019153  -0.000179
     41       0.043450   0.048895   0.001162   0.011587   0.066060   0.005076
     42       0.135551  -0.167938   0.116425  -0.002518   0.231022   0.011165
     43       0.050799  -0.027629   0.008302  -0.009757   0.164926   0.010796
     44       0.324490  -0.036931   0.185117  -0.003384   0.244243   0.013745
     45      -0.042027  -0.228729   0.022532  -0.002679  -0.042762  -0.004615
     46      -0.255073   0.008188  -0.185425   0.003268  -0.173559  -0.007992
     47       0.215023   0.014887   0.112347   0.005061   0.179515   0.010776
     48       0.184804   0.057333   0.039606   0.056104  -0.138639  -0.008803
     49       0.096092   0.081225  -0.000324   0.014498  -0.016034   0.000630
     50      -0.032760   0.073711  -0.080623   0.045157   0.095046   0.008516
     51       0.111594   0.081340   0.001720  -0.003083  -0.169444  -0.010767
     52       0.157683   0.001877   0.103895  -0.061772  -0.005729  -0.001192
     53       0.057197   0.014146   0.008667   0.026886   0.119554   0.008684
     54       0.007948   0.008947  -0.000508   0.001055   0.012434  -0.018850
     55       0.003680   0.002629  -0.002110   0.002395   0.014658  -0.038243
     56      -0.004697  -0.008394  -0.003392   0.001894   0.003475  -0.022493
     57      -0.000328   0.018852   0.018515   0.007041  -0.168493  -0.012590
     58       0.173609   0.056311  -0.225788  -0.008587   0.226286   0.013797
     59       0.337651   0.203921  -0.634674  -0.012508   0.217910   0.015677
     60       0.005667   0.001362   0.008465   0.001923  -0.097666   0.366584
     61      -0.008939  -0.014053   0.012399   0.005151  -0.239232   0.780989
     62      -0.017057  -0.018345   0.001251   0.004078  -0.154738   0.443906
     63      -0.000318  -0.015647   0.002305   0.001409   0.001469   0.004657
     64       0.001106   0.008934  -0.007668   0.003618  -0.025657   0.002800
     65       0.033279   0.019197  -0.010007  -0.000650   0.033852   0.004468
     66       0.012002   0.011681   0.001003   0.000543   0.032334  -0.071766
     67       0.000252   0.004979  -0.003477   0.002647   0.022526  -0.120086
     68       0.000639  -0.004719  -0.001290   0.001166   0.030774  -0.083778
     69       0.004932  -0.011541   0.000683   0.000616   0.009071  -0.015543
     70       0.018982   0.024431  -0.020682   0.005620  -0.021033   0.030757
     71       0.015608   0.004860  -0.001713   0.000089   0.018242   0.034915
     72      -0.108392   0.085473  -0.039928  -0.005477   0.074039  -0.001677
     73      -0.071344   0.035622  -0.020238  -0.006136   0.049287  -0.011106
     74       0.001388  -0.036841   0.087274   0.001805  -0.089340  -0.062788
     75       0.024878   0.045509   0.034732   0.006410  -0.080794   0.004813
     76      -0.002604   0.021588   0.001299  -0.000798   0.034139   0.014461
     77       0.034014   0.042014   0.017788   0.002224   0.209166   0.080555
     78       0.158333  -0.036975   0.040170  -0.012510  -0.065399  -0.003831
     79       0.073931   0.115854   0.020980   0.023015  -0.095691  -0.005757
     80      -0.070000   0.100422  -0.022047  -0.031978  -0.039008  -0.003412
     81       0.234339  -0.004908   0.055651  -0.016421  -0.068059  -0.003677
     82       0.120467   0.107448   0.029092   0.059421  -0.055025  -0.001633
     83      -0.121496   0.080548  -0.032564  -0.033778  -0.039849  -0.003818
     84       0.190814  -0.017405   0.050060  -0.022851  -0.097165  -0.006072
     85       0.044701   0.107744   0.015104   0.007306  -0.100445  -0.006668
     86      -0.152924   0.076854  -0.039584  -0.064542  -0.044129  -0.005286
     87       0.014285  -0.236842   0.013576   0.002705   0.078340   0.006496
     88      -0.105601  -0.045627  -0.018804  -0.005954   0.024348   0.001345
     89      -0.065638   0.089841  -0.019618   0.004691  -0.027929  -0.001710
     90      -0.038513  -0.358600   0.019636  -0.486167   0.140805   0.013015
     91      -0.083881  -0.050493  -0.006454  -0.191304   0.013797   0.001925
     92       0.017534   0.143026   0.008559  -0.205217  -0.088754  -0.003772
     93       0.041270  -0.175752   0.010837   0.244369   0.047068   0.003200
     94      -0.207509  -0.217952  -0.029181  -0.302550   0.141460   0.010771
     95      -0.195489  -0.051462  -0.060144   0.450377   0.117852   0.006046
     96      -0.074836  -0.357161  -0.010569   0.266385   0.192275   0.013470
     97      -0.157478  -0.037717  -0.048774   0.447628   0.054812   0.000181
     98      -0.011385   0.153106  -0.003063  -0.191530  -0.092412  -0.005283
                 24         25         26         27         28         29    
      0       0.012927  -0.068068   0.004262   0.008744   0.034731  -0.004637
      1      -0.028062  -0.009950   0.024583   0.046827   0.087209  -0.005475
      2      -0.000981  -0.008685  -0.043923  -0.111703   0.279985   0.000431
      3       0.006387   0.011255  -0.019686  -0.043054  -0.007156  -0.003120
      4      -0.060899   0.082897   0.009481   0.016228   0.012960  -0.001684
      5      -0.178430  -0.012161  -0.001204  -0.001505   0.029887   0.000875
      6       0.036015   0.039066  -0.013949  -0.031115  -0.021638  -0.005735
      7       0.044951   0.063789  -0.014445  -0.036490  -0.050635   0.004222
      8       0.180357  -0.005784   0.028279   0.057739  -0.142116  -0.004542
      9       0.000533   0.127363  -0.026977  -0.060596   0.000426   0.003143
     10       0.006355   0.040677  -0.024730  -0.059587   0.022827   0.004224
     11      -0.009130  -0.038389  -0.016487  -0.043723   0.191008  -0.000179
     12      -0.026855   0.089907  -0.003923  -0.008387  -0.017800   0.002773
     13      -0.044236  -0.011208   0.013071   0.026732  -0.018912   0.001606
     14      -0.172962   0.005517   0.013520   0.036845  -0.142692  -0.000643
     15       0.022369   0.064742  -0.016100  -0.036066  -0.012158   0.004861
     16       0.010951  -0.008968   0.040884   0.082709   0.040118  -0.006124
     17       0.201144   0.005963   0.002113  -0.006104   0.009551  -0.002775
     18      -0.023275  -0.098679   0.053077   0.114187   0.047422  -0.006480
     19       0.048282  -0.104941  -0.038701  -0.080266  -0.080835  -0.002326
     20       0.001383   0.034476   0.008454   0.022084  -0.117173  -0.000274
     21       0.001243   0.076278  -0.054084  -0.116951  -0.055159   0.003528
     22      -0.111401   0.074410   0.018742   0.040709  -0.025483  -0.001737
     23      -0.398646  -0.001726   0.018701   0.060156  -0.159439   0.003287
     24       0.032140   0.117866  -0.011959  -0.025472  -0.031863   0.011305
     25       0.037195   0.065885   0.045924   0.097777   0.002301   0.003059
     26       0.427217  -0.003052   0.024668   0.072733  -0.200327   0.007890
     27      -0.005502   0.126081  -0.024758  -0.055340   0.014660   0.004706
     28       0.018670   0.029528  -0.037056  -0.085625   0.039620   0.001279
     29      -0.013779  -0.056683  -0.034817  -0.080311   0.298215   0.004108
     30      -0.016436  -0.129953   0.061579   0.133233   0.060793  -0.003388
     31       0.029837  -0.142778  -0.047493  -0.098975  -0.045056   0.002336
     32      -0.081775   0.070472  -0.022341  -0.044880  -0.122516  -0.001920
     33       0.008882  -0.213384   0.015169   0.034654   0.020656  -0.000080
     34       0.017407   0.057055   0.046521   0.098281   0.067765  -0.002982
     35       0.032263   0.080623   0.007404   0.009074   0.050600   0.000839
     36       0.029079  -0.034726   0.064405   0.022510  -0.000591   0.199298
     37      -0.017445   0.015362  -0.076969   0.045165  -0.014548   0.084162
     38      -0.002007  -0.016244  -0.122077   0.027314  -0.009493   0.057797
     39      -0.021352  -0.061598  -0.030390  -0.059619  -0.056359   0.001810
     40      -0.005017   0.117314   0.009282   0.015879   0.033282  -0.002172
     41       0.021989   0.092049   0.017465   0.035617   0.060312  -0.000043
     42       0.078584  -0.408829  -0.036586  -0.076545   0.035158   0.008208
     43       0.052988  -0.000124   0.029570   0.055548   0.098291   0.000022
     44       0.087383   0.037666  -0.007608  -0.038388   0.123335   0.003799
     45      -0.025700  -0.266327   0.021054   0.042441  -0.061310  -0.002119
     46      -0.072554   0.210099   0.083278   0.193676  -0.016897  -0.009812
     47       0.063643   0.092918  -0.002026  -0.009524   0.107747   0.003308
     48      -0.038197  -0.117855  -0.062573  -0.121113  -0.120570   0.004042
     49      -0.004273   0.123217   0.016363   0.029551   0.034234  -0.002909
     50       0.029627   0.137058   0.048140   0.093598   0.089952  -0.002863
     51      -0.048699  -0.089856  -0.055668  -0.109694  -0.120809   0.002335
     52      -0.002067   0.083510   0.002122  -0.001997   0.041202  -0.001605
     53       0.038048   0.110092   0.033430   0.067952   0.096185  -0.000360
     54      -0.003664  -0.002596   0.011453  -0.008520   0.000313   0.035637
     55      -0.011912   0.000545   0.005202  -0.005612  -0.000181  -0.008093
     56      -0.013168   0.001357   0.007278  -0.006677   0.000048  -0.021756
     57      -0.067360  -0.021619   0.084094   0.181101   0.031955  -0.009618
     58       0.089413  -0.101644  -0.006393  -0.008164  -0.158525  -0.002301
     59       0.099406   0.043861   0.079421   0.180271  -0.298692  -0.001564
     60       0.132537  -0.011355  -0.142531   0.099817   0.006967  -0.411172
     61       0.270411  -0.019845  -0.073043   0.063719   0.012641  -0.096566
     62       0.142493  -0.011267   0.132963  -0.077258   0.006422   0.517887
     63      -0.004788  -0.002690   0.025311  -0.029618  -0.001481  -0.004789
     64      -0.005695   0.015558  -0.025195   0.035160   0.000784   0.011216
     65       0.013773  -0.014038  -0.043453   0.032052   0.005882   0.014887
     66      -0.014813   0.004054  -0.132826   0.097878   0.000407  -0.245779
     67      -0.037197   0.009196  -0.002573   0.029143   0.000473   0.410994
     68      -0.024346   0.008105  -0.178175   0.128502   0.000867  -0.390310
     69      -0.002697   0.014393  -0.406228   0.328382   0.028177   0.077378
     70      -0.032901   0.024956   0.466029  -0.411417  -0.024214  -0.334694
     71       0.020845  -0.053944   0.643106  -0.522370  -0.044481  -0.018139
     72       0.066465  -0.002634  -0.013251  -0.028022  -0.049848  -0.006596
     73       0.103656   0.008905  -0.009451  -0.022740  -0.111597   0.002765
     74       0.381555   0.025406   0.062453   0.139985  -0.412014  -0.005741
     75      -0.063398   0.045126   0.033716   0.077231  -0.012104  -0.003145
     76      -0.080353  -0.000785   0.013155   0.032756  -0.078096   0.002967
     77      -0.357037   0.022201   0.034924   0.109669  -0.408510   0.003874
     78      -0.018958   0.059077  -0.026994  -0.057867  -0.050541   0.000967
     79      -0.026852  -0.088316  -0.028686  -0.054613  -0.054347   0.000511
     80      -0.011407  -0.086745  -0.003074  -0.002042  -0.009674   0.000602
[...]
     19      -0.000159   0.000027  -0.000001
     20       0.000078  -0.000026  -0.000002
     21      -0.000094  -0.000128   0.000095
     22      -0.002282   0.000472   0.000319
     23       0.000416  -0.000085  -0.000011
     24       0.028149  -0.001607   0.002447
     25      -0.019251   0.002029  -0.001705
     26       0.001589   0.000327   0.000143
     27       0.004503  -0.000464  -0.000309
     28       0.001764   0.000005  -0.000170
     29      -0.000960   0.000057   0.000132
     30      -0.000032   0.000051   0.000012
     31       0.000390  -0.000170   0.000014
     32      -0.000269   0.000166   0.000007
     33       0.000018  -0.000086   0.000027
     34      -0.000249   0.000069   0.000002
     35       0.000117  -0.000131   0.000005
     36       0.018760  -0.029050   0.002701
     37      -0.054043   0.009975  -0.001342
     38       0.043109  -0.025462   0.001814
     39       0.000077  -0.000041   0.000005
     40       0.000115   0.000015  -0.000013
     41       0.000036  -0.000050   0.000011
     42      -0.000960   0.000615  -0.000100
     43       0.001931  -0.000205  -0.000053
     44      -0.001027   0.000276   0.000021
     45      -0.000138   0.001217  -0.000069
     46      -0.000785   0.000600  -0.000063
     47      -0.000183   0.001200  -0.000111
     48      -0.000489   0.000444  -0.000028
     49      -0.000814  -0.000126   0.000091
     50       0.001111  -0.000395   0.000009
     51      -0.000730   0.000322  -0.000063
     52      -0.000069  -0.000088   0.000018
     53      -0.001033   0.000706  -0.000086
     54      -0.050831   0.003353   0.040051
     55       0.004808  -0.002075  -0.034780
     56       0.036129   0.001035   0.028101
     57       0.000332   0.000036  -0.000079
     58       0.001180  -0.000155  -0.000025
     59      -0.000413  -0.000124   0.000019
     60      -0.004266  -0.039121  -0.686080
     61      -0.020655   0.033056   0.572581
     62       0.040773  -0.026761  -0.437482
     63      -0.001354  -0.053480   0.002924
     64       0.002774  -0.009980   0.000658
     65      -0.003649  -0.026423   0.001507
     66       0.790311  -0.016215   0.051576
     67      -0.057225  -0.000721  -0.020494
     68      -0.599252   0.009968  -0.007958
     69       0.024032   0.878544  -0.050495
     70       0.007338   0.150019  -0.008936
     71       0.001028   0.443479  -0.025355
     72       0.002453  -0.000268  -0.000234
     73      -0.001743   0.000216   0.000170
     74       0.000064  -0.000031   0.000058
     75      -0.000315   0.000093  -0.000355
     76      -0.000974   0.000616  -0.001324
     77       0.000061  -0.000150   0.000343
     78       0.000010  -0.000020   0.000005
     79      -0.000001  -0.000009  -0.000005
     80      -0.000023  -0.000033   0.000011
     81       0.000009   0.000271  -0.000048
     82      -0.000138   0.000066  -0.000023
     83       0.000328   0.000395  -0.000075
     84      -0.000139  -0.000036  -0.000007
     85       0.000396  -0.000127   0.000071
     86      -0.000234   0.000075  -0.000031
     87      -0.000005  -0.000004   0.000003
     88       0.000034   0.000009  -0.000008
     89      -0.000042  -0.000014   0.000006
     90      -0.000100   0.000099  -0.000023
     91      -0.000188  -0.000116   0.000056
     92       0.000169   0.000057  -0.000015
     93       0.000068  -0.000039  -0.000014
     94       0.000115  -0.000049   0.000004
     95       0.000061   0.000040  -0.000001
     96      -0.000017  -0.000001  -0.000011
     97       0.000007   0.000025  -0.000002
     98       0.000210   0.000052  -0.000035


-----------
IR SPECTRUM  
-----------

 Mode    freq (cm**-1)   T**2         TX         TY         TZ
-------------------------------------------------------------------
   6:        45.69    0.000000  (  0.000000   0.000000   0.000000)
   7:        58.46    0.000000  (  0.000000   0.000000   0.000000)
   8:        72.79    0.000000  (  0.000000   0.000000   0.000000)
   9:        82.43    0.000000  (  0.000000   0.000000   0.000000)
  10:       102.48    0.000000  (  0.000000   0.000000   0.000000)
  11:       117.74    0.000000  (  0.000000   0.000000   0.000000)
  12:       145.58    0.000000  (  0.000000   0.000000   0.000000)
  13:       157.23    0.000000  (  0.000000   0.000000   0.000000)
  14:       168.20    0.000000  (  0.000000   0.000000   0.000000)
  15:       179.47    0.000000  (  0.000000   0.000000   0.000000)
  16:       192.25    0.000000  (  0.000000   0.000000   0.000000)
  17:       212.92    0.000000  (  0.000000   0.000000   0.000000)
  18:       252.43    0.000000  (  0.000000   0.000000   0.000000)
  19:       288.46    0.000000  (  0.000000   0.000000   0.000000)
  20:       305.15    0.000000  (  0.000000   0.000000   0.000000)
  21:       349.54    0.000000  (  0.000000   0.000000   0.000000)
  22:       396.14    0.000000  (  0.000000   0.000000   0.000000)
  23:       402.14    0.000000  (  0.000000   0.000000   0.000000)
  24:       404.30    0.000000  (  0.000000   0.000000   0.000000)
  25:       430.65    0.000000  (  0.000000   0.000000   0.000000)
  26:       481.96    0.000000  (  0.000000   0.000000   0.000000)
  27:       483.18    0.000000  (  0.000000   0.000000   0.000000)
  28:       514.27    0.000000  (  0.000000   0.000000   0.000000)
  29:       546.88    0.000000  (  0.000000   0.000000   0.000000)
  30:       589.44    0.000000  (  0.000000   0.000000   0.000000)
  31:       619.57    0.000000  (  0.000000   0.000000   0.000000)
  32:       635.27    0.000000  (  0.000000   0.000000   0.000000)
  33:       678.42    0.000000  (  0.000000   0.000000   0.000000)
  34:       716.33    0.000000  (  0.000000   0.000000   0.000000)
  35:       787.20    0.000000  (  0.000000   0.000000   0.000000)
  36:       798.68    0.000000  (  0.000000   0.000000   0.000000)
  37:       809.98    0.000000  (  0.000000   0.000000   0.000000)
  38:       838.40    0.000000  (  0.000000   0.000000   0.000000)
  39:       864.99    0.000000  (  0.000000   0.000000   0.000000)
  40:       903.51    0.000000  (  0.000000   0.000000   0.000000)
  41:       924.27    0.000000  (  0.000000   0.000000   0.000000)
  42:       937.43    0.000000  (  0.000000   0.000000   0.000000)
  43:       945.00    0.000000  (  0.000000   0.000000   0.000000)
  44:       953.72    0.000000  (  0.000000   0.000000   0.000000)
  45:       963.19    0.000000  (  0.000000   0.000000   0.000000)
  46:       964.68    0.000000  (  0.000000   0.000000   0.000000)
  47:       974.24    0.000000  (  0.000000   0.000000   0.000000)
  48:      1008.93    0.000000  (  0.000000   0.000000   0.000000)
  49:      1042.18    0.000000  (  0.000000   0.000000   0.000000)
  50:      1056.70    0.000000  (  0.000000   0.000000   0.000000)
  51:      1076.64    0.000000  (  0.000000   0.000000   0.000000)
  52:      1111.13    0.000000  (  0.000000   0.000000   0.000000)
  53:      1119.56    0.000000  (  0.000000   0.000000   0.000000)
  54:      1146.57    0.000000  (  0.000000   0.000000   0.000000)
  55:      1184.99    0.000000  (  0.000000   0.000000   0.000000)
  56:      1187.57    0.000000  (  0.000000   0.000000   0.000000)
  57:      1208.08    0.000000  (  0.000000   0.000000   0.000000)
  58:      1216.00    0.000000  (  0.000000   0.000000   0.000000)
  59:      1245.51    0.000000  (  0.000000   0.000000   0.000000)
  60:      1261.83    0.000000  (  0.000000   0.000000   0.000000)
  61:      1273.24    0.000000  (  0.000000   0.000000   0.000000)
  62:      1280.86    0.000000  (  0.000000   0.000000   0.000000)
  63:      1283.69    0.000000  (  0.000000   0.000000   0.000000)
  64:      1330.16    0.000000  (  0.000000   0.000000   0.000000)
  65:      1356.05    0.000000  (  0.000000   0.000000   0.000000)
  66:      1370.35    0.000000  (  0.000000   0.000000   0.000000)
  67:      1407.48    0.000000  (  0.000000   0.000000   0.000000)
  68:      1434.70    0.000000  (  0.000000   0.000000   0.000000)
  69:      1438.36    0.000000  (  0.000000   0.000000   0.000000)
  70:      1473.51    0.000000  (  0.000000   0.000000   0.000000)
  71:      1503.48    0.000000  (  0.000000   0.000000   0.000000)
  72:      1507.93    0.000000  (  0.000000   0.000000   0.000000)
  73:      1510.78    0.000000  (  0.000000   0.000000   0.000000)
  74:      1515.39    0.000000  (  0.000000   0.000000   0.000000)
  75:      1522.92    0.000000  (  0.000000   0.000000   0.000000)
  76:      1531.54    0.000000  (  0.000000   0.000000   0.000000)
  77:      1562.44    0.000000  (  0.000000   0.000000   0.000000)
  78:      1583.30    0.000000  (  0.000000   0.000000   0.000000)
  79:      1600.41    0.000000  (  0.000000   0.000000   0.000000)
  80:      2729.53    0.000000  (  0.000000   0.000000   0.000000)
  81:      2813.62    0.000000  (  0.000000   0.000000   0.000000)
  82:      2830.29    0.000000  (  0.000000   0.000000   0.000000)
  83:      2872.79    0.000000  (  0.000000   0.000000   0.000000)
  84:      2875.35    0.000000  (  0.000000   0.000000   0.000000)
  85:      2890.35    0.000000  (  0.000000   0.000000   0.000000)
  86:      2897.50    0.000000  (  0.000000   0.000000   0.000000)
  87:      2908.28    0.000000  (  0.000000   0.000000   0.000000)
  88:      2913.86    0.000000  (  0.000000   0.000000   0.000000)
  89:      2919.58    0.000000  (  0.000000   0.000000   0.000000)
  90:      2931.72    0.000000  (  0.000000   0.000000   0.000000)
  91:      2982.46    0.000000  (  0.000000   0.000000   0.000000)
  92:      2991.48    0.000000  (  0.000000   0.000000   0.000000)
  93:      2996.89    0.000000  (  0.000000   0.000000   0.000000)
  94:      3005.97    0.000000  (  0.000000   0.000000   0.000000)
  95:      3035.18    0.000000  (  0.000000   0.000000   0.000000)
  96:      3092.85    0.000000  (  0.000000   0.000000   0.000000)
  97:      3427.78    0.000000  (  0.000000   0.000000   0.000000)
  98:      3448.61    0.000000  (  0.000000   0.000000   0.000000)

The first frequency considered to be a vibration is 6
The total number of vibrations considered is 93


--------------------------
THERMOCHEMISTRY AT 298.15K
--------------------------

Temperature         ... 298.15 K
Pressure            ... 1.00 atm
Total Mass          ... 197.28 AMU

Throughout the following assumptions are being made:
  (1) The electronic state is orbitally nondegenerate
  (2) There are no thermally accessible electronically excited states
  (3) Hindered rotations indicated by low frequency modes are not
      treated as such but are treated as vibrations and this may
      cause some error
  (4) All equations used are the standard statistical mechanics
      equations for an ideal gas
  (5) All vibrations are strictly harmonic

freq.      45.69  E(vib)   ...       0.53 
freq.      58.46  E(vib)   ...       0.51 
freq.      72.79  E(vib)   ...       0.49 
freq.      82.43  E(vib)   ...       0.48 
freq.     102.48  E(vib)   ...       0.46 
freq.     117.74  E(vib)   ...       0.44 
freq.     145.58  E(vib)   ...       0.41 
freq.     157.23  E(vib)   ...       0.40 
freq.     168.20  E(vib)   ...       0.38 
freq.     179.47  E(vib)   ...       0.37 
freq.     192.25  E(vib)   ...       0.36 
freq.     212.92  E(vib)   ...       0.34 
freq.     252.43  E(vib)   ...       0.30 
freq.     288.46  E(vib)   ...       0.27 
freq.     305.15  E(vib)   ...       0.26 
freq.     349.54  E(vib)   ...       0.23 
freq.     396.14  E(vib)   ...       0.20 
freq.     402.14  E(vib)   ...       0.19 
freq.     404.30  E(vib)   ...       0.19 
freq.     430.65  E(vib)   ...       0.18 
freq.     481.96  E(vib)   ...       0.15 
freq.     483.18  E(vib)   ...       0.15 
freq.     514.27  E(vib)   ...       0.13 
freq.     546.88  E(vib)   ...       0.12 
freq.     589.44  E(vib)   ...       0.10 
freq.     619.57  E(vib)   ...       0.09 
freq.     635.27  E(vib)   ...       0.09 
freq.     678.42  E(vib)   ...       0.08 
freq.     716.33  E(vib)   ...       0.07 
freq.     787.20  E(vib)   ...       0.05 
freq.     798.68  E(vib)   ...       0.05 
freq.     809.98  E(vib)   ...       0.05 
freq.     838.40  E(vib)   ...       0.04 
freq.     864.99  E(vib)   ...       0.04 
freq.     903.51  E(vib)   ...       0.03 
freq.     924.27  E(vib)   ...       0.03 
freq.     937.43  E(vib)   ...       0.03 
freq.     945.00  E(vib)   ...       0.03 
freq.     953.72  E(vib)   ...       0.03 
freq.     963.19  E(vib)   ...       0.03 
freq.     964.68  E(vib)   ...       0.03 
freq.     974.24  E(vib)   ...       0.03 
freq.    1008.93  E(vib)   ...       0.02 
freq.    1042.18  E(vib)   ...       0.02 
freq.    1056.70  E(vib)   ...       0.02 
freq.    1076.64  E(vib)   ...       0.02 
freq.    1111.13  E(vib)   ...       0.01 
freq.    1119.56  E(vib)   ...       0.01 
freq.    1146.57  E(vib)   ...       0.01 
freq.    1184.99  E(vib)   ...       0.01 
freq.    1187.57  E(vib)   ...       0.01 
freq.    1208.08  E(vib)   ...       0.01 
freq.    1216.00  E(vib)   ...       0.01 
freq.    1245.51  E(vib)   ...       0.01 
freq.    1261.83  E(vib)   ...       0.01 
freq.    1273.24  E(vib)   ...       0.01 
freq.    1280.86  E(vib)   ...       0.01 
freq.    1283.69  E(vib)   ...       0.01 
freq.    1330.16  E(vib)   ...       0.01 
freq.    1356.05  E(vib)   ...       0.01 
freq.    1370.35  E(vib)   ...       0.01 
freq.    1407.48  E(vib)   ...       0.00 
freq.    1434.70  E(vib)   ...       0.00 
freq.    1438.36  E(vib)   ...       0.00 
freq.    1473.51  E(vib)   ...       0.00 
freq.    1503.48  E(vib)   ...       0.00 
freq.    1507.93  E(vib)   ...       0.00 
freq.    1510.78  E(vib)   ...       0.00 
freq.    1515.39  E(vib)   ...       0.00 
freq.    1522.92  E(vib)   ...       0.00 
freq.    1531.54  E(vib)   ...       0.00 
freq.    1562.44  E(vib)   ...       0.00 
freq.    1583.30  E(vib)   ...       0.00 
freq.    1600.41  E(vib)   ...       0.00 
freq.    2729.53  E(vib)   ...       0.00 
freq.    2813.62  E(vib)   ...       0.00 
freq.    2830.29  E(vib)   ...       0.00 
freq.    2872.79  E(vib)   ...       0.00 
freq.    2875.35  E(vib)   ...       0.00 
freq.    2890.35  E(vib)   ...       0.00 
freq.    2897.50  E(vib)   ...       0.00 
freq.    2908.28  E(vib)   ...       0.00 
freq.    2913.86  E(vib)   ...       0.00 
freq.    2919.58  E(vib)   ...       0.00 
freq.    2931.72  E(vib)   ...       0.00 
freq.    2982.46  E(vib)   ...       0.00 
freq.    2991.48  E(vib)   ...       0.00 
freq.    2996.89  E(vib)   ...       0.00 
freq.    3005.97  E(vib)   ...       0.00 
freq.    3035.18  E(vib)   ...       0.00 
freq.    3092.85  E(vib)   ...       0.00 
freq.    3427.78  E(vib)   ...       0.00 
freq.    3448.61  E(vib)   ...       0.00 

------------
INNER ENERGY
------------

The inner energy is: U= E(el) + E(ZPE) + E(vib) + E(rot) + E(trans)
    E(el)   - is the total energy from the electronic structure calculation
              = E(kin-el) + E(nuc-el) + E(el-el) + E(nuc-nuc)
    E(ZPE)  - the the zero temperature vibrational energy from the frequency calculation
    E(vib)  - the the finite temperature correction to E(ZPE) due to population
              of excited vibrational states
    E(rot)  - is the rotational thermal energy
    E(trans)- is the translational thermal energy

Summary of contributions to the inner energy U:
Electronic energy                ...    -44.27792410 Eh
Zero point energy                ...      0.27386084 Eh     171.85 kcal/mol
Thermal vibrational correction   ...      0.01385978 Eh       8.70 kcal/mol
Thermal rotational correction    ...      0.00141627 Eh       0.89 kcal/mol
Thermal translational correction ...      0.00141627 Eh       0.89 kcal/mol
-----------------------------------------------------------------------
Total thermal energy                    -43.98737093 Eh


Summary of corrections to the electronic energy:
(perhaps to be used in another calculation)
Total thermal correction                  0.01669233 Eh      10.47 kcal/mol
Non-thermal (ZPE) correction              0.27386084 Eh     171.85 kcal/mol
-----------------------------------------------------------------------
Total correction                          0.29055316 Eh     182.32 kcal/mol


--------
ENTHALPY
--------

The enthalpy is H = U + kB*T
                kB is Boltzmann's constant
Total free energy                 ...    -43.98737093 Eh 
Thermal Enthalpy correction       ...      0.00094421 Eh       0.59 kcal/mol
-----------------------------------------------------------------------
Total Enthalpy                    ...    -43.98642672 Eh


Note: Only C1 symmetry has been detected, increase convergence thresholds 
      if your molecule has a higher symmetry. Symmetry factor of 1.0 is   
      used for the rotational entropy correction. 
 

Note: Rotational entropy computed according to Herzberg 
Infrared and Raman Spectra, Chapter V,1, Van Nostrand Reinhold, 1945 
Point Group:  C1, Symmetry Number:   1  
Rotational constants in cm-1:     0.032071     0.008879     0.007541 

Vibrational entropy computed according to the QRRHO of S. Grimme
Chem.Eur.J. 2012 18 9955


-------
ENTROPY
-------

The entropy contributions are T*S = T*(S(el)+S(vib)+S(rot)+S(trans))
     S(el)   - electronic entropy
     S(vib)  - vibrational entropy
     S(rot)  - rotational entropy
     S(trans)- translational entropy
The entropies will be listed as mutliplied by the temperature to get
units of energy

Electronic entropy                ...      0.00000000 Eh      0.00 kcal/mol
Vibrational entropy               ...      0.02429838 Eh     15.25 kcal/mol
Rotational entropy                ...      0.01567221 Eh      9.83 kcal/mol
Translational entropy             ...      0.01983352 Eh     12.45 kcal/mol
-----------------------------------------------------------------------
Final entropy term                ...      0.05980411 Eh     37.53 kcal/mol

In case the symmetry of your molecule has not been determined correctly
or in case you have a reason to use a different symmetry number we print 
out the resulting rotational entropy values for sn=1,12 :
 --------------------------------------------------------
|  sn= 1 | S(rot)=       0.01567221 Eh      9.83 kcal/mol|
|  sn= 2 | S(rot)=       0.01501775 Eh      9.42 kcal/mol|
|  sn= 3 | S(rot)=       0.01463492 Eh      9.18 kcal/mol|
|  sn= 4 | S(rot)=       0.01436330 Eh      9.01 kcal/mol|
|  sn= 5 | S(rot)=       0.01415261 Eh      8.88 kcal/mol|
|  sn= 6 | S(rot)=       0.01398047 Eh      8.77 kcal/mol|
|  sn= 7 | S(rot)=       0.01383492 Eh      8.68 kcal/mol|
|  sn= 8 | S(rot)=       0.01370884 Eh      8.60 kcal/mol|
|  sn= 9 | S(rot)=       0.01359763 Eh      8.53 kcal/mol|
|  sn=10 | S(rot)=       0.01349815 Eh      8.47 kcal/mol|
|  sn=11 | S(rot)=       0.01340816 Eh      8.41 kcal/mol|
|  sn=12 | S(rot)=       0.01332601 Eh      8.36 kcal/mol|
 --------------------------------------------------------


-------------------
GIBBS FREE ENERGY
-------------------

The Gibbs free energy is G = H - T*S

Total enthalpy                    ...    -43.98642672 Eh 
Total entropy correction          ...     -0.05980411 Eh    -37.53 kcal/mol
-----------------------------------------------------------------------
Final Gibbs free energy         ...    -44.04623083 Eh

For completeness - the Gibbs free energy minus the electronic energy
G-E(el)                           ...      0.23169326 Eh    145.39 kcal/mol


Total Time for Numerical Frequencies  :        99.589 sec
Time for Reference State(s)           :         0.149 sec
Time for Displacements                :        91.249 sec

Timings for individual modules:

Sum of individual times         ...        0.319 sec (=   0.005 min)
XTB module                      ...        0.319 sec (=   0.005 min) 100.0 %
                             ****ORCA TERMINATED NORMALLY****
TOTAL RUN TIME: 0 days 0 hours 1 minutes 40 seconds 744 msec
(SLURM) EXECUTION TIME: 100.769792609 seconds.
