 Entering Gaussian System
 *********************************************
 Gaussian 98:
 frequency output generated by the xtb code
 *********************************************
                         Standard orientation:
 --------------------------------------------------------------------
  Center     Atomic     Atomic              Coordinates (Angstroms)
  Number     Number      Type              X           Y           Z
 --------------------------------------------------------------------
    1          6             0        1.715350   -1.447023    0.043305
    2          6             0        2.439802   -0.127495    0.294994
    3          6             0        1.686618    0.706023   -1.947977
    4          1             0       -0.075226   -0.507969   -1.749452
    5          6             0        1.749768    1.009778   -0.453449
    6          1             0        2.703235    0.621106   -2.339203
    7          1             0        1.174628    1.510657   -2.479691
    8          6             0        1.656600   -1.747162   -1.451983
    9          1             0        2.447462    0.088995    1.364878
   10          1             0        3.475165   -0.210735   -0.044083
   11          6             0        0.932076   -0.608517   -2.176671
   12          1             0        1.126146   -2.684602   -1.631449
   13          1             0        2.673867   -1.841140   -1.837907
   14          1             0        2.285970    1.947287   -0.290216
   15          1             0        0.734467    1.133632   -0.065801
   16          1             0        2.224944   -2.261071    0.563787
   17          1             0        0.698606   -1.382174    0.440051
   18         35             0       -3.226882    0.103592    1.497705
   19          6             0        1.764678   -1.138261   -4.386983
   20          8             0        0.657458   -0.875271   -3.547941
   21          1             0        2.484918   -0.316045   -4.381600
   22          1             0        2.268113   -2.069660   -4.111028
   23          1             0        1.345410   -1.239650   -5.386520
 --------------------------------------------------------------------
     1 basis functions        1 primitive gaussians
     1 alpha electrons        1 beta electrons

 Harmonic frequencies (cm**-1), IR intensities (KM/Mole),
 Raman scattering activities (A**4/amu), Raman depolarization ratios,
 reduced masses (AMU), force constants (mDyne/A) and normal coordinates:
                      1                      2                      3
                        a                      a                      a 
 Frequencies --     9.5366                32.0175                37.5246
 Red. masses --    32.9368                22.5606                26.5148
 Frc consts  --     0.0000                 0.0000                 0.0000
 IR Inten    --     0.5592                 0.6084                 0.7326
 Raman Activ --     0.0000                 0.0000                 0.0000
 Depolar     --     0.0000                 0.0000                 0.0000
 Atom AN      X      Y      Z        X      Y      Z        X      Y      Z
   1   6    -0.12  -0.03  -0.11    -0.03   0.13   0.02     0.45  -0.12  -0.08
   2   6    -0.19  -0.01  -0.02     0.25  -0.00  -0.09     0.30  -0.03  -0.10
   3   6     0.07  -0.02  -0.11     0.36   0.01  -0.12    -0.07  -0.03   0.03
   4   1     0.02  -0.02  -0.10     0.03   0.11   0.00     0.04  -0.08   0.05
   5   6    -0.13  -0.02  -0.11     0.45   0.09  -0.14     0.06  -0.09   0.03
   6   1     0.03   0.00   0.00     0.10  -0.06  -0.04    -0.03   0.04  -0.03
   7   1     0.03  -0.01  -0.05     0.15   0.02  -0.05    -0.07  -0.02   0.04
   8   6     0.07  -0.03  -0.12    -0.14   0.05   0.04     0.34  -0.06  -0.09
   9   1    -0.10  -0.00  -0.01     0.10   0.02  -0.03     0.12  -0.02  -0.03
  10   1    -0.04   0.01   0.03     0.06  -0.07  -0.04     0.08   0.04  -0.07
  11   6     0.13  -0.04  -0.21     0.08   0.16  -0.02     0.09  -0.13   0.05
  12   1     0.03  -0.01  -0.05    -0.10   0.04   0.03     0.13  -0.04  -0.02
  13   1     0.03   0.00   0.00    -0.05  -0.06   0.00     0.09   0.03  -0.06
  14   1    -0.05  -0.00  -0.01     0.19  -0.00  -0.06    -0.01  -0.01   0.00
  15   1    -0.05  -0.01  -0.07     0.14   0.09  -0.04     0.03  -0.07   0.04
  16   1    -0.05  -0.00  -0.01    -0.05   0.02   0.01     0.18  -0.02  -0.05
  17   1    -0.05  -0.02  -0.07    -0.00   0.11   0.01     0.14  -0.08   0.01
  18  35    -0.27   0.10   0.48    -0.38  -0.15   0.13    -0.46   0.16   0.08
  19   6     0.41  -0.02  -0.11    -0.09  -0.21   0.01    -0.10   0.19  -0.10
  20   8     0.35  -0.06  -0.28    -0.01   0.15   0.01    -0.05  -0.12   0.08
  21   1     0.11  -0.00  -0.01     0.04  -0.12  -0.01    -0.09   0.11  -0.06
  22   1     0.12  -0.00  -0.01    -0.10  -0.10   0.01     0.05   0.09  -0.05
  23   1     0.16  -0.01  -0.05    -0.04  -0.04   0.00    -0.06   0.03  -0.01
                      4                      5                      6
                        a                      a                      a 
 Frequencies --    66.5610               134.7732               191.3293
 Red. masses --     6.6268                 8.4731                 3.9399
 Frc consts  --     0.0000                 0.0000                 0.0000
 IR Inten    --     0.3346                 0.1035                 0.1696
 Raman Activ --     0.0000                 0.0000                 0.0000
 Depolar     --     0.0000                 0.0000                 0.0000
 Atom AN      X      Y      Z        X      Y      Z        X      Y      Z
   1   6    -0.16   0.06   0.12    -0.02  -0.06  -0.04    -0.03  -0.05  -0.09
   2   6    -0.05   0.02   0.03    -0.32   0.06   0.27     0.03  -0.11  -0.00
   3   6     0.18  -0.14  -0.10     0.32  -0.03  -0.02    -0.11   0.17   0.07
   4   1     0.01   0.02   0.00     0.09   0.01   0.06    -0.01   0.01  -0.01
   5   6     0.12   0.02  -0.13    -0.06   0.03  -0.01     0.02  -0.03   0.12
   6   1     0.06  -0.10  -0.00     0.12  -0.05   0.06    -0.05   0.09  -0.03
   7   1     0.10  -0.04  -0.07     0.15  -0.01  -0.06    -0.07   0.06   0.08
   8   6    -0.12  -0.08   0.15     0.35   0.05  -0.08     0.05   0.13  -0.11
   9   1    -0.03   0.04   0.00    -0.24   0.01   0.08     0.03  -0.05   0.00
  10   1    -0.01  -0.03   0.03    -0.04   0.05   0.22     0.00  -0.04  -0.02
  11   6     0.02  -0.07   0.01     0.23   0.02  -0.00    -0.01   0.13  -0.03
  12   1    -0.06  -0.01   0.06     0.17  -0.01  -0.07     0.05   0.03  -0.08
  13   1    -0.03  -0.06   0.06     0.13   0.09   0.02     0.03   0.08  -0.01
  14   1     0.06  -0.01  -0.06    -0.02   0.00   0.03     0.02  -0.02   0.06
  15   1     0.03   0.05  -0.06    -0.05   0.03  -0.09     0.01  -0.01   0.06
  16   1    -0.08   0.02   0.07     0.01   0.00   0.00    -0.02  -0.04  -0.04
  17   1    -0.05   0.06   0.02    -0.04  -0.09  -0.08    -0.01  -0.01  -0.03
  18  35     0.02  -0.03  -0.00    -0.00   0.00  -0.00     0.00   0.00  -0.00
  19   6    -0.01   0.44  -0.12    -0.34  -0.12  -0.18     0.01  -0.31   0.07
  20   8    -0.03  -0.26   0.07    -0.12   0.07   0.08     0.03   0.13  -0.05
  21   1    -0.24   0.34  -0.22    -0.07  -0.06  -0.11    -0.16   0.06  -0.35
  22   1     0.30   0.32   0.06    -0.11  -0.04  -0.07     0.21   0.13   0.35
  23   1    -0.06  -0.15   0.02    -0.17  -0.04  -0.02    -0.05  -0.57   0.09
                      7                      8                      9
                        a                      a                      a 
 Frequencies --   237.3550               288.0500               338.0262
 Red. masses --     6.4990                 8.7711                 7.7071
 Frc consts  --     0.0000                 0.0000                 0.0000
 IR Inten    --     0.1064                 0.1839                 0.2060
 Raman Activ --     0.0000                 0.0000                 0.0000
 Depolar     --     0.0000                 0.0000                 0.0000
 Atom AN      X      Y      Z        X      Y      Z        X      Y      Z
   1   6    -0.34   0.06  -0.02     0.11  -0.16  -0.19     0.26  -0.03   0.05
   2   6    -0.02  -0.13   0.04    -0.17  -0.02  -0.04    -0.07   0.12   0.36
   3   6    -0.28   0.09  -0.02     0.08  -0.05  -0.17    -0.21  -0.15   0.05
   4   1     0.00  -0.10   0.03    -0.01   0.03   0.07    -0.09  -0.06  -0.06
   5   6     0.35   0.06  -0.03     0.10   0.05  -0.22     0.27   0.09  -0.00
   6   1    -0.13   0.12  -0.14     0.02  -0.09  -0.03    -0.09  -0.06  -0.07
   7   1    -0.21   0.01   0.09     0.07  -0.00  -0.08    -0.08  -0.03   0.05
   8   6     0.30   0.08  -0.03     0.04   0.03  -0.19    -0.15  -0.02   0.02
   9   1    -0.02  -0.02   0.01    -0.16  -0.01  -0.01    -0.22   0.04   0.10
  10   1    -0.00  -0.13   0.04    -0.01   0.02   0.09     0.04   0.07   0.29
  11   6    -0.00  -0.09   0.02    -0.15   0.05   0.05    -0.23  -0.11  -0.05
  12   1     0.22  -0.03  -0.09     0.05  -0.01  -0.09    -0.06  -0.02   0.09
  13   1     0.13   0.17   0.08     0.01   0.07  -0.08    -0.07  -0.03  -0.07
  14   1     0.24  -0.05  -0.08     0.09  -0.02  -0.07     0.21  -0.03  -0.12
  15   1     0.15   0.17   0.07     0.03   0.10  -0.08     0.11   0.19   0.04
  16   1    -0.23  -0.01   0.09     0.12  -0.02  -0.10     0.19   0.01  -0.07
  17   1    -0.14   0.11  -0.14     0.04  -0.15  -0.02     0.10  -0.13   0.10
  18  35     0.00  -0.01   0.00    -0.00   0.00   0.00    -0.00   0.00   0.00
  19   6    -0.00   0.05  -0.00     0.14   0.10   0.55     0.05  -0.03  -0.19
  20   8    -0.02  -0.16   0.04    -0.24  -0.01   0.13     0.06   0.14  -0.24
  21   1     0.02  -0.00   0.08     0.00   0.06   0.24     0.03  -0.02  -0.10
  22   1    -0.02  -0.02  -0.08     0.05   0.06   0.23     0.01  -0.00  -0.03
  23   1     0.01   0.12  -0.02     0.18  -0.00   0.11    -0.00  -0.04  -0.04
                     10                     11                     12
                        a                      a                      a 
 Frequencies --   342.6292               394.8212               442.3494
 Red. masses --    11.2687                 8.9587                 9.8083
 Frc consts  --     0.0000                 0.0000                 0.0000
 IR Inten    --     0.5263                 0.1903                 0.2024
 Raman Activ --     0.0000                 0.0000                 0.0000
 Depolar     --     0.0000                 0.0000                 0.0000
 Atom AN      X      Y      Z        X      Y      Z        X      Y      Z
   1   6    -0.08   0.11  -0.02    -0.02   0.27  -0.01    -0.01   0.18  -0.41
   2   6     0.00   0.11  -0.15     0.27   0.04   0.21    -0.00   0.14  -0.03
   3   6    -0.06  -0.29   0.05     0.08  -0.30   0.08     0.06  -0.05   0.34
   4   1     0.02  -0.15   0.06    -0.08  -0.02  -0.06     0.00  -0.03   0.01
   5   6    -0.06   0.09  -0.09    -0.03  -0.23   0.11     0.03   0.34   0.31
   6   1    -0.02  -0.10   0.02     0.04  -0.22   0.10     0.05  -0.07   0.18
   7   1    -0.03  -0.14  -0.06     0.18  -0.00  -0.00     0.09  -0.02   0.02
   8   6     0.16  -0.33   0.03     0.10   0.28  -0.05    -0.07  -0.19  -0.29
   9   1     0.05   0.03  -0.04     0.07   0.01   0.06    -0.00  -0.10   0.02
  10   1    -0.02   0.02  -0.09     0.07   0.01   0.06    -0.00   0.08  -0.02
  11   6     0.05  -0.33   0.10    -0.28  -0.04  -0.17     0.00  -0.07   0.02
  12   1     0.08  -0.12   0.06     0.18  -0.01   0.00    -0.10  -0.02  -0.01
  13   1     0.06  -0.08   0.05     0.05   0.23   0.00    -0.05  -0.14  -0.14
  14   1    -0.01   0.03  -0.08    -0.12   0.00   0.00     0.08   0.07   0.02
  15   1    -0.01   0.04  -0.01    -0.02  -0.17   0.02     0.03   0.17   0.12
  16   1    -0.09   0.06   0.10    -0.13   0.01   0.01    -0.06   0.06  -0.05
  17   1    -0.05   0.10  -0.08    -0.02   0.18  -0.05    -0.02   0.09  -0.17
  18  35     0.00   0.00  -0.00     0.00  -0.00  -0.00    -0.00  -0.00   0.00
  19   6    -0.02   0.06   0.11     0.04   0.01   0.06     0.01  -0.05   0.00
  20   8     0.00   0.60  -0.04    -0.22  -0.04  -0.26    -0.01  -0.28   0.06
  21   1     0.03  -0.01  -0.06    -0.00   0.02   0.08    -0.03   0.02   0.02
  22   1    -0.04   0.03   0.15     0.00   0.01   0.07     0.04  -0.00  -0.03
  23   1     0.00  -0.09   0.04     0.11  -0.01  -0.02    -0.00  -0.00   0.00
                     13                     14                     15
                        a                      a                      a 
 Frequencies --   514.6102               599.7102               823.2704
 Red. masses --     5.7660                10.0847                 7.5493
 Frc consts  --     0.0000                 0.0000                 0.0000
 IR Inten    --     0.1344                 0.4563                 0.1730
 Raman Activ --     0.0000                 0.0000                 0.0000
 Depolar     --     0.0000                 0.0000                 0.0000
 Atom AN      X      Y      Z        X      Y      Z        X      Y      Z
   1   6    -0.05  -0.18   0.12     0.00   0.11  -0.24    -0.10   0.24  -0.11
   2   6    -0.15  -0.05  -0.25     0.08   0.00   0.02    -0.14   0.04   0.10
   3   6     0.02  -0.15   0.14    -0.09  -0.13  -0.08    -0.01  -0.35   0.07
   4   1    -0.10  -0.00  -0.03    -0.08   0.01   0.03     0.09   0.00  -0.02
   5   6    -0.04   0.21   0.04    -0.00  -0.19  -0.18    -0.04  -0.23   0.01
   6   1     0.03  -0.26   0.15    -0.06  -0.12  -0.08    -0.02   0.11  -0.06
   7   1     0.20  -0.02  -0.11    -0.01  -0.04  -0.03    -0.17  -0.12   0.14
   8   6     0.02   0.21   0.07    -0.09   0.11  -0.13    -0.06   0.32  -0.09
   9   1     0.18  -0.02  -0.07    -0.15   0.00   0.01     0.19  -0.00   0.02
  10   1    -0.10  -0.05  -0.26     0.07   0.03   0.16    -0.11  -0.05  -0.19
  11   6    -0.26   0.03   0.14    -0.19   0.06   0.29     0.29  -0.07  -0.18
  12   1     0.20  -0.03  -0.10    -0.02   0.03  -0.04    -0.11   0.12   0.05
  13   1     0.04   0.30   0.04    -0.06   0.08  -0.13    -0.01  -0.05   0.02
  14   1     0.14  -0.01  -0.04    -0.11   0.00  -0.03     0.12  -0.11  -0.16
  15   1     0.02   0.21   0.04    -0.02  -0.17  -0.07     0.01   0.12   0.01
  16   1     0.14  -0.01  -0.05    -0.11  -0.01  -0.03     0.18   0.06  -0.24
  17   1     0.02  -0.18   0.12    -0.02   0.12  -0.13     0.02  -0.16   0.11
  18  35    -0.00  -0.00   0.00     0.00   0.00   0.00    -0.00   0.00   0.00
  19   6     0.04  -0.03  -0.15     0.03  -0.01  -0.03    -0.10   0.03   0.12
  20   8     0.17  -0.00   0.04     0.41   0.07   0.43     0.10   0.02   0.13
  21   1     0.03  -0.02  -0.09     0.04  -0.03  -0.15    -0.02   0.00   0.01
  22   1     0.01  -0.02  -0.09     0.02  -0.03  -0.13    -0.02   0.00   0.01
  23   1    -0.07   0.01  -0.01    -0.20   0.03   0.07    -0.06   0.02   0.05
                     16                     17                     18
                        a                      a                      a 
 Frequencies --   826.1555               902.5005               912.4133
 Red. masses --     4.5058                 7.2586                 6.8626
 Frc consts  --     0.0000                 0.0000                 0.0000
 IR Inten    --     0.0540                 0.0244                 0.2387
 Raman Activ --     0.0000                 0.0000                 0.0000
 Depolar     --     0.0000                 0.0000                 0.0000
 Atom AN      X      Y      Z        X      Y      Z        X      Y      Z
   1   6     0.20  -0.06   0.08    -0.05  -0.22   0.12    -0.12  -0.17   0.04
   2   6    -0.02  -0.14   0.04     0.14   0.10   0.51     0.32  -0.00   0.02
   3   6    -0.24   0.02  -0.08     0.01  -0.04  -0.26    -0.20  -0.01  -0.05
   4   1     0.01  -0.06   0.01    -0.01   0.00   0.02     0.04  -0.02  -0.11
   5   6    -0.23  -0.15  -0.05    -0.05   0.25   0.02    -0.11   0.18  -0.02
   6   1     0.01  -0.19   0.20    -0.03  -0.02  -0.15     0.04  -0.03   0.23
   7   1     0.19   0.08  -0.16    -0.05  -0.05  -0.09     0.07  -0.06  -0.22
   8   6     0.22   0.15   0.04     0.01  -0.07  -0.25    -0.19   0.00  -0.05
   9   1     0.03   0.02  -0.00     0.43   0.02   0.13    -0.14   0.00   0.01
  10   1    -0.01   0.06  -0.04    -0.08  -0.04  -0.22     0.16   0.04   0.22
  11   6     0.05   0.16  -0.06    -0.07   0.00   0.01     0.24  -0.07  -0.29
  12   1    -0.23   0.18   0.13    -0.05   0.02  -0.10     0.07  -0.03  -0.22
  13   1    -0.02  -0.27  -0.11    -0.03  -0.04  -0.14     0.05   0.11   0.20
  14   1     0.24  -0.19  -0.16    -0.11   0.13  -0.04    -0.03   0.08  -0.15
  15   1     0.03   0.27   0.12    -0.06   0.04  -0.11     0.04   0.02   0.19
  16   1    -0.20  -0.09   0.15    -0.11  -0.13   0.01    -0.03  -0.13  -0.12
  17   1    -0.02   0.17  -0.19    -0.06  -0.08  -0.09     0.04   0.04   0.19
  18  35    -0.00  -0.00   0.00     0.00   0.00   0.00     0.00  -0.00  -0.00
  19   6    -0.01   0.00   0.02     0.02   0.00   0.02    -0.18   0.05   0.17
  20   8     0.02   0.02   0.02     0.03   0.01   0.04     0.17   0.00   0.07
  21   1     0.00  -0.00  -0.00     0.01  -0.01  -0.03    -0.03   0.00   0.02
  22   1    -0.01  -0.00   0.01     0.01  -0.01  -0.03    -0.03   0.01   0.02
  23   1    -0.01  -0.01   0.01    -0.04   0.01   0.02    -0.09   0.02   0.06
                     19                     20                     21
                        a                      a                      a 
 Frequencies --   932.0173               952.2603               971.4522
 Red. masses --     3.6515                 8.4834                 7.5163
 Frc consts  --     0.0000                 0.0000                 0.0000
 IR Inten    --     0.0686                 0.6433                 0.1376
 Raman Activ --     0.0000                 0.0000                 0.0000
 Depolar     --     0.0000                 0.0000                 0.0000
 Atom AN      X      Y      Z        X      Y      Z        X      Y      Z
   1   6    -0.20   0.11  -0.06    -0.05  -0.19   0.01    -0.12  -0.11   0.25
   2   6    -0.00  -0.07   0.01     0.11   0.00  -0.09    -0.00   0.33  -0.06
   3   6    -0.20   0.11  -0.06    -0.03  -0.27   0.15    -0.08  -0.03   0.32
   4   1    -0.00  -0.27   0.06     0.10   0.04   0.18    -0.01  -0.01  -0.01
   5   6     0.20   0.12   0.01    -0.04   0.15  -0.08     0.12  -0.22  -0.18
   6   1    -0.05  -0.28   0.06    -0.02   0.03   0.00    -0.02  -0.06   0.09
   7   1     0.18   0.07  -0.17    -0.16  -0.21  -0.02     0.08   0.15   0.23
   8   6     0.21   0.13   0.02    -0.02   0.27  -0.01     0.07  -0.20  -0.29
   9   1    -0.00   0.00  -0.00    -0.10   0.02  -0.03     0.01   0.35  -0.07
  10   1    -0.00  -0.28   0.06     0.07   0.02   0.10    -0.00  -0.04   0.00
  11   6     0.00  -0.06   0.03     0.23   0.09   0.37    -0.01   0.23  -0.07
  12   1    -0.18   0.14   0.12    -0.16   0.18  -0.14    -0.06   0.03  -0.26
  13   1     0.04  -0.29   0.05    -0.01  -0.03   0.02     0.02  -0.08  -0.06
  14   1    -0.19   0.15   0.11    -0.09   0.10  -0.11    -0.03   0.00  -0.18
  15   1     0.03  -0.27   0.04    -0.01  -0.03   0.01     0.05  -0.11   0.03
  16   1     0.19   0.08  -0.16    -0.09  -0.12  -0.04     0.05   0.08   0.17
  17   1    -0.04  -0.27   0.06    -0.01   0.03   0.00    -0.05  -0.11   0.02
  18  35    -0.00   0.00  -0.00    -0.00   0.00   0.00     0.00  -0.00  -0.00
  19   6     0.01   0.01  -0.01     0.19  -0.07  -0.27    -0.01  -0.02   0.02
  20   8    -0.01   0.00  -0.00    -0.28   0.01  -0.06     0.02  -0.04   0.01
  21   1     0.01  -0.01  -0.01     0.01   0.01   0.05    -0.02   0.01   0.01
  22   1    -0.01  -0.00   0.01     0.03   0.01   0.04     0.02  -0.00  -0.02
  23   1     0.01  -0.00  -0.00     0.21  -0.04  -0.13    -0.02   0.01   0.01
                     22                     23                     24
                        a                      a                      a 
 Frequencies --   996.9472              1065.2885              1082.4113
 Red. masses --     8.2660                 1.2993                 9.5087
 Frc consts  --     0.0000                 0.0000                 0.0000
 IR Inten    --     0.4116                 0.0149                 1.2557
 Raman Activ --     0.0000                 0.0000                 0.0000
 Depolar     --     0.0000                 0.0000                 0.0000
 Atom AN      X      Y      Z        X      Y      Z        X      Y      Z
   1   6     0.13  -0.24   0.09    -0.03  -0.06  -0.02    -0.02  -0.16  -0.15
   2   6    -0.10  -0.03  -0.18    -0.00   0.09  -0.02     0.07  -0.00   0.04
   3   6     0.08  -0.20   0.19     0.02   0.03   0.01     0.03   0.02   0.18
   4   1    -0.07  -0.04  -0.18    -0.00  -0.32   0.07    -0.01   0.01  -0.03
   5   6     0.14   0.26  -0.01     0.03  -0.04   0.05    -0.03   0.10  -0.19
   6   1    -0.05   0.01  -0.13    -0.11  -0.24  -0.25     0.02   0.08   0.05
   7   1    -0.11  -0.06   0.15     0.09   0.19   0.19     0.06   0.15   0.22
   8   6     0.08   0.26   0.10    -0.02   0.03  -0.03     0.05   0.02   0.20
   9   1    -0.09  -0.01  -0.05    -0.00  -0.13   0.03     0.02  -0.02   0.01
  10   1    -0.00   0.00   0.02     0.01   0.39  -0.08     0.01  -0.00  -0.00
  11   6    -0.04  -0.04  -0.21    -0.00  -0.04  -0.00    -0.13  -0.05  -0.39
  12   1    -0.11   0.12   0.11    -0.09   0.10  -0.26     0.06  -0.06   0.26
  13   1    -0.05  -0.07  -0.12     0.11  -0.12   0.32     0.02  -0.06   0.10
  14   1    -0.15   0.15   0.10     0.06  -0.07   0.16    -0.09   0.10  -0.21
  15   1    -0.04  -0.12  -0.14    -0.09   0.10  -0.27    -0.02   0.02  -0.08
  16   1    -0.15  -0.09   0.15    -0.06  -0.12  -0.12    -0.08  -0.15  -0.13
  17   1    -0.04   0.05  -0.18     0.09   0.20   0.22    -0.02  -0.05  -0.08
  18  35     0.00   0.00   0.00    -0.00  -0.00  -0.00    -0.00  -0.00   0.00
  19   6    -0.25   0.07   0.25     0.00   0.04  -0.01     0.28  -0.02  -0.18
  20   8     0.22  -0.05  -0.16    -0.01  -0.03   0.01    -0.22   0.08   0.41
  21   1    -0.04   0.01   0.01     0.05  -0.03  -0.03     0.08  -0.03  -0.06
  22   1    -0.04   0.01   0.00    -0.05  -0.01   0.04    -0.02  -0.02   0.01
  23   1    -0.09   0.02   0.07    -0.00   0.00   0.00    -0.04  -0.02   0.01
                     25                     26                     27
                        a                      a                      a 
 Frequencies --  1088.6203              1091.2927              1122.0486
 Red. masses --     9.4134                 6.4425                 3.8821
 Frc consts  --     0.0000                 0.0000                 0.0000
 IR Inten    --     0.8672                 0.3710                 0.3343
 Raman Activ --     0.0000                 0.0000                 0.0000
 Depolar     --     0.0000                 0.0000                 0.0000
 Atom AN      X      Y      Z        X      Y      Z        X      Y      Z
   1   6    -0.08  -0.06  -0.28     0.01   0.04  -0.12    -0.02  -0.06  -0.04
   2   6     0.12   0.03   0.15    -0.00  -0.05   0.01     0.01   0.10  -0.01
   3   6     0.02   0.16   0.19    -0.14  -0.27  -0.11     0.02   0.03  -0.02
   4   1    -0.04  -0.02  -0.02     0.00   0.25  -0.06    -0.00   0.02  -0.02
   5   6    -0.08  -0.06  -0.28    -0.01   0.06   0.10     0.01  -0.06   0.05
   6   1     0.02   0.02   0.08    -0.09  -0.14  -0.15     0.01   0.02   0.01
   7   1     0.06   0.12   0.12    -0.02   0.01   0.08    -0.01  -0.03  -0.04
   8   6     0.01  -0.06   0.23     0.12  -0.22   0.20    -0.03   0.02   0.02
   9   1     0.10   0.01   0.03    -0.00  -0.39   0.08     0.01   0.15  -0.03
  10   1     0.00   0.00  -0.04    -0.00   0.01  -0.00     0.00   0.00  -0.00
  11   6     0.01   0.05   0.34     0.02   0.49  -0.06     0.02  -0.03   0.07
  12   1     0.06  -0.06   0.14     0.02  -0.02  -0.10     0.00  -0.01   0.03
  13   1     0.02   0.01   0.09     0.08  -0.05   0.18    -0.02   0.03  -0.03
  14   1    -0.03   0.02  -0.26    -0.11   0.12  -0.22     0.03  -0.04   0.04
  15   1    -0.03   0.07  -0.12    -0.00  -0.03   0.04     0.03  -0.02   0.08
  16   1    -0.04  -0.13  -0.24     0.12   0.21   0.16    -0.03  -0.04  -0.03
  17   1    -0.02  -0.09  -0.07     0.00  -0.04  -0.02    -0.03  -0.05  -0.07
  18  35     0.00   0.00   0.00    -0.00  -0.00   0.00     0.00  -0.00   0.00
  19   6    -0.27   0.01   0.10    -0.03   0.06   0.01    -0.02   0.39  -0.06
  20   8     0.21  -0.07  -0.34     0.02  -0.06  -0.03     0.02  -0.23  -0.02
  21   1    -0.09   0.03   0.10     0.06  -0.04  -0.04     0.40  -0.26  -0.25
  22   1     0.01   0.03   0.03    -0.07  -0.01   0.05    -0.47  -0.05   0.37
  23   1     0.09   0.01  -0.04     0.00  -0.01   0.00     0.03  -0.22   0.00
                     28                     29                     30
                        a                      a                      a 
 Frequencies --  1132.9902              1141.5307              1182.4000
 Red. masses --     5.7655                 7.2452                 7.5394
 Frc consts  --     0.0000                 0.0000                 0.0000
 IR Inten    --     0.3712                 0.0541                 0.4041
 Raman Activ --     0.0000                 0.0000                 0.0000
 Depolar     --     0.0000                 0.0000                 0.0000
 Atom AN      X      Y      Z        X      Y      Z        X      Y      Z
   1   6    -0.17  -0.00   0.05     0.12   0.26   0.22     0.23   0.00  -0.12
   2   6     0.15  -0.02  -0.08    -0.01  -0.40   0.08    -0.22   0.01   0.11
   3   6     0.19  -0.03  -0.04     0.03   0.08   0.23    -0.24   0.04   0.14
   4   1     0.03   0.04   0.20    -0.00  -0.13   0.03     0.11   0.03   0.08
   5   6    -0.17   0.03   0.05    -0.12   0.15  -0.31     0.22  -0.04  -0.13
   6   1     0.05   0.17  -0.02     0.02   0.07   0.09    -0.03  -0.13   0.13
   7   1    -0.06  -0.02   0.07     0.01   0.04   0.08     0.05  -0.03  -0.12
   8   6     0.18   0.01  -0.05    -0.03  -0.01  -0.25    -0.22  -0.01   0.12
   9   1    -0.09   0.00  -0.02    -0.00  -0.25   0.05     0.11   0.04   0.02
  10   1     0.08   0.01   0.10    -0.00  -0.24   0.05    -0.11  -0.03  -0.13
  11   6    -0.20   0.02   0.09     0.00  -0.05   0.02     0.30   0.03   0.01
  12   1    -0.06   0.05   0.06    -0.01   0.01  -0.09     0.08  -0.06  -0.06
  13   1     0.05  -0.16   0.04    -0.02   0.03  -0.11    -0.02   0.16   0.08
  14   1     0.03  -0.01  -0.10    -0.07   0.07  -0.15    -0.06   0.04   0.07
  15   1     0.01   0.10   0.10    -0.09   0.08  -0.25     0.01  -0.14  -0.09
  16   1     0.03  -0.03  -0.10     0.07   0.12   0.11    -0.08  -0.05   0.02
  17   1     0.00  -0.05   0.13     0.09   0.17   0.20     0.03   0.12  -0.10
  18  35    -0.00  -0.00  -0.00    -0.00  -0.00   0.00    -0.00   0.00   0.00
  19   6     0.19   0.04   0.24    -0.00   0.09  -0.01     0.20   0.02   0.16
  20   8    -0.10  -0.05  -0.27     0.01  -0.06  -0.00    -0.21  -0.03  -0.17
  21   1     0.11  -0.04  -0.29     0.09  -0.06  -0.05     0.07  -0.02  -0.20
  22   1     0.04  -0.08  -0.24    -0.11  -0.01   0.08     0.03  -0.07  -0.17
  23   1    -0.41   0.08   0.24     0.01  -0.06   0.00    -0.29   0.06   0.17
                     31                     32                     33
                        a                      a                      a 
 Frequencies --  1189.9783              1235.9363              1243.2025
 Red. masses --     4.4004                 3.6069                 4.2030
 Frc consts  --     0.0000                 0.0000                 0.0000
 IR Inten    --     0.2384                 0.3223                 0.2067
 Raman Activ --     0.0000                 0.0000                 0.0000
 Depolar     --     0.0000                 0.0000                 0.0000
 Atom AN      X      Y      Z        X      Y      Z        X      Y      Z
   1   6     0.02  -0.12  -0.05     0.07  -0.01  -0.17     0.17   0.01   0.04
   2   6    -0.03   0.15  -0.02     0.00   0.02   0.12    -0.35   0.00   0.00
   3   6     0.10   0.12  -0.16     0.07   0.03   0.13     0.05  -0.05  -0.14
   4   1     0.01  -0.20   0.06    -0.12  -0.00  -0.09     0.01   0.03   0.13
   5   6     0.03  -0.10   0.07     0.07  -0.05  -0.17     0.16   0.00   0.05
   6   1     0.08   0.12   0.07     0.12   0.28   0.25     0.08   0.17   0.10
   7   1     0.13   0.21   0.14    -0.15  -0.28  -0.24     0.01   0.04   0.04
   8   6    -0.14   0.17   0.13     0.08   0.01   0.13     0.05  -0.02  -0.14
   9   1     0.01  -0.31   0.07     0.08   0.00   0.03     0.04   0.01  -0.00
  10   1    -0.01   0.05  -0.03    -0.02  -0.01  -0.05    -0.13  -0.03  -0.11
  11   6     0.02  -0.36   0.07    -0.31  -0.01  -0.06    -0.18   0.02   0.05
  12   1    -0.11   0.14  -0.24    -0.15   0.17  -0.34     0.02  -0.02   0.05
  13   1    -0.07   0.11  -0.08     0.12  -0.16   0.34     0.08  -0.12   0.18
  14   1    -0.08   0.09  -0.33     0.06  -0.07   0.16    -0.15   0.15  -0.24
  15   1     0.07  -0.05   0.18    -0.00  -0.02  -0.09     0.13  -0.21   0.33
  16   1     0.07   0.20   0.27     0.06   0.12   0.12    -0.15  -0.23  -0.17
  17   1    -0.06  -0.08  -0.17     0.00  -0.01  -0.09     0.14   0.32   0.23
  18  35    -0.00   0.00  -0.00    -0.00   0.00   0.00    -0.00  -0.00  -0.00
  19   6     0.02   0.00   0.01    -0.00  -0.01  -0.04    -0.07   0.00  -0.04
  20   8    -0.02   0.04  -0.02     0.03   0.00   0.04     0.12  -0.01   0.00
  21   1     0.01  -0.00  -0.02    -0.01  -0.00   0.04    -0.01  -0.00   0.05
  22   1     0.00  -0.01  -0.02    -0.01   0.01   0.04    -0.00   0.02   0.04
  23   1    -0.03  -0.00   0.02    -0.03  -0.00   0.00     0.06  -0.01  -0.04
                     34                     35                     36
                        a                      a                      a 
 Frequencies --  1247.0936              1298.2494              1311.6509
 Red. masses --     3.7221                 3.7799                 3.4241
 Frc consts  --     0.0000                 0.0000                 0.0000
 IR Inten    --     0.0403                 0.1932                 0.2602
 Raman Activ --     0.0000                 0.0000                 0.0000
 Depolar     --     0.0000                 0.0000                 0.0000
 Atom AN      X      Y      Z        X      Y      Z        X      Y      Z
   1   6    -0.25  -0.08   0.14     0.03  -0.11   0.00    -0.01   0.08   0.03
   2   6    -0.01   0.09  -0.02     0.01   0.03  -0.00    -0.08  -0.01  -0.02
   3   6    -0.13   0.07   0.08     0.19   0.14   0.13     0.17   0.18   0.11
   4   1     0.00   0.14  -0.03     0.01  -0.48   0.14    -0.25  -0.14  -0.58
   5   6     0.25  -0.13  -0.09    -0.03  -0.09   0.03    -0.02  -0.08   0.07
   6   1     0.06   0.08   0.23    -0.04  -0.09  -0.16    -0.06  -0.12  -0.20
   7   1    -0.02  -0.12  -0.20    -0.15  -0.26  -0.22    -0.10  -0.17  -0.17
   8   6     0.14   0.03  -0.11    -0.20   0.10  -0.19     0.14  -0.11   0.13
   9   1    -0.00  -0.38   0.08     0.00  -0.04   0.01    -0.03   0.01  -0.01
  10   1     0.00   0.52  -0.11     0.00   0.04  -0.01    -0.03  -0.00  -0.03
  11   6    -0.00  -0.00   0.01    -0.01   0.25  -0.06     0.08   0.02   0.08
  12   1     0.02  -0.04   0.24     0.16  -0.16   0.32    -0.07   0.07  -0.18
  13   1    -0.05  -0.02  -0.25     0.05  -0.03   0.22    -0.04   0.03  -0.19
  14   1    -0.04   0.02  -0.01    -0.01   0.01  -0.20    -0.03   0.05  -0.27
  15   1     0.01  -0.09  -0.13     0.03  -0.01   0.09     0.03  -0.03   0.11
  16   1     0.03   0.01  -0.01     0.02   0.11   0.21    -0.03  -0.12  -0.19
  17   1    -0.01  -0.02   0.17    -0.03  -0.06  -0.09     0.03   0.07   0.08
  18  35     0.00   0.00  -0.00    -0.00   0.00  -0.00     0.00   0.00   0.00
  19   6     0.00   0.02  -0.00    -0.01  -0.01   0.00     0.10  -0.01   0.02
  20   8     0.00  -0.01   0.00     0.02  -0.03   0.00    -0.18   0.02   0.05
  21   1     0.01  -0.00   0.00    -0.00  -0.00  -0.00    -0.00   0.02  -0.05
  22   1    -0.02  -0.01   0.00     0.01   0.01   0.01    -0.01  -0.03  -0.04
  23   1    -0.01  -0.03   0.01     0.01   0.03  -0.01    -0.05   0.02   0.04
                     37                     38                     39
                        a                      a                      a 
 Frequencies --  1334.8349              1339.7664              1353.7592
 Red. masses --     4.3331                 4.6134                 4.5224
 Frc consts  --     0.0000                 0.0000                 0.0000
 IR Inten    --     0.2715                 0.1130                 0.4432
 Raman Activ --     0.0000                 0.0000                 0.0000
 Depolar     --     0.0000                 0.0000                 0.0000
 Atom AN      X      Y      Z        X      Y      Z        X      Y      Z
   1   6    -0.04  -0.04  -0.12    -0.11  -0.07  -0.20    -0.02  -0.12  -0.05
   2   6    -0.00  -0.37   0.07    -0.00  -0.17   0.03     0.02   0.02   0.03
   3   6    -0.00   0.15   0.06    -0.05  -0.16  -0.16    -0.06  -0.17  -0.20
   4   1     0.01   0.36  -0.05    -0.00  -0.41   0.09    -0.22  -0.11  -0.51
   5   6     0.05   0.00   0.13     0.11   0.01   0.22    -0.02   0.08  -0.06
   6   1    -0.07  -0.13  -0.12     0.10   0.23   0.19     0.09   0.14   0.18
   7   1     0.03   0.01  -0.06     0.01   0.01   0.00     0.05   0.16   0.20
   8   6    -0.01   0.12  -0.12     0.05  -0.09   0.22    -0.06   0.10  -0.25
   9   1     0.00   0.40  -0.08     0.00   0.33  -0.07     0.05   0.00   0.01
  10   1     0.01   0.30  -0.06     0.00   0.09  -0.02     0.01  -0.01   0.03
  11   6    -0.00  -0.26   0.05    -0.00   0.25  -0.06     0.16   0.05   0.29
  12   1    -0.03   0.03   0.06    -0.02   0.01  -0.02     0.05  -0.07   0.26
  13   1     0.07  -0.07   0.18    -0.10   0.14  -0.28     0.08  -0.07   0.22
  14   1    -0.13   0.13  -0.25    -0.07   0.08  -0.10     0.05  -0.04   0.16
  15   1    -0.02   0.05  -0.06    -0.07   0.07  -0.23     0.01  -0.03   0.03
  16   1     0.13   0.22   0.19     0.07   0.11   0.05     0.06   0.11   0.15
  17   1     0.02   0.05   0.02     0.07   0.14   0.18     0.02   0.06   0.05
  18  35    -0.00  -0.00   0.00     0.00  -0.00   0.00     0.00  -0.00  -0.00
  19   6    -0.00  -0.00  -0.00     0.00   0.01  -0.00     0.11  -0.01  -0.02
  20   8     0.00   0.01  -0.00     0.00   0.00  -0.00    -0.12   0.01   0.00
  21   1     0.00   0.00  -0.01    -0.00   0.00   0.02    -0.04   0.04   0.02
  22   1     0.01   0.01   0.01    -0.01  -0.01  -0.01    -0.05  -0.02   0.03
  23   1     0.00   0.02  -0.00    -0.01  -0.03   0.01    -0.12   0.02   0.06
                     40                     41                     42
                        a                      a                      a 
 Frequencies --  1355.8686              1356.2795              1390.9854
 Red. masses --     4.9544                 5.0181                 2.3967
 Frc consts  --     0.0000                 0.0000                 0.0000
 IR Inten    --     0.1030                 0.2620                 0.0922
 Raman Activ --     0.0000                 0.0000                 0.0000
 Depolar     --     0.0000                 0.0000                 0.0000
 Atom AN      X      Y      Z        X      Y      Z        X      Y      Z
   1   6     0.01  -0.17  -0.05     0.15   0.28   0.31    -0.02  -0.00  -0.02
   2   6     0.01   0.34  -0.13     0.00  -0.14  -0.14    -0.00   0.00   0.01
   3   6    -0.07   0.10  -0.03    -0.07  -0.05  -0.12     0.03   0.03   0.03
   4   1     0.00   0.17  -0.03    -0.04  -0.07  -0.05     0.05   0.02   0.11
   5   6     0.07  -0.20   0.33     0.12  -0.03   0.23    -0.02   0.00  -0.02
   6   1     0.00  -0.02   0.06     0.07   0.13   0.15    -0.03  -0.09  -0.06
   7   1    -0.01  -0.05  -0.12     0.03   0.03  -0.01    -0.03  -0.02   0.00
   8   6     0.02   0.08  -0.07    -0.10  -0.06  -0.10     0.02  -0.02   0.03
   9   1    -0.03  -0.10   0.01    -0.08   0.02  -0.04     0.00  -0.00   0.00
  10   1     0.00  -0.46   0.10     0.03   0.15   0.00    -0.00  -0.00  -0.00
  11   6    -0.01  -0.10   0.03    -0.01   0.05   0.07    -0.01  -0.00  -0.01
  12   1     0.02  -0.01   0.09     0.02  -0.03  -0.07    -0.03   0.02  -0.01
  13   1     0.03  -0.07   0.07     0.05  -0.03   0.18    -0.02   0.06  -0.07
  14   1    -0.03   0.03  -0.19    -0.07   0.09  -0.18     0.00  -0.00  -0.00
  15   1    -0.15   0.19  -0.44    -0.08   0.06  -0.26     0.01  -0.01   0.05
  16   1    -0.02  -0.02   0.04    -0.09  -0.19  -0.21     0.00   0.00  -0.00
  17   1     0.07   0.17   0.12    -0.16  -0.32  -0.38     0.01   0.02   0.03
  18  35     0.00  -0.00   0.00     0.00   0.00   0.00    -0.00   0.00   0.00
  19   6     0.01  -0.00  -0.01     0.03  -0.01  -0.04     0.20  -0.06  -0.22
  20   8     0.01   0.00  -0.00     0.00  -0.00  -0.00     0.10  -0.03  -0.09
  21   1    -0.01   0.01   0.02    -0.02   0.01   0.05    -0.26   0.22   0.41
  22   1    -0.01   0.00   0.02    -0.02   0.00   0.05    -0.29  -0.02   0.43
  23   1    -0.02  -0.00   0.01    -0.08   0.01   0.03    -0.49   0.08   0.19
                     43                     44                     45
                        a                      a                      a 
 Frequencies --  1466.1002              1474.8498              1479.9057
 Red. masses --     1.6901                 1.7555                 1.9280
 Frc consts  --     0.0000                 0.0000                 0.0000
 IR Inten    --     0.0273                 0.1205                 0.0623
 Raman Activ --     0.0000                 0.0000                 0.0000
 Depolar     --     0.0000                 0.0000                 0.0000
 Atom AN      X      Y      Z        X      Y      Z        X      Y      Z
   1   6     0.01   0.00  -0.01    -0.00   0.00   0.02    -0.01  -0.00   0.00
   2   6    -0.01   0.02  -0.01    -0.05  -0.02  -0.03    -0.20  -0.02  -0.14
   3   6    -0.04  -0.05   0.06     0.07   0.10  -0.13     0.02   0.03   0.00
   4   1     0.00  -0.01   0.00     0.01   0.01   0.03     0.01   0.01   0.02
   5   6    -0.00   0.00   0.01     0.02  -0.03  -0.01    -0.03   0.04   0.02
   6   1    -0.03   0.17  -0.09     0.09  -0.30   0.28    -0.00  -0.06   0.01
   7   1     0.16   0.03  -0.11    -0.35  -0.07   0.22    -0.05  -0.02   0.01
   8   6     0.05  -0.10  -0.05    -0.00   0.00   0.02     0.05  -0.11  -0.04
   9   1     0.02  -0.01   0.00     0.13   0.00  -0.00     0.55  -0.01  -0.01
  10   1     0.01  -0.01   0.02     0.04   0.03   0.12     0.17   0.10   0.52
  11   6    -0.00  -0.00  -0.00    -0.02   0.00  -0.03    -0.01  -0.01  -0.02
  12   1    -0.24   0.11   0.12     0.02  -0.01  -0.03    -0.25   0.11   0.12
  13   1     0.05   0.27   0.06    -0.00  -0.03  -0.00     0.06   0.28   0.08
  14   1     0.03  -0.02  -0.01    -0.08   0.05   0.03     0.11  -0.05  -0.08
  15   1    -0.01  -0.04  -0.02     0.02   0.10   0.01    -0.04  -0.13  -0.04
  16   1    -0.04  -0.02   0.02     0.04   0.00  -0.03     0.01  -0.01  -0.03
  17   1     0.01  -0.04   0.03    -0.01   0.03  -0.04    -0.01   0.01  -0.02
  18  35    -0.00   0.00  -0.00    -0.00  -0.00   0.00     0.00   0.00   0.00
  19   6    -0.01  -0.19   0.04     0.10  -0.04   0.11    -0.03   0.05  -0.03
  20   8     0.00  -0.03   0.01     0.04  -0.01   0.02    -0.00   0.01  -0.00
  21   1    -0.05   0.04  -0.41    -0.31   0.27  -0.31     0.09  -0.08   0.14
  22   1     0.00   0.11   0.36    -0.36  -0.21  -0.06     0.09   0.02  -0.08
  23   1     0.09   0.60  -0.10     0.22   0.09  -0.09    -0.05  -0.15   0.03
                     46                     47                     48
                        a                      a                      a 
 Frequencies --  1480.9828              1489.7995              1490.7252
 Red. masses --     1.7231                 1.8617                 2.0021
 Frc consts  --     0.0000                 0.0000                 0.0000
 IR Inten    --     0.0653                 0.0581                 0.0487
 Raman Activ --     0.0000                 0.0000                 0.0000
 Depolar     --     0.0000                 0.0000                 0.0000
 Atom AN      X      Y      Z        X      Y      Z        X      Y      Z
   1   6    -0.05  -0.04   0.06    -0.06  -0.08   0.10     0.05   0.09  -0.13
   2   6    -0.05  -0.02  -0.03    -0.07  -0.00  -0.04    -0.02  -0.02  -0.00
   3   6     0.04   0.06  -0.08    -0.06  -0.09   0.11     0.00   0.03  -0.04
   4   1    -0.00  -0.01  -0.01     0.00  -0.00   0.02     0.00   0.03  -0.00
   5   6     0.02  -0.03  -0.03    -0.03   0.04   0.01    -0.07   0.18   0.10
   6   1     0.05  -0.19   0.17    -0.07   0.27  -0.22     0.02  -0.06   0.07
   7   1    -0.21  -0.04   0.15     0.29   0.06  -0.19    -0.06   0.00   0.05
   8   6    -0.04   0.09   0.07    -0.06   0.10   0.05    -0.03   0.10   0.05
   9   1     0.14   0.00  -0.00     0.21  -0.01   0.00     0.05   0.03  -0.01
  10   1     0.04   0.03   0.13     0.06   0.03   0.19     0.01   0.03   0.04
  11   6     0.01   0.01   0.00    -0.00   0.01   0.02     0.00  -0.02   0.01
  12   1     0.23  -0.10  -0.13     0.25  -0.12  -0.13     0.20  -0.08  -0.12
  13   1    -0.07  -0.25  -0.13    -0.06  -0.29  -0.08    -0.06  -0.24  -0.09
  14   1    -0.09   0.04   0.04     0.11  -0.06  -0.05     0.39  -0.18  -0.21
  15   1     0.02   0.10   0.03    -0.03  -0.13  -0.03    -0.12  -0.47  -0.15
  16   1     0.17   0.04  -0.11     0.29   0.06  -0.18    -0.29  -0.04   0.19
  17   1    -0.04   0.16  -0.12    -0.07   0.28  -0.22     0.08  -0.27   0.24
  18  35     0.00  -0.00   0.00     0.00  -0.00  -0.00     0.00   0.00  -0.00
  19   6    -0.10  -0.09  -0.07     0.06  -0.01   0.04     0.00  -0.03   0.00
  20   8    -0.03  -0.01  -0.01     0.02  -0.00  -0.00     0.00  -0.00  -0.00
  21   1     0.25  -0.22  -0.01    -0.16   0.14  -0.10    -0.01   0.01  -0.06
  22   1     0.32   0.26   0.30    -0.19  -0.11  -0.02    -0.01   0.02   0.07
  23   1    -0.13   0.32   0.02     0.07   0.02  -0.03     0.01   0.09  -0.01
                     49                     50                     51
                        a                      a                      a 
 Frequencies --  1503.1871              2898.3913              2925.4111
 Red. masses --     2.0205                 1.7343                 1.8985
 Frc consts  --     0.0000                 0.0000                 0.0000
 IR Inten    --     0.0405                 0.3347                 0.3475
 Raman Activ --     0.0000                 0.0000                 0.0000
 Depolar     --     0.0000                 0.0000                 0.0000
 Atom AN      X      Y      Z        X      Y      Z        X      Y      Z
   1   6     0.06   0.11  -0.12    -0.01   0.00   0.00    -0.00  -0.00   0.00
   2   6    -0.09  -0.02  -0.08     0.00  -0.00  -0.00     0.00   0.00   0.00
   3   6    -0.03  -0.05   0.06    -0.01   0.01  -0.00    -0.01  -0.00   0.01
   4   1    -0.01  -0.01  -0.04    -0.88   0.09   0.38     0.01  -0.00  -0.00
   5   6     0.06  -0.15  -0.06    -0.01  -0.00   0.00     0.00   0.00   0.00
   6   1    -0.04   0.14  -0.12     0.05  -0.00  -0.02     0.03  -0.00  -0.01
   7   1     0.15   0.02  -0.10     0.01  -0.02   0.02    -0.01   0.01  -0.01
   8   6    -0.03   0.08   0.04    -0.01  -0.01   0.00     0.01  -0.00  -0.01
   9   1     0.25  -0.01  -0.01     0.00   0.00   0.00     0.00  -0.00  -0.00
  10   1     0.08   0.05   0.24    -0.01   0.00   0.00    -0.00   0.00   0.00
  11   6     0.01   0.00   0.02     0.24  -0.02  -0.09    -0.00  -0.00   0.00
  12   1     0.17  -0.07  -0.09     0.01   0.03   0.01     0.00   0.00   0.00
  13   1    -0.04  -0.19  -0.07     0.04  -0.01  -0.02    -0.05   0.00   0.02
  14   1    -0.32   0.14   0.15     0.00   0.01   0.00    -0.00  -0.00  -0.00
  15   1     0.09   0.38   0.10     0.02  -0.00  -0.00    -0.00   0.00   0.00
  16   1    -0.32  -0.07   0.19     0.00  -0.00   0.00    -0.00  -0.00   0.00
  17   1     0.08  -0.31   0.24     0.02  -0.00  -0.01     0.00  -0.00  -0.00
  18  35    -0.00  -0.00  -0.00    -0.00   0.00   0.00    -0.00  -0.00   0.00
  19   6     0.02  -0.01   0.01    -0.01   0.00  -0.00    -0.02   0.28  -0.07
  20   8    -0.01  -0.00  -0.00     0.00  -0.00  -0.01    -0.01   0.01   0.00
  21   1    -0.03   0.03  -0.02     0.01   0.01   0.00    -0.30  -0.30  -0.03
  22   1    -0.04  -0.01   0.02     0.01  -0.02   0.01     0.40  -0.72   0.24
  23   1     0.00   0.02  -0.00    -0.00   0.00  -0.00     0.01   0.05   0.01
                     52                     53                     54
                        a                      a                      a 
 Frequencies --  2945.1311              2953.5082              2956.3156
 Red. masses --     1.5158                 1.8952                 1.9059
 Frc consts  --     0.0000                 0.0000                 0.0000
 IR Inten    --     0.2425                 0.1446                 0.1925
 Raman Activ --     0.0000                 0.0000                 0.0000
 Depolar     --     0.0000                 0.0000                 0.0000
 Atom AN      X      Y      Z        X      Y      Z        X      Y      Z
   1   6     0.00  -0.00   0.00    -0.01   0.01  -0.00    -0.20   0.12  -0.02
   2   6     0.00  -0.00   0.00    -0.08   0.02   0.06     0.12  -0.02  -0.08
   3   6     0.05  -0.01  -0.01    -0.08   0.03   0.01    -0.06   0.02   0.01
   4   1     0.01  -0.00  -0.00    -0.00  -0.00   0.00     0.02  -0.00  -0.01
   5   6    -0.01  -0.00   0.00     0.22   0.09  -0.04     0.03   0.01  -0.00
   6   1    -0.16   0.02   0.06     0.28  -0.02  -0.11     0.19  -0.02  -0.07
   7   1    -0.01   0.03  -0.02     0.03  -0.07   0.05     0.03  -0.05   0.04
   8   6     0.01   0.00  -0.00     0.03   0.01  -0.01     0.05   0.01  -0.02
   9   1     0.00  -0.00  -0.00    -0.01  -0.02  -0.12     0.02   0.03   0.14
  10   1    -0.01   0.00   0.00     0.34  -0.03  -0.11    -0.45   0.04   0.15
  11   6    -0.00   0.00  -0.00    -0.00  -0.00   0.00    -0.00  -0.00   0.00
  12   1    -0.01  -0.01  -0.00    -0.02  -0.03  -0.01    -0.02  -0.04  -0.01
  13   1    -0.04   0.00   0.02    -0.08   0.01   0.03    -0.19   0.02   0.08
  14   1     0.01   0.02   0.00    -0.22  -0.41  -0.08    -0.03  -0.06  -0.01
  15   1     0.05  -0.01  -0.02    -0.61   0.08   0.24    -0.05   0.01   0.02
  16   1    -0.01   0.01  -0.00     0.01  -0.02   0.01     0.24  -0.40   0.26
  17   1     0.01  -0.00  -0.00     0.01  -0.00  -0.01     0.49  -0.02  -0.20
  18  35    -0.00   0.00   0.00     0.00   0.00  -0.00    -0.00   0.00   0.00
  19   6    -0.18  -0.08  -0.05    -0.02  -0.01  -0.00    -0.01  -0.01  -0.00
  20   8    -0.02   0.00   0.01    -0.00   0.00   0.00    -0.00   0.00   0.00
  21   1     0.54   0.66   0.01     0.07   0.08   0.00     0.02   0.03   0.00
  22   1     0.17  -0.40   0.11     0.01  -0.03   0.01    -0.00   0.00  -0.00
  23   1    -0.00  -0.01   0.04    -0.00  -0.00   0.00     0.00  -0.00   0.00
                     55                     56                     57
                        a                      a                      a 
 Frequencies --  2961.8841              2964.6225              2968.5323
 Red. masses --     1.9405                 1.9828                 1.8110
 Frc consts  --     0.0000                 0.0000                 0.0000
 IR Inten    --     0.1069                 0.1709                 0.4130
 Raman Activ --     0.0000                 0.0000                 0.0000
 Depolar     --     0.0000                 0.0000                 0.0000
 Atom AN      X      Y      Z        X      Y      Z        X      Y      Z
   1   6     0.11  -0.09   0.03     0.02  -0.01  -0.01     0.02  -0.08   0.06
   2   6     0.09  -0.02  -0.09     0.10  -0.02  -0.10     0.03  -0.02  -0.09
   3   6    -0.20   0.07   0.02     0.09  -0.04   0.00     0.09  -0.05   0.01
   4   1     0.04  -0.00  -0.02     0.01   0.00  -0.01    -0.05   0.00   0.02
   5   6    -0.02  -0.02  -0.00     0.10   0.08  -0.00     0.04   0.08   0.01
   6   1     0.59  -0.05  -0.23    -0.21   0.02   0.09    -0.23   0.01   0.09
   7   1     0.12  -0.21   0.15    -0.09   0.14  -0.10    -0.10   0.16  -0.11
   8   6    -0.01   0.01   0.01    -0.18  -0.08   0.03     0.15   0.10  -0.01
   9   1     0.01   0.04   0.21     0.01   0.05   0.23     0.00   0.06   0.31
  10   1    -0.34   0.03   0.11    -0.35   0.03   0.11    -0.12   0.01   0.03
  11   6    -0.02   0.00   0.00    -0.01  -0.00   0.00     0.02   0.00  -0.00
  12   1    -0.02  -0.03  -0.01     0.17   0.33   0.07    -0.23  -0.41  -0.08
  13   1     0.07  -0.01  -0.03     0.49  -0.05  -0.19    -0.30   0.04   0.12
  14   1     0.04   0.07   0.01    -0.19  -0.34  -0.06    -0.19  -0.31  -0.05
  15   1     0.03  -0.01  -0.01    -0.16   0.03   0.07     0.04   0.01  -0.01
  16   1    -0.20   0.31  -0.20    -0.01   0.01  -0.01    -0.22   0.33  -0.20
  17   1    -0.20   0.01   0.09    -0.09   0.01   0.04     0.15  -0.02  -0.05
  18  35     0.00  -0.00  -0.00     0.00   0.00  -0.00    -0.00   0.00  -0.00
  19   6    -0.02  -0.01  -0.01    -0.00   0.01  -0.00     0.02   0.00   0.01
  20   8    -0.00   0.00   0.00    -0.00   0.00   0.00     0.00  -0.00  -0.00
  21   1     0.07   0.09   0.00    -0.01  -0.01  -0.00    -0.04  -0.05   0.00
  22   1     0.01  -0.04   0.01     0.01  -0.02   0.01    -0.02   0.04  -0.01
  23   1    -0.00  -0.00   0.01    -0.00   0.00  -0.00    -0.00   0.00  -0.01
                     58                     59                     60
                        a                      a                      a 
 Frequencies --  2971.9664              2976.7280              2978.0182
 Red. masses --     1.5105                 1.6392                 1.5273
 Frc consts  --     0.0000                 0.0000                 0.0000
 IR Inten    --     0.3334                 0.5547                 0.3683
 Raman Activ --     0.0000                 0.0000                 0.0000
 Depolar     --     0.0000                 0.0000                 0.0000
 Atom AN      X      Y      Z        X      Y      Z        X      Y      Z
   1   6     0.00   0.03  -0.03    -0.13  -0.02   0.07     0.03  -0.01  -0.02
   2   6    -0.07   0.01  -0.01    -0.11  -0.01  -0.05    -0.02  -0.02  -0.10
   3   6    -0.05  -0.04   0.07    -0.04   0.05  -0.03    -0.00   0.09  -0.08
   4   1     0.02  -0.00  -0.01     0.04  -0.00  -0.01    -0.00   0.00   0.00
   5   6    -0.09   0.12   0.07    -0.04  -0.01   0.01     0.01   0.01  -0.00
   6   1     0.34  -0.04  -0.12     0.02   0.01  -0.01    -0.23   0.03   0.08
   7   1    -0.15   0.21  -0.13     0.12  -0.19   0.12     0.24  -0.35   0.22
   8   6    -0.00  -0.04  -0.01    -0.11   0.02   0.05     0.05  -0.12  -0.06
   9   1    -0.01   0.02   0.11    -0.02   0.07   0.33    -0.01   0.08   0.41
  10   1     0.25  -0.02  -0.09     0.39  -0.04  -0.15     0.10  -0.01  -0.05
  11   6    -0.01  -0.00   0.00    -0.01   0.00   0.00     0.00  -0.00  -0.00
  12   1     0.08   0.14   0.02    -0.03  -0.03   0.00     0.26   0.41   0.07
  13   1    -0.07  -0.00   0.02     0.42  -0.03  -0.15    -0.44   0.02   0.16
  14   1    -0.25  -0.39  -0.06     0.02   0.04   0.01    -0.03  -0.04  -0.01
  15   1     0.56  -0.04  -0.20     0.11  -0.01  -0.04    -0.00   0.00   0.00
  16   1     0.10  -0.14   0.09    -0.10   0.12  -0.07     0.00   0.00  -0.00
  17   1    -0.11   0.01   0.04     0.55  -0.05  -0.20    -0.12   0.01   0.04
  18  35    -0.00  -0.00   0.00    -0.00   0.00   0.00     0.00  -0.00  -0.00
  19   6    -0.01  -0.01  -0.00    -0.01   0.00  -0.00     0.01  -0.00  -0.00
  20   8    -0.00   0.00   0.00    -0.00   0.00   0.00     0.00   0.00   0.00
  21   1     0.03   0.03   0.00     0.01   0.01  -0.00    -0.02  -0.02  -0.00
  22   1    -0.00  -0.00  -0.00     0.02  -0.03   0.01    -0.01   0.02  -0.01
  23   1    -0.00  -0.00   0.00    -0.00   0.00  -0.00     0.00   0.00   0.01
                     61                     62                     63
                        a                      a                      a 
 Frequencies --  2979.3848              2985.0614              3015.8702
 Red. masses --     1.5384                 1.5682                 1.6667
 Frc consts  --     0.0000                 0.0000                 0.0000
 IR Inten    --     0.4937                 0.2904                 0.1984
 Raman Activ --     0.0000                 0.0000                 0.0000
 Depolar     --     0.0000                 0.0000                 0.0000
 Atom AN      X      Y      Z        X      Y      Z        X      Y      Z
   1   6    -0.04  -0.05   0.06     0.04   0.06  -0.08    -0.00  -0.00   0.00
   2   6    -0.01  -0.00  -0.01    -0.04  -0.03  -0.15     0.00   0.00   0.00
   3   6     0.02  -0.11   0.09     0.02  -0.05   0.04    -0.00   0.00   0.00
   4   1    -0.00  -0.00   0.00    -0.02   0.00   0.01    -0.00   0.00   0.00
   5   6     0.01  -0.08  -0.03     0.01  -0.07  -0.03    -0.00   0.00   0.00
   6   1     0.19  -0.03  -0.06     0.07  -0.01  -0.02     0.00   0.00   0.00
   7   1    -0.28   0.41  -0.26    -0.13   0.19  -0.12    -0.00   0.00  -0.00
   8   6    -0.01  -0.11  -0.04     0.02   0.06   0.02    -0.00   0.00   0.00
   9   1    -0.00   0.01   0.06    -0.01   0.12   0.61     0.00  -0.00  -0.01
  10   1     0.05  -0.01  -0.02     0.17  -0.02  -0.08    -0.00   0.00   0.00
  11   6     0.00  -0.01   0.00     0.01  -0.00   0.00     0.00   0.00   0.00
  12   1     0.24   0.39   0.07    -0.14  -0.23  -0.04    -0.00  -0.01  -0.00
  13   1    -0.23   0.00   0.08     0.08   0.00  -0.03     0.01  -0.00  -0.00
  14   1     0.16   0.26   0.04     0.16   0.25   0.04    -0.00  -0.00  -0.00
  15   1    -0.18   0.01   0.07    -0.21   0.01   0.07     0.00  -0.00  -0.00
  16   1    -0.15   0.22  -0.13     0.17  -0.25   0.15    -0.00   0.00  -0.00
  17   1     0.29  -0.03  -0.10    -0.31   0.03   0.11     0.00  -0.00  -0.00
  18  35    -0.00   0.00   0.00     0.00  -0.00  -0.00     0.00  -0.00  -0.00
  19   6    -0.00  -0.01  -0.00    -0.01  -0.00  -0.00    -0.09  -0.02  -0.22
  20   8     0.00  -0.00  -0.00    -0.00  -0.00  -0.00     0.00  -0.00  -0.01
  21   1     0.01   0.01   0.00     0.01   0.01   0.00    -0.04  -0.03  -0.03
  22   1    -0.01   0.02  -0.00     0.01  -0.01   0.00    -0.04   0.03  -0.04
  23   1     0.00  -0.00   0.01     0.00   0.00   0.01     0.38   0.09   0.88
