
                                 *****************
                                 * O   R   C   A *
                                 *****************

           --- An Ab Initio, DFT and Semiempirical electronic structure package ---

                  #######################################################
                  #                        -***-                        #
                  #          Department of theory and spectroscopy      #
                  #               Directorship: Frank Neese             #
                  #        Max Planck Institute fuer Kohlenforschung    #
                  #                Kaiser Wilhelm Platz 1               #
                  #                 D-45470 Muelheim/Ruhr               #
                  #                      Germany                        #
                  #                                                     #
                  #                  All rights reserved                #
                  #                        -***-                        #
                  #######################################################


                         Program Version 4.2.1 -  RELEASE  -


 With contributions from (in alphabetic order):
   Daniel Aravena         : Magnetic Suceptibility
   Michael Atanasov       : Ab Initio Ligand Field Theory (pilot matlab implementation)
   Alexander A. Auer      : GIAO ZORA, VPT2
   Ute Becker             : Parallelization
   Giovanni Bistoni       : ED, misc. LED, open-shell LED, HFLD
   Martin Brehm           : Molecular dynamics
   Dmytro Bykov           : SCF Hessian
   Vijay G. Chilkuri      : MRCI spin determinant printing, contributions to CSF-ICE
   Dipayan Datta          : RHF DLPNO-CCSD density
   Achintya Kumar Dutta   : EOM-CC, STEOM-CC
   Dmitry Ganyushin       : Spin-Orbit,Spin-Spin,Magnetic field MRCI
   Miquel Garcia          : C-PCM Hessian, Gaussian charge scheme
   Yang Guo               : DLPNO-NEVPT2, CIM, IAO-localization
   Andreas Hansen         : Spin unrestricted coupled pair/coupled cluster methods
   Benjamin Helmich-Paris : CASSCF linear response (MC-RPA)
   Lee Huntington         : MR-EOM, pCC
   Robert Izsak           : Overlap fitted RIJCOSX, COSX-SCS-MP3, EOM
   Christian Kollmar      : KDIIS, OOCD, Brueckner-CCSD(T), CCSD density
   Simone Kossmann        : Meta GGA functionals, TD-DFT gradient, OOMP2, MP2 Hessian
   Martin Krupicka        : AUTO-CI
   Lucas Lang             : DCDCAS
   Dagmar Lenk            : GEPOL surface, SMD
   Dimitrios Liakos       : Extrapolation schemes; Compound Job, initial MDCI parallelization
   Dimitrios Manganas     : Further ROCIS development; embedding schemes
   Dimitrios Pantazis     : SARC Basis sets
   Taras Petrenko         : DFT Hessian,TD-DFT gradient, ASA, ECA, R-Raman, ABS, FL, XAS/XES, NRVS
   Peter Pinski           : DLPNO-MP2, DLPNO-MP2 Gradient
   Christoph Reimann      : Effective Core Potentials
   Marius Retegan         : Local ZFS, SOC
   Christoph Riplinger    : Optimizer, TS searches, QM/MM, DLPNO-CCSD(T), (RO)-DLPNO pert. Triples
   Tobias Risthaus        : Range-separated hybrids, TD-DFT gradient, RPA, STAB
   Michael Roemelt        : Original ROCIS implementation
   Masaaki Saitow         : Open-shell DLPNO-CCSD energy and density
   Barbara Sandhoefer     : DKH picture change effects
   Avijit Sen             : IP-ROCIS
   Kantharuban Sivalingam : CASSCF convergence, NEVPT2, FIC-MRCI
   Bernardo de Souza      : ESD, SOC TD-DFT
   Georgi Stoychev        : AutoAux, RI-MP2 NMR
   Willem Van den Heuvel  : Paramagnetic NMR
   Boris Wezisla          : Elementary symmetry handling
   Frank Wennmohs         : Technical directorship


 We gratefully acknowledge several colleagues who have allowed us to
 interface, adapt or use parts of their codes:
   Stefan Grimme, W. Hujo, H. Kruse,             : VdW corrections, initial TS optimization,
                  C. Bannwarth                     DFT functionals, gCP, sTDA/sTD-DF
   Ed Valeev, F. Pavosevic, A. Kumar             : LibInt (2-el integral package), F12 methods
   Garnet Chan, S. Sharma, J. Yang, R. Olivares  : DMRG
   Ulf Ekstrom                                   : XCFun DFT Library
   Mihaly Kallay                                 : mrcc  (arbitrary order and MRCC methods)
   Andreas Klamt, Michael Diedenhofen            : otool_cosmo (COSMO solvation model)
   Jiri Pittner, Ondrej Demel                    : Mk-CCSD
   Frank Weinhold                                : gennbo (NPA and NBO analysis)
   Christopher J. Cramer and Donald G. Truhlar   : smd solvation model
   Lars Goerigk                                  : TD-DFT with DH, B97 family of functionals
   V. Asgeirsson, H. Jonsson                     : NEB implementation
   FAccTs GmbH                                   : IRC, NEB, NEB-TS, Multilevel, MM, QM/MM, CI optimization
   S Lehtola, MJT Oliveira, MAL Marques          : LibXC Library


 Your calculation uses the libint2 library for the computation of 2-el integrals
 For citations please refer to: http://libint.valeyev.net

 Your ORCA version has been built with support for libXC version: 4.2.3
 For citations please refer to: https://tddft.org/programs/libxc/

 This ORCA versions uses:
   CBLAS   interface :  Fast vector & matrix operations
   LAPACKE interface :  Fast linear algebra routines
   SCALAPACK package :  Parallel linear algebra routines




***************************************
The coordinates will be read from file: init.xyz
***************************************


Your calculation utilizes the atom-pairwise dispersion correction
based on tight binding partial charges (D4)
Cite in your paper:
E.Caldeweyher, C.Bannwarth, S.Grimme, J.Chem.Phys., (2017), 147, 034112.
E.Caldeweyher, S.Ehlert, A.Hansen, H.Neugebauer, S.Grimme, J.Chem.Phys., (2018), in progress.
   

----- Orbital basis set information -----
Your calculation utilizes the basis: def2-TZVP
   F. Weigend and R. Ahlrichs, Phys. Chem. Chem. Phys. 7, 3297 (2005).

----- AuxJ basis set information -----
Your calculation utilizes the auxiliary basis: def2/J
   F. Weigend, Phys. Chem. Chem. Phys. 8, 1057 (2006).

================================================================================
                                        WARNINGS
                       Please study these warnings very carefully!
================================================================================


INFO   : the flag for use of LIBINT has been found!

================================================================================
                                       INPUT FILE
================================================================================
NAME = argon.inp
|  1> ! BLYP D4 def2-TZVP RI def2/J TightSCF Grid4 FinalGrid5 PrintBasis PrintMOs
|  2> %maxcore 1150
|  3> 
|  4> * xyzfile 0 1 init.xyz
|  5> 
|  6>                          ****END OF INPUT****
================================================================================

                       ****************************
                       * Single Point Calculation *
                       ****************************

---------------------------------
CARTESIAN COORDINATES (ANGSTROEM)
---------------------------------
  Ar     0.000000    0.000000    0.000000

----------------------------
CARTESIAN COORDINATES (A.U.)
----------------------------
  NO LB      ZA    FRAG     MASS         X           Y           Z
   0 Ar   18.0000    0    39.948    0.000000    0.000000    0.000000

--------------------------------
INTERNAL COORDINATES (ANGSTROEM)
--------------------------------
 Ar     0   0   0     0.000000000000     0.00000000     0.00000000

---------------------------
INTERNAL COORDINATES (A.U.)
---------------------------
 Ar     0   0   0     0.000000000000     0.00000000     0.00000000

---------------------
BASIS SET INFORMATION
---------------------
There are 1 groups of distinct atoms

 Group   1 Type Ar  : 14s9p3d1f contracted to 5s5p2d1f pattern {73211/51111/21/1}

Atom   0Ar   basis set group =>   1

-------------------------
BASIS SET IN INPUT FORMAT
-------------------------

 # Basis set for element : Ar
 NewGTO Ar
 S 7 
   1   79111.4229980000      0.0005049164
   2   11864.7460090000      0.0039047223
   3    2700.1642973000      0.0200931026
   4     763.9594348500      0.0788521294
   5     248.4515056100      0.2317384572
   6      88.2835810000      0.4436144476
   7      32.9486070690      0.3602454230
 S 3 
   1     142.5535800000      0.1259085593
   2      44.1636880090      0.5356737519
   3       8.9524995000     -1.2491376486
 S 2 
   1       4.5546920941      0.6744110313
   2       2.1444079001      0.3485376674
 S 1 
   1       0.6070877700      1.0000000000
 S 1 
   1       0.2165143200      1.0000000000
 P 5 
   1     776.7754199800      0.0032356380
   2     183.8010701800      0.0259905340
   3      58.6940031750      0.1210812451
   4      21.7015916950      0.3555746043
   5       8.5821489635      0.6207987312
 P 1 
   1       3.4922679161      1.0000000000
 P 1 
   1       1.2637426998      1.0000000000
 P 1 
   1       0.4660787001      1.0000000000
 P 1 
   1       0.1576600300      1.0000000000
 D 2 
   1       5.5510000000      0.1824627029
   2       1.2350000000      0.9123135143
 D 1 
   1       0.4120000000      1.0000000000
 F 1 
   1       0.8900000000      1.0000000000
  end;

---------------------------------
AUXILIARY/J BASIS SET INFORMATION
---------------------------------
There are 1 groups of distinct atoms

 Group   1 Type Ar  : 14s5p5d2f1g contracted to 8s4p3d1f1g pattern {71111111/2111/311/2/1}

Atom   0Ar   basis set group =>   1

-------------------------------------
AUXILIARY/J BASIS SET IN INPUT FORMAT
-------------------------------------

 # Auxiliary/J basis set for element : Ar
 NewAuxJGTO Ar
 S 7 
   1    9188.5309157000      0.0302419413
   2    3279.0428273000      0.0621099207
   3    1227.6297914000      0.1912101213
   4     481.1823792000      0.3820848304
   5     196.9697695000      0.4189004825
   6      83.9606192000      0.0802353960
   7      37.1435409000     -0.0537207241
 S 1 
   1      16.9892190000      1.0000000000
 S 1 
   1       8.0003093000      1.0000000000
 S 1 
   1       3.8606959000     -1.0000000000
 S 1 
   1       1.8996439000     -1.0000000000
 S 1 
   1       0.9480149000      1.0000000000
 S 1 
   1       0.4771798000      1.0000000000
 S 1 
   1       0.2408781000      1.0000000000
 P 2 
   1      14.1000000000      1.4914967135
   2       5.6300000000     -1.4912874590
 P 1 
   1       2.2200000000      1.0000000000
 P 1 
   1       0.8700000000      1.0000000000
 P 1 
   1       0.3400000000      1.0000000000
 D 3 
   1      32.7000000000     -1.0830508455
   2       8.3700000000      0.5502827403
   3       2.6600000000     -0.5568282843
 D 1 
   1       0.9900000000      1.0000000000
 D 1 
   1       0.3900000000      1.0000000000
 F 2 
   1       1.3800000000      0.5555551478
   2       0.5400000000      0.5555551478
 G 1 
   1       0.8700000000      1.0000000000
  end;

------------------------------------------------------------------------------
                           ORCA GTO INTEGRAL CALCULATION
                           -- RI-GTO INTEGRALS CHOSEN --
------------------------------------------------------------------------------

                         BASIS SET STATISTICS AND STARTUP INFO

Gaussian basis set:
 # of primitive gaussian shells          ...   27
 # of primitive gaussian functions       ...   63
 # of contracted shells                  ...   13
 # of contracted basis functions         ...   37
 Highest angular momentum                ...    3
 Maximum contraction depth               ...    7
Auxiliary gaussian basis set:
 # of primitive gaussian shells          ...   27
 # of primitive gaussian functions       ...   77
 # of contracted shells                  ...   17
 # of contracted aux-basis functions     ...   51
 Highest angular momentum                ...    4
 Maximum contraction depth               ...    7
Ratio of auxiliary to basis functions    ...  1.38
Integral package used                  ... LIBINT
 One Electron integrals                  ... done
 Ordering auxiliary basis shells         ... done
 Integral threshhold             Thresh  ...  2.500e-11
 Primitive cut-off               TCut    ...  2.500e-12
 Pre-screening matrix                    ... done
 Shell pair data                         ... 
 Ordering of the shell pairs             ... done (   0.000 sec) 91 of 91 pairs
 Determination of significant pairs      ... done (   0.000 sec)
 Creation of shell pair data             ... done (   0.000 sec)
 Storage of shell pair data              ... done (   0.000 sec)
 Shell pair data done in (   0.000 sec)
 Computing two index integrals           ... done
 Cholesky decomposition of the V-matrix  ... done


Timings:
 Total evaluation time                   ...   0.118 sec (  0.002 min)
 One electron matrix time                ...   0.004 sec (  0.000 min) =  3.2%
 Schwartz matrix evaluation time         ...   0.089 sec (  0.001 min) = 75.9%
 Two index repulsion integral time       ...   0.001 sec (  0.000 min) =  0.6%
 Cholesky decomposition of V             ...   0.004 sec (  0.000 min) =  3.3%
 Three index repulsion integral time     ...   0.000 sec (  0.000 min) =  0.0%

-------------------------------------------------------------------------------
                                 ORCA SCF
-------------------------------------------------------------------------------

------------
SCF SETTINGS
------------
Hamiltonian:
 Density Functional     Method          .... DFT(GTOs)
 Exchange Functional    Exchange        .... B88
   X-Alpha parameter    XAlpha          ....  0.666667
   Becke's b parameter  XBeta           ....  0.004200
 Correlation Functional Correlation     .... LYP
 Gradients option       PostSCFGGA      .... off
   Density functional embedding theory  .... OFF
   NL short-range parameter             ....  4.000000
 RI-approximation to the Coulomb term is turned on
   Number of auxiliary basis functions  .... 51


General Settings:
 Integral files         IntName         .... argon
 Hartree-Fock type      HFTyp           .... RHF
 Total Charge           Charge          ....    0
 Multiplicity           Mult            ....    1
 Number of Electrons    NEL             ....   18
 Basis Dimension        Dim             ....   37
 Nuclear Repulsion      ENuc            ....      0.0000000000 Eh

Convergence Acceleration:
 DIIS                   CNVDIIS         .... on
   Start iteration      DIISMaxIt       ....    12
   Startup error        DIISStart       ....  0.200000
   # of expansion vecs  DIISMaxEq       ....     5
   Bias factor          DIISBfac        ....   1.050
   Max. coefficient     DIISMaxC        ....  10.000
 Newton-Raphson         CNVNR           .... off
 SOSCF                  CNVSOSCF        .... on
   Start iteration      SOSCFMaxIt      ....   150
   Startup grad/error   SOSCFStart      ....  0.003300
 Level Shifting         CNVShift        .... on
   Level shift para.    LevelShift      ....    0.2500
   Turn off err/grad.   ShiftErr        ....    0.0010
 Zerner damping         CNVZerner       .... off
 Static damping         CNVDamp         .... on
   Fraction old density DampFac         ....    0.7000
   Max. Damping (<1)    DampMax         ....    0.9800
   Min. Damping (>=0)   DampMin         ....    0.0000
   Turn off err/grad.   DampErr         ....    0.1000
 Fernandez-Rico         CNVRico         .... off

SCF Procedure:
 Maximum # iterations   MaxIter         ....   125
 SCF integral mode      SCFMode         .... Direct
   Integral package                     .... LIBINT
 Reset frequency        DirectResetFreq ....    20
 Integral Threshold     Thresh          ....  2.500e-11 Eh
 Primitive CutOff       TCut            ....  2.500e-12 Eh

Convergence Tolerance:
 Convergence Check Mode ConvCheckMode   .... Total+1el-Energy
 Convergence forced     ConvForced      .... 0
 Energy Change          TolE            ....  1.000e-08 Eh
 1-El. energy change                    ....  1.000e-05 Eh
 Orbital Gradient       TolG            ....  1.000e-05
 Orbital Rotation angle TolX            ....  1.000e-05
 DIIS Error             TolErr          ....  5.000e-07


Diagonalization of the overlap matrix:
Smallest eigenvalue                        ... 4.397e-02
Time for diagonalization                   ...    0.001 sec
Threshold for overlap eigenvalues          ... 1.000e-08
Number of eigenvalues below threshold      ... 0
Time for construction of square roots      ...    0.000 sec
Total time needed                          ...    0.001 sec

-------------------
DFT GRID GENERATION
-------------------

General Integration Accuracy     IntAcc      ...  4.670
Radial Grid Type                 RadialGrid  ... Gauss-Chebyshev
Angular Grid (max. acc.)         AngularGrid ... Lebedev-302
Angular grid pruning method      GridPruning ... 3 (G Style)
Weight generation scheme         WeightScheme... Becke
Basis function cutoff            BFCut       ...    1.0000e-11
Integration weight cutoff        WCut        ...    1.0000e-14
Grids for H and He will be reduced by one unit

# of grid points (after initial pruning)     ...   6822 (   0.0 sec)
# of grid points (after weights+screening)   ...   6822 (   0.0 sec)
Grid point division into batches done        ...    0.0 sec
Reduced shell lists constructed in    0.1 sec

Total number of grid points                  ...     6822
Total number of batches                      ...      107
Average number of points per batch           ...       63
Average number of grid points per atom       ...     6822
Average number of shells per batch           ...     9.34 (71.87%)
Average number of basis functions per batch  ...    28.29 (76.45%)
Average number of large shells per batch     ...     8.68 (92.86%)
Average number of large basis fcns per batch ...    26.31 (93.00%)
Maximum spatial batch extension              ...  25.31, 19.50, 17.78 au
Average spatial batch extension              ...   4.90,  4.71,  4.47 au

Time for grid setup =    0.060 sec

------------------------------
INITIAL GUESS: MODEL POTENTIAL
------------------------------
Loading Hartree-Fock densities                     ... done
Calculating cut-offs                               ... done
Setting up the integral package                    ... done
Initializing the effective Hamiltonian             ... done
Starting the Coulomb interaction                   ... done (   0.0 sec)
Reading the grid                                   ... done
Mapping shells                                     ... done
Starting the XC term evaluation                    ... done (   0.0 sec)
  promolecular density results
     # of electrons  =     17.999999794
     EX              =    -30.160978857
     EC              =     -0.750626630
     EX+EC           =    -30.911605487
Transforming the Hamiltonian                       ... done (   0.0 sec)
Diagonalizing the Hamiltonian                      ... done (   0.0 sec)
Back transforming the eigenvectors                 ... done (   0.0 sec)
Now organizing SCF variables                       ... done
                      ------------------
                      INITIAL GUESS DONE (   0.2 sec)
                      ------------------
--------------
SCF ITERATIONS
--------------
ITER       Energy         Delta-E        Max-DP      RMS-DP      [F,P]     Damp
               ***  Starting incremental Fock matrix formation  ***
  0   -527.5314658159   0.000000000000 0.00625295  0.00026808  0.0089771 0.7000
                      *** Initiating the SOSCF procedure ***
                      *** Re-Reading the Fockian *** 
                      *** Removing any level shift *** 
ITER      Energy       Delta-E        Grad      Rot      Max-DP    RMS-DP
  1   -527.53152361  -0.0000577892  0.000648  0.000648  0.013376  0.000592
               *** Restarting incremental Fock matrix formation ***
  2   -527.53156190  -0.0000382912  0.002658  0.003198  0.011434  0.000571
  3   -527.53156229  -0.0000003913  0.002585  0.001593  0.005577  0.000282
  4   -527.53159496  -0.0000326691  0.000041  0.000006  0.000019  0.000001
  5   -527.53159496   0.0000000010  0.000011  0.000001  0.000003  0.000000
                 **** Energy Check signals convergence ****
              ***Rediagonalizing the Fockian in SOSCF/NRSCF***

               *****************************************************
               *                     SUCCESS                       *
               *           SCF CONVERGED AFTER   6 CYCLES          *
               *****************************************************

Setting up the final grid:

General Integration Accuracy     IntAcc      ...  5.010
Radial Grid Type                 RadialGrid  ... Gauss-Chebyshev
Angular Grid (max. acc.)         AngularGrid ... Lebedev-434
Angular grid pruning method      GridPruning ... 3 (G Style)
Weight generation scheme         WeightScheme... Becke
Basis function cutoff            BFCut       ...    1.0000e-11
Integration weight cutoff        WCut        ...    1.0000e-14
Grids for H and He will be reduced by one unit

# of grid points (after initial pruning)     ...  11992 (   0.0 sec)
# of grid points (after weights+screening)   ...  11992 (   0.0 sec)
Grid point division into batches done        ...    0.1 sec
Reduced shell lists constructed in    0.2 sec

Total number of grid points                  ...    11992
Total number of batches                      ...      188
Average number of points per batch           ...       63
Average number of grid points per atom       ...    11992
Average number of shells per batch           ...     9.16 (70.45%)
Average number of basis functions per batch  ...    27.63 (74.69%)
Average number of large shells per batch     ...     8.59 (93.76%)
Average number of large basis fcns per batch ...    26.17 (94.72%)
Maximum spatial batch extension              ...  18.71, 18.71, 18.71 au
Average spatial batch extension              ...   4.14,  4.05,  4.06 au

Final grid set up in    0.2 sec
Final integration                            ... done (   0.0 sec)
Change in XC energy                          ...     0.000099243
Integrated number of electrons               ...    17.999998943
Previous integrated no of electrons          ...    17.999999497

----------------
TOTAL SCF ENERGY
----------------

Total Energy       :         -527.53149572 Eh          -14354.86179 eV

Components:
Nuclear Repulsion  :            0.00000000 Eh               0.00000 eV
Electronic Energy  :         -527.53149572 Eh          -14354.86179 eV
One Electron Energy:         -728.39760788 Eh          -19820.70658 eV
Two Electron Energy:          200.86611217 Eh            5465.84479 eV

Virial components:
Potential Energy   :        -1054.42713176 Eh          -28692.42095 eV
Kinetic Energy     :          526.89563604 Eh           14337.55916 eV
Virial Ratio       :            2.00120680


DFT components:
N(Alpha)           :        8.999999471645 electrons
N(Beta)            :        8.999999471645 electrons
N(Total)           :       17.999998943291 electrons
E(X)               :      -30.149546417541 Eh       
E(C)               :       -0.751604746215 Eh       
E(XC)              :      -30.901151163756 Eh       
DFET-embed. en.    :        0.000000000000 Eh       

---------------
SCF CONVERGENCE
---------------

  Last Energy change         ...   -4.1891e-09  Tolerance :   1.0000e-08
  Last MAX-Density change    ...    1.6303e-08  Tolerance :   1.0000e-07
  Last RMS-Density change    ...    9.5090e-10  Tolerance :   5.0000e-09
  Last Orbital Gradient      ...    1.0092e-08  Tolerance :   1.0000e-05
  Last Orbital Rotation      ...    3.3197e-09  Tolerance :   1.0000e-05

             **** THE GBW FILE WAS UPDATED (argon.gbw) ****
             **** DENSITY FILE WAS UPDATED (argon.scfp) ****
             **** ENERGY FILE WAS UPDATED (argon.en.tmp) ****
             **** THE GBW FILE WAS UPDATED (argon.gbw) ****
             **** DENSITY FILE WAS UPDATED (argon.scfp) ****
----------------
ORBITAL ENERGIES
----------------

  NO   OCC          E(Eh)            E(eV) 
   0   2.0000    -114.222476     -3108.1516 
   1   2.0000     -10.821085      -294.4567 
   2   2.0000      -8.441713      -229.7107 
   3   2.0000      -8.441713      -229.7107 
   4   2.0000      -8.441713      -229.7107 
   5   2.0000      -0.873663       -23.7736 
   6   2.0000      -0.368635       -10.0311 
   7   2.0000      -0.368635       -10.0311 
   8   2.0000      -0.368635       -10.0311 
   9   0.0000       0.371254        10.1023 
  10   0.0000       0.371254        10.1023 
  11   0.0000       0.371254        10.1023 
  12   0.0000       0.425489        11.5781 
  13   0.0000       0.425489        11.5781 
  14   0.0000       0.425489        11.5781 
  15   0.0000       0.425489        11.5781 
  16   0.0000       0.425489        11.5781 
  17   0.0000       0.572270        15.5722 
  18   0.0000       1.898388        51.6578 
  19   0.0000       1.898388        51.6578 
  20   0.0000       1.898388        51.6578 
  21   0.0000       1.898388        51.6578 
  22   0.0000       1.898388        51.6578 
  23   0.0000       2.479057        67.4586 
  24   0.0000       2.479057        67.4586 
  25   0.0000       2.479057        67.4586 
  26   0.0000       2.479057        67.4586 
  27   0.0000       2.479057        67.4586 
  28   0.0000       2.479057        67.4586 
  29   0.0000       2.479057        67.4586 
  30   0.0000       2.516086        68.4662 
  31   0.0000       2.516086        68.4662 
  32   0.0000       2.516086        68.4662 
  33   0.0000      12.474755       339.4553 
  34   0.0000      12.474755       339.4553 
  35   0.0000      12.474755       339.4553 
  36   0.0000      31.160403       847.9177 
------------------
MOLECULAR ORBITALS
------------------
                      0         1         2         3         4         5   
                 -114.22248 -10.82108  -8.44171  -8.44171  -8.44171  -0.87366
                   2.00000   2.00000   2.00000   2.00000   2.00000   2.00000
                  --------  --------  --------  --------  --------  --------
  0Ar  1s        -1.001666 -0.297736 -0.000000  0.000000  0.000000 -0.096109
  0Ar  2s         0.033785 -0.195836 -0.000000  0.000000  0.000000 -0.078046
  0Ar  3s         0.010993  0.849927  0.000000 -0.000000 -0.000000  0.548848
  0Ar  4s        -0.003119  0.032300  0.000000 -0.000000 -0.000000 -0.734879
  0Ar  5s         0.001268 -0.008840  0.000000 -0.000000 -0.000000 -0.479719
  0Ar  1pz        0.000000 -0.000000 -0.121193 -0.034697 -0.692053  0.000000
  0Ar  1px        0.000000 -0.000000 -0.056489 -0.699725  0.044974  0.000000
  0Ar  1py        0.000000 -0.000000  0.690615 -0.063323 -0.117767  0.000000
  0Ar  2pz        0.000000 -0.000000 -0.059487 -0.017031 -0.339691  0.000000
  0Ar  2px        0.000000 -0.000000 -0.027727 -0.343457  0.022075  0.000000
  0Ar  2py        0.000000 -0.000000  0.338985 -0.031082 -0.057805  0.000000
  0Ar  3pz       -0.000000 -0.000000 -0.013433 -0.003846 -0.076705 -0.000000
  0Ar  3px       -0.000000 -0.000000 -0.006261 -0.077555  0.004985 -0.000000
  0Ar  3py        0.000000 -0.000000  0.076545 -0.007018 -0.013053 -0.000000
  0Ar  4pz       -0.000000  0.000000  0.001732  0.000496  0.009891 -0.000000
  0Ar  4px       -0.000000  0.000000  0.000807  0.010001 -0.000643 -0.000000
  0Ar  4py       -0.000000  0.000000 -0.009871  0.000905  0.001683 -0.000000
  0Ar  5pz       -0.000000  0.000000 -0.000520 -0.000149 -0.002969 -0.000000
  0Ar  5px       -0.000000  0.000000 -0.000242 -0.003002  0.000193 -0.000000
  0Ar  5py        0.000000 -0.000000  0.002963 -0.000272 -0.000505 -0.000000
  0Ar  1dz2      -0.000000 -0.000000  0.000000  0.000000 -0.000000 -0.000000
  0Ar  1dxz      -0.000000 -0.000000 -0.000000 -0.000000  0.000000  0.000000
  0Ar  1dyz      -0.000000 -0.000000  0.000000  0.000000 -0.000000  0.000000
  0Ar  1dx2y2     0.000000  0.000000 -0.000000 -0.000000  0.000000  0.000000
  0Ar  1dxy       0.000000  0.000000  0.000000  0.000000  0.000000 -0.000000
  0Ar  2dz2       0.000000  0.000000 -0.000000 -0.000000 -0.000000  0.000000
  0Ar  2dxz       0.000000  0.000000 -0.000000 -0.000000 -0.000000 -0.000000
  0Ar  2dyz      -0.000000  0.000000 -0.000000 -0.000000  0.000000 -0.000000
  0Ar  2dx2y2    -0.000000 -0.000000  0.000000  0.000000 -0.000000 -0.000000
  0Ar  2dxy      -0.000000 -0.000000  0.000000 -0.000000 -0.000000  0.000000
  0Ar  1f0        0.000000 -0.000000  0.000000 -0.000000 -0.000000  0.000000
  0Ar  1f+1      -0.000000  0.000000  0.000000  0.000000 -0.000000 -0.000000
  0Ar  1f-1      -0.000000  0.000000  0.000000 -0.000000 -0.000000 -0.000000
  0Ar  1f+2      -0.000000 -0.000000  0.000000  0.000000  0.000000 -0.000000
  0Ar  1f-2       0.000000 -0.000000  0.000000  0.000000 -0.000000  0.000000
  0Ar  1f+3       0.000000  0.000000  0.000000  0.000000 -0.000000 -0.000000
  0Ar  1f-3       0.000000  0.000000  0.000000 -0.000000 -0.000000 -0.000000
                      6         7         8         9        10        11   
                  -0.36864  -0.36864  -0.36864   0.37125   0.37125   0.37125
                   2.00000   2.00000   2.00000   0.00000   0.00000   0.00000
                  --------  --------  --------  --------  --------  --------
  0Ar  1s        -0.000000  0.000000  0.000000 -0.000000 -0.000000 -0.000000
  0Ar  2s        -0.000000  0.000000  0.000000 -0.000000 -0.000000 -0.000000
  0Ar  3s         0.000000 -0.000000 -0.000000  0.000000  0.000000  0.000000
  0Ar  4s        -0.000000  0.000000  0.000000 -0.000000 -0.000000 -0.000000
  0Ar  5s         0.000000  0.000000  0.000000  0.000000  0.000000  0.000000
  0Ar  1pz       -0.003703  0.225366 -0.008064 -0.168067  0.013835  0.024394
  0Ar  1px       -0.225503 -0.003768 -0.001742 -0.012667 -0.169683  0.008963
  0Ar  1py       -0.001875  0.008034  0.225390 -0.025021 -0.007027 -0.168397
  0Ar  2pz       -0.001708  0.103925 -0.003719 -0.034736  0.002859  0.005042
  0Ar  2px       -0.103988 -0.001738 -0.000803 -0.002618 -0.035070  0.001852
  0Ar  2py       -0.000865  0.003705  0.103936 -0.005171 -0.001452 -0.034805
  0Ar  3pz        0.004644 -0.282578  0.010112  0.077340 -0.006366 -0.011226
  0Ar  3px        0.282749  0.004724  0.002184  0.005829  0.078083 -0.004124
  0Ar  3py        0.002351 -0.010074 -0.282607  0.011514  0.003234  0.077492
  0Ar  4pz        0.008967 -0.545667  0.019526  1.069031 -0.088000 -0.155165
  0Ar  4px        0.545997  0.009123  0.004217  0.080572  1.079308 -0.057009
  0Ar  4py        0.004540 -0.019453 -0.545724  0.159149  0.044696  1.071131
  0Ar  5pz        0.005751 -0.349963  0.012523 -1.340725  0.110366  0.194601
  0Ar  5px        0.350174  0.005851  0.002705 -0.101049 -1.353614  0.071498
  0Ar  5py        0.002912 -0.012476 -0.349999 -0.199597 -0.056056 -1.343358
  0Ar  1dz2       0.000000 -0.000000 -0.000000  0.000000 -0.000000 -0.000000
  0Ar  1dxz       0.000000 -0.000000  0.000000  0.000000  0.000000 -0.000000
  0Ar  1dyz      -0.000000 -0.000000 -0.000000  0.000000  0.000000  0.000000
  0Ar  1dx2y2    -0.000000 -0.000000  0.000000 -0.000000  0.000000 -0.000000
  0Ar  1dxy      -0.000000  0.000000 -0.000000  0.000000  0.000000  0.000000
  0Ar  2dz2      -0.000000  0.000000  0.000000  0.000000 -0.000000 -0.000000
  0Ar  2dxz      -0.000000  0.000000 -0.000000  0.000000  0.000000 -0.000000
  0Ar  2dyz       0.000000  0.000000  0.000000  0.000000  0.000000  0.000000
  0Ar  2dx2y2     0.000000  0.000000 -0.000000 -0.000000  0.000000 -0.000000
  0Ar  2dxy       0.000000 -0.000000 -0.000000  0.000000  0.000000  0.000000
  0Ar  1f0       -0.000000  0.000000 -0.000000 -0.000000  0.000000  0.000000
  0Ar  1f+1       0.000000  0.000000  0.000000 -0.000000  0.000000  0.000000
  0Ar  1f-1      -0.000000 -0.000000 -0.000000 -0.000000  0.000000  0.000000
  0Ar  1f+2      -0.000000 -0.000000 -0.000000 -0.000000 -0.000000  0.000000
  0Ar  1f-2       0.000000  0.000000 -0.000000 -0.000000 -0.000000 -0.000000
  0Ar  1f+3       0.000000  0.000000  0.000000 -0.000000  0.000000 -0.000000
  0Ar  1f-3       0.000000  0.000000  0.000000 -0.000000  0.000000 -0.000000
                     12        13        14        15        16        17   
                   0.42549   0.42549   0.42549   0.42549   0.42549   0.57227
                   0.00000   0.00000   0.00000   0.00000   0.00000   0.00000
                  --------  --------  --------  --------  --------  --------
  0Ar  1s         0.000000  0.000000  0.000000 -0.000000 -0.000000 -0.099395
  0Ar  2s         0.000000  0.000000  0.000000 -0.000000 -0.000000 -0.051943
  0Ar  3s        -0.000000 -0.000000 -0.000000  0.000000  0.000000  0.654777
  0Ar  4s         0.000000  0.000000  0.000000 -0.000000 -0.000000 -2.150929
  0Ar  5s        -0.000000 -0.000000 -0.000000  0.000000  0.000000  1.860177
  0Ar  1pz        0.000000 -0.000000 -0.000000  0.000000  0.000000  0.000000
  0Ar  1px       -0.000000 -0.000000 -0.000000 -0.000000 -0.000000  0.000000
  0Ar  1py        0.000000 -0.000000  0.000000  0.000000 -0.000000  0.000000
  0Ar  2pz        0.000000 -0.000000 -0.000000  0.000000  0.000000 -0.000000
  0Ar  2px        0.000000 -0.000000 -0.000000 -0.000000 -0.000000  0.000000
  0Ar  2py        0.000000 -0.000000  0.000000  0.000000 -0.000000  0.000000
  0Ar  3pz       -0.000000  0.000000  0.000000 -0.000000 -0.000000  0.000000
  0Ar  3px       -0.000000  0.000000  0.000000  0.000000  0.000000 -0.000000
  0Ar  3py       -0.000000  0.000000 -0.000000 -0.000000  0.000000 -0.000000
  0Ar  4pz       -0.000000  0.000000  0.000000 -0.000000 -0.000000 -0.000000
  0Ar  4px        0.000000  0.000000  0.000000  0.000000  0.000000 -0.000000
  0Ar  4py       -0.000000  0.000000 -0.000000 -0.000000  0.000000 -0.000000
  0Ar  5pz        0.000000 -0.000000 -0.000000  0.000000  0.000000  0.000000
  0Ar  5px       -0.000000 -0.000000 -0.000000 -0.000000 -0.000000  0.000000
  0Ar  5py        0.000000 -0.000000  0.000000  0.000000 -0.000000  0.000000
  0Ar  1dz2       0.013743  0.012298 -0.021818  0.064242  0.320250 -0.000000
  0Ar  1dxz      -0.005035 -0.157525 -0.287050  0.007040 -0.014703 -0.000000
  0Ar  1dyz       0.326950  0.001840 -0.006739 -0.021264 -0.010295  0.000000
  0Ar  1dx2y2    -0.018559 -0.022976  0.001713 -0.319810  0.065949 -0.000000
  0Ar  1dxy       0.006950 -0.286368  0.156783  0.024409  0.016484 -0.000000
  0Ar  2dz2       0.032546  0.029124 -0.051668  0.152133  0.758397 -0.000000
  0Ar  2dxz      -0.011924 -0.373042 -0.679776  0.016671 -0.034819 -0.000000
  0Ar  2dyz       0.774263  0.004358 -0.015959 -0.050357 -0.024380  0.000000
  0Ar  2dx2y2    -0.043950 -0.054411  0.004057 -0.757356  0.156177  0.000000
  0Ar  2dxy       0.016458 -0.678159  0.371284  0.057804  0.039036 -0.000000
  0Ar  1f0       -0.000000  0.000000  0.000000  0.000000  0.000000  0.000000
  0Ar  1f+1       0.000000 -0.000000 -0.000000  0.000000  0.000000 -0.000000
  0Ar  1f-1       0.000000  0.000000 -0.000000 -0.000000  0.000000 -0.000000
  0Ar  1f+2      -0.000000 -0.000000 -0.000000 -0.000000  0.000000 -0.000000
  0Ar  1f-2       0.000000 -0.000000  0.000000  0.000000  0.000000  0.000000
  0Ar  1f+3       0.000000 -0.000000  0.000000  0.000000 -0.000000  0.000000
  0Ar  1f-3       0.000000  0.000000 -0.000000  0.000000 -0.000000 -0.000000
                     18        19        20        21        22        23   
                   1.89839   1.89839   1.89839   1.89839   1.89839   2.47906
                   0.00000   0.00000   0.00000   0.00000   0.00000   0.00000
                  --------  --------  --------  --------  --------  --------
  0Ar  1s         0.000000 -0.000000 -0.000000  0.000000 -0.000000  0.000000
  0Ar  2s         0.000000 -0.000000 -0.000000 -0.000000 -0.000000  0.000000
  0Ar  3s        -0.000000  0.000000  0.000000 -0.000000  0.000000 -0.000000
  0Ar  4s         0.000000 -0.000000 -0.000000  0.000000 -0.000000  0.000000
  0Ar  5s        -0.000000  0.000000  0.000000 -0.000000  0.000000 -0.000000
  0Ar  1pz        0.000000 -0.000000 -0.000000 -0.000000  0.000000  0.000000
  0Ar  1px        0.000000 -0.000000 -0.000000  0.000000 -0.000000 -0.000000
  0Ar  1py        0.000000  0.000000  0.000000  0.000000  0.000000  0.000000
  0Ar  2pz        0.000000 -0.000000 -0.000000  0.000000  0.000000  0.000000
  0Ar  2px        0.000000 -0.000000 -0.000000  0.000000 -0.000000 -0.000000
  0Ar  2py       -0.000000  0.000000  0.000000  0.000000  0.000000  0.000000
  0Ar  3pz       -0.000000  0.000000  0.000000  0.000000 -0.000000 -0.000000
  0Ar  3px       -0.000000  0.000000  0.000000 -0.000000  0.000000  0.000000
  0Ar  3py       -0.000000 -0.000000 -0.000000 -0.000000 -0.000000 -0.000000
  0Ar  4pz        0.000000 -0.000000 -0.000000 -0.000000  0.000000  0.000000
  0Ar  4px        0.000000 -0.000000 -0.000000  0.000000 -0.000000 -0.000000
  0Ar  4py        0.000000  0.000000  0.000000  0.000000  0.000000  0.000000
  0Ar  5pz       -0.000000  0.000000  0.000000  0.000000 -0.000000 -0.000000
  0Ar  5px       -0.000000  0.000000  0.000000 -0.000000  0.000000  0.000000
  0Ar  5py       -0.000000 -0.000000 -0.000000 -0.000000 -0.000000 -0.000000
  0Ar  1dz2       0.032522  0.018219  1.012570  0.504998 -0.298389  0.000000
  0Ar  1dxz      -0.825803  0.829648  0.014309 -0.012156 -0.011366 -0.000000
  0Ar  1dyz      -0.020514 -0.038319 -0.144553 -0.359710 -1.103889  0.000000
  0Ar  1dx2y2     0.015766 -0.005240  0.568120 -0.992826  0.249013 -0.000000
  0Ar  1dxy      -0.828897 -0.824987  0.039856  0.021942  0.031672 -0.000000
  0Ar  2dz2      -0.025989 -0.014559 -0.809171 -0.403557  0.238451 -0.000000
  0Ar  2dxz       0.659920 -0.662994 -0.011435  0.009714  0.009083  0.000000
  0Ar  2dyz       0.016393  0.030622  0.115516  0.287453  0.882147 -0.000000
  0Ar  2dx2y2    -0.012599  0.004188 -0.453999  0.793393 -0.198993  0.000000
  0Ar  2dxy       0.662393  0.659269 -0.031850 -0.017534 -0.025310  0.000000
  0Ar  1f0        0.000000 -0.000000  0.000000  0.000000 -0.000000 -0.024304
  0Ar  1f+1      -0.000000  0.000000  0.000000  0.000000 -0.000000  0.341096
  0Ar  1f-1       0.000000  0.000000  0.000000 -0.000000 -0.000000 -0.362329
  0Ar  1f+2      -0.000000  0.000000  0.000000 -0.000000  0.000000 -0.325258
  0Ar  1f-2      -0.000000 -0.000000 -0.000000 -0.000000 -0.000000  0.058747
  0Ar  1f+3      -0.000000 -0.000000 -0.000000  0.000000 -0.000000 -0.671870
  0Ar  1f-3       0.000000  0.000000 -0.000000  0.000000 -0.000000 -0.437181
                     24        25        26        27        28        29   
                   2.47906   2.47906   2.47906   2.47906   2.47906   2.47906
                   0.00000   0.00000   0.00000   0.00000   0.00000   0.00000
                  --------  --------  --------  --------  --------  --------
  0Ar  1s        -0.000000  0.000000  0.000000  0.000000  0.000000 -0.000000
  0Ar  2s        -0.000000 -0.000000  0.000000  0.000000  0.000000 -0.000000
  0Ar  3s         0.000000  0.000000 -0.000000 -0.000000 -0.000000  0.000000
  0Ar  4s        -0.000000 -0.000000  0.000000  0.000000  0.000000 -0.000000
  0Ar  5s         0.000000  0.000000 -0.000000 -0.000000 -0.000000  0.000000
  0Ar  1pz       -0.000000 -0.000000  0.000000 -0.000000 -0.000000  0.000000
  0Ar  1px       -0.000000 -0.000000  0.000000  0.000000 -0.000000 -0.000000
  0Ar  1py        0.000000  0.000000  0.000000 -0.000000  0.000000  0.000000
  0Ar  2pz       -0.000000 -0.000000  0.000000 -0.000000 -0.000000  0.000000
  0Ar  2px       -0.000000 -0.000000  0.000000  0.000000 -0.000000 -0.000000
  0Ar  2py        0.000000  0.000000  0.000000 -0.000000  0.000000  0.000000
  0Ar  3pz        0.000000  0.000000 -0.000000  0.000000  0.000000 -0.000000
  0Ar  3px        0.000000  0.000000 -0.000000 -0.000000  0.000000  0.000000
  0Ar  3py       -0.000000 -0.000000 -0.000000  0.000000 -0.000000 -0.000000
  0Ar  4pz       -0.000000 -0.000000  0.000000 -0.000000 -0.000000  0.000000
  0Ar  4px       -0.000000 -0.000000  0.000000  0.000000 -0.000000 -0.000000
  0Ar  4py        0.000000  0.000000  0.000000 -0.000000  0.000000  0.000000
  0Ar  5pz        0.000000  0.000000 -0.000000  0.000000  0.000000 -0.000000
  0Ar  5px        0.000000  0.000000 -0.000000 -0.000000  0.000000  0.000000
  0Ar  5py       -0.000000 -0.000000 -0.000000  0.000000 -0.000000 -0.000000
  0Ar  1dz2      -0.000000 -0.000000 -0.000000 -0.000000 -0.000000  0.000000
  0Ar  1dxz      -0.000000 -0.000000  0.000000 -0.000000  0.000000  0.000000
  0Ar  1dyz      -0.000000  0.000000 -0.000000  0.000000 -0.000000  0.000000
  0Ar  1dx2y2    -0.000000 -0.000000 -0.000000  0.000000 -0.000000 -0.000000
  0Ar  1dxy       0.000000 -0.000000 -0.000000  0.000000  0.000000  0.000000
  0Ar  2dz2       0.000000  0.000000  0.000000  0.000000 -0.000000 -0.000000
  0Ar  2dxz       0.000000  0.000000 -0.000000  0.000000 -0.000000 -0.000000
  0Ar  2dyz       0.000000 -0.000000  0.000000 -0.000000  0.000000 -0.000000
  0Ar  2dx2y2     0.000000  0.000000 -0.000000 -0.000000  0.000000  0.000000
  0Ar  2dxy      -0.000000  0.000000  0.000000 -0.000000 -0.000000 -0.000000
  0Ar  1f0       -0.020922  0.287978  0.026342  0.826686  0.481476 -0.010850
  0Ar  1f+1       0.365864  0.086696  0.066791  0.422431 -0.747872 -0.007684
  0Ar  1f-1       0.412033 -0.114085  0.823538 -0.032683  0.078407 -0.022365
  0Ar  1f+2       0.272566  0.850663 -0.165217 -0.251487 -0.072990 -0.020446
  0Ar  1f-2       0.016570 -0.013950 -0.015154 -0.022696  0.029356 -0.997233
  0Ar  1f+3      -0.539919 -0.049408  0.017180  0.238323 -0.439460 -0.066482
  0Ar  1f-3       0.574330 -0.412644 -0.537410  0.128512  0.058368 -0.003478
                     30        31        32        33        34        35   
                   2.51609   2.51609   2.51609  12.47476  12.47476  12.47476
                   0.00000   0.00000   0.00000   0.00000   0.00000   0.00000
                  --------  --------  --------  --------  --------  --------
  0Ar  1s         0.000000 -0.000000 -0.000000  0.000000 -0.000000  0.000000
  0Ar  2s        -0.000000  0.000000  0.000000 -0.000000  0.000000 -0.000000
  0Ar  3s        -0.000000  0.000000  0.000000 -0.000000  0.000000 -0.000000
  0Ar  4s        -0.000000 -0.000000 -0.000000  0.000000 -0.000000  0.000000
  0Ar  5s         0.000000  0.000000  0.000000  0.000000  0.000000 -0.000000
  0Ar  1pz        0.330940 -0.002303  0.013770 -1.185198  0.064372  0.070861
  0Ar  1px        0.013473 -0.032994 -0.329311 -0.063537  0.129437 -1.180283
  0Ar  1py       -0.003661 -0.329579  0.032871  0.071610  1.180238  0.125577
  0Ar  2pz        0.398879 -0.002775  0.016597  2.264991 -0.123018 -0.135419
  0Ar  2px        0.016238 -0.039768 -0.396916  0.121423 -0.247362  2.255599
  0Ar  2py       -0.004412 -0.397238  0.039620 -0.136852 -2.255512 -0.239986
  0Ar  3pz       -2.062323  0.014349 -0.085811 -1.952279  0.106034  0.116723
  0Ar  3px       -0.083958  0.205612  2.052174 -0.104659  0.213211 -1.944183
  0Ar  3py        0.022813  2.053841 -0.204846  0.117958  1.944108  0.206853
  0Ar  4pz        2.070944 -0.014409  0.086169  1.003251 -0.054490 -0.059982
  0Ar  4px        0.084309 -0.206471 -2.060753  0.053783 -0.109566  0.999091
  0Ar  4py       -0.022909 -2.062427  0.205702 -0.060617 -0.999052 -0.106299
  0Ar  5pz       -0.774241  0.005387 -0.032215 -0.302319  0.016420  0.018075
  0Ar  5px       -0.031520  0.077191  0.770431 -0.016207  0.033017 -0.301065
  0Ar  5py        0.008565  0.771056 -0.076903  0.018266  0.301054  0.032032
  0Ar  1dz2       0.000000  0.000000  0.000000 -0.000000 -0.000000  0.000000
  0Ar  1dxz       0.000000 -0.000000 -0.000000 -0.000000  0.000000 -0.000000
  0Ar  1dyz       0.000000 -0.000000  0.000000 -0.000000  0.000000  0.000000
  0Ar  1dx2y2     0.000000  0.000000 -0.000000 -0.000000 -0.000000 -0.000000
  0Ar  1dxy      -0.000000 -0.000000 -0.000000 -0.000000  0.000000 -0.000000
  0Ar  2dz2      -0.000000 -0.000000 -0.000000  0.000000  0.000000 -0.000000
  0Ar  2dxz      -0.000000  0.000000  0.000000  0.000000 -0.000000  0.000000
  0Ar  2dyz      -0.000000  0.000000 -0.000000  0.000000 -0.000000 -0.000000
  0Ar  2dx2y2    -0.000000 -0.000000  0.000000 -0.000000  0.000000  0.000000
  0Ar  2dxy       0.000000  0.000000  0.000000  0.000000 -0.000000  0.000000
  0Ar  1f0        0.000000 -0.000000  0.000000  0.000000 -0.000000 -0.000000
  0Ar  1f+1       0.000000  0.000000  0.000000  0.000000  0.000000 -0.000000
  0Ar  1f-1      -0.000000  0.000000 -0.000000  0.000000  0.000000  0.000000
  0Ar  1f+2       0.000000 -0.000000 -0.000000  0.000000 -0.000000  0.000000
  0Ar  1f-2       0.000000 -0.000000  0.000000  0.000000 -0.000000 -0.000000
  0Ar  1f+3      -0.000000 -0.000000  0.000000 -0.000000 -0.000000 -0.000000
  0Ar  1f-3       0.000000 -0.000000  0.000000 -0.000000 -0.000000 -0.000000
                     36   
                  31.16040
                   0.00000
                  --------
  0Ar  1s         0.776516
  0Ar  2s        -2.528048
  0Ar  3s        -3.128163
  0Ar  4s         1.439422
  0Ar  5s        -0.631698
  0Ar  1pz        0.000000
  0Ar  1px        0.000000
  0Ar  1py        0.000000
  0Ar  2pz       -0.000000
  0Ar  2px       -0.000000
  0Ar  2py       -0.000000
  0Ar  3pz        0.000000
  0Ar  3px        0.000000
  0Ar  3py        0.000000
  0Ar  4pz       -0.000000
  0Ar  4px       -0.000000
  0Ar  4py       -0.000000
  0Ar  5pz        0.000000
  0Ar  5px        0.000000
  0Ar  5py        0.000000
  0Ar  1dz2      -0.000000
  0Ar  1dxz      -0.000000
  0Ar  1dyz       0.000000
  0Ar  1dx2y2     0.000000
  0Ar  1dxy      -0.000000
  0Ar  2dz2       0.000000
  0Ar  2dxz       0.000000
  0Ar  2dyz      -0.000000
  0Ar  2dx2y2    -0.000000
  0Ar  2dxy       0.000000
  0Ar  1f0        0.000000
  0Ar  1f+1      -0.000000
  0Ar  1f-1       0.000000
  0Ar  1f+2      -0.000000
  0Ar  1f-2       0.000000
  0Ar  1f+3       0.000000
  0Ar  1f-3      -0.000000



                    ********************************
                    * MULLIKEN POPULATION ANALYSIS *
                    ********************************

-----------------------
MULLIKEN ATOMIC CHARGES
-----------------------
   0 Ar:   -0.000000
Sum of atomic charges:   -0.0000000

--------------------------------
MULLIKEN REDUCED ORBITAL CHARGES
--------------------------------
  0 Ars       :     6.000000  s :     6.000000
      pz      :     4.000000  p :    12.000000
      px      :     4.000000
      py      :     4.000000
      dz2     :     0.000000  d :     0.000000
      dxz     :     0.000000
      dyz     :     0.000000
      dx2y2   :     0.000000
      dxy     :     0.000000
      f0      :     0.000000  f :     0.000000
      f+1     :     0.000000
      f-1     :     0.000000
      f+2     :     0.000000
      f-2     :     0.000000
      f+3     :     0.000000
      f-3     :     0.000000


                     *******************************
                     * LOEWDIN POPULATION ANALYSIS *
                     *******************************

----------------------
LOEWDIN ATOMIC CHARGES
----------------------
   0 Ar:    0.000000

-------------------------------
LOEWDIN REDUCED ORBITAL CHARGES
-------------------------------
  0 Ars       :     6.000000  s :     6.000000
      pz      :     4.000000  p :    12.000000
      px      :     4.000000
      py      :     4.000000
      dz2     :     0.000000  d :     0.000000
      dxz     :     0.000000
      dyz     :     0.000000
      dx2y2   :     0.000000
      dxy     :     0.000000
      f0      :     0.000000  f :     0.000000
      f+1     :     0.000000
      f-1     :     0.000000
      f+2     :     0.000000
      f-2     :     0.000000
      f+3     :     0.000000
      f-3     :     0.000000


                      *****************************
                      * MAYER POPULATION ANALYSIS *
                      *****************************

  NA   - Mulliken gross atomic population
  ZA   - Total nuclear charge
  QA   - Mulliken gross atomic charge
  VA   - Mayer's total valence
  BVA  - Mayer's bonded valence
  FA   - Mayer's free valence

  ATOM       NA         ZA         QA         VA         BVA        FA
  0 Ar    18.0000    18.0000    -0.0000     0.0000     0.0000     0.0000

  Mayer bond orders larger than 0.100000


--------------------------
ATOM BASIS FOR ELEMENT Ar
--------------------------
 NewGTO Ar
 S 14
    1      79111.422997999995         0.000505757460
    2      11864.746009000000         0.003911226221
    3       2700.164297300000         0.020126570573
    4        763.959434850000         0.078983469103
    5        248.451505610000         0.232124451260
    6         88.283581000000         0.444353351965
    7         32.948607069000         0.360845464102
    8        142.553580000000        -0.004253798611
    9         44.163688009000        -0.018097643834
   10          8.952499500000         0.042201896552
   11          4.554692094100        -0.007414033983
   12          2.144407900100        -0.003831595259
   13          0.607087770000         0.003118705789
   14          0.216514320000        -0.001267779318
 S 14
    1      79111.422997999995         0.000150331860
    2      11864.746009000000         0.001162576846
    3       2700.164297300000         0.005982442235
    4        763.959434850000         0.023477126406
    5        248.451505610000         0.068996907152
    6         88.283581000000         0.132080040692
    7         32.948607069000         0.107258071468
    8        142.553580000000         0.024657442326
    9         44.163688009000         0.104904263188
   10          8.952499500000        -0.244626256518
   11          4.554692094100        -0.573199928208
   12          2.144407900100        -0.296231462184
   13          0.607087770000        -0.032300336687
   14          0.216514320000         0.008840142182
 S 14
    1      79111.422997999995         0.000048527040
    2      11864.746009000000         0.000375279153
    3       2700.164297300000         0.001931128991
    4        763.959434850000         0.007578403210
    5        248.451505610000         0.022272162852
    6         88.283581000000         0.042635362906
    7         32.948607069000         0.034622845191
    8        142.553580000000         0.009826624550
    9         44.163688009000         0.041807045288
   10          8.952499500000        -0.097489850976
   11          4.554692094100        -0.370149111498
   12          2.144407900100        -0.191294183982
   13          0.607087770000         0.734879232971
   14          0.216514320000         0.479719260574
 S 14
    1      79111.422997999995         0.000050185997
    2      11864.746009000000         0.000388108535
    3       2700.164297300000         0.001997147024
    4        763.959434850000         0.007837480296
    5        248.451505610000         0.023033564284
    6         88.283581000000         0.044092905515
    7         32.948607069000         0.035806469972
    8        142.553580000000         0.006540124254
    9         44.163688009000         0.027824739765
   10          8.952499500000        -0.064884512034
   11          4.554692094100        -0.441588969896
   12          2.144407900100        -0.228214519576
   13          0.607087770000         2.150929136724
   14          0.216514320000        -1.860176727638
 S 14
    1      79111.422997999995        -0.000392075893
    2      11864.746009000000        -0.003032080862
    3       2700.164297300000        -0.015602623322
    4        763.959434850000        -0.061229970233
    5        248.451505610000        -0.179948708286
    6         88.283581000000        -0.344473885775
    7         32.948607069000        -0.279736472413
    8        142.553580000000         0.318302844437
    9         44.163688009000         1.354208799326
   10          8.952499500000        -3.157879566144
   11          4.554692094100         2.109667345758
   12          2.144407900100         1.090282485747
   13          0.607087770000        -1.439421597925
   14          0.216514320000         0.631698098047
 P 9
    1        776.775419980000         0.002276078534
    2        183.801070180000         0.018282791962
    3         58.694003175000         0.085173440865
    4         21.701591695000         0.250125546009
    5          8.582148963500         0.436694914975
    6          3.492267916100         0.345280410082
    7          1.263742699800         0.077966692847
    8          0.466078700100        -0.010054258870
    9          0.157660030000         0.003017920600
 P 9
    1        776.775419980000         0.000729768213
    2        183.801070180000         0.005861924453
    3         58.694003175000         0.027308754419
    4         21.701591695000         0.080196561750
    5          8.582148963500         0.140015409356
    6          3.492267916100         0.104005148350
    7          1.263742699800        -0.282796517001
    8          0.466078700100        -0.546089675611
    9          0.157660030000        -0.350233776560
 P 9
    1        776.775419980000         0.000551323868
    2        183.801070180000         0.004428555268
    3         58.694003175000         0.020631164594
    4         21.701591695000         0.060586742257
    5          8.582148963500         0.105778568725
    6          3.492267916100         0.035216563695
    7          1.263742699800        -0.078409275986
    8          0.466078700100        -1.083811477495
    9          0.157660030000         1.359261785440
 P 9
    1        776.775419980000         0.001071753991
    2        183.801070180000         0.008608953938
    3         58.694003175000         0.040106250219
    4         21.701591695000         0.117778472168
    5          8.582148963500         0.205629775566
    6          3.492267916100         0.399233672834
    7          1.263742699800        -2.064157233562
    8          0.466078700100         2.072786256496
    9          0.157660030000        -0.774929404997
 P 9
    1        776.775419980000         0.003847361869
    2        183.801070180000         0.030904257301
    3         58.694003175000         0.143972645816
    4         21.701591695000         0.422798894577
    5          8.582148963500         0.738165814189
    6          3.492267916100        -2.272368163455
    7          1.263742699800         1.958637015103
    8          0.466078700100        -1.006518547812
    9          0.157660030000         0.303303665071
 D 3
    1          5.551000000000         0.059825259039
    2          1.235000000000         0.299126295196
    3          0.412000000000         0.776458411201
 D 3
    1          5.551000000000         0.213625375597
    2          1.235000000000         1.068126877983
    3          0.412000000000        -0.935608335389
 F 1
    1          0.890000000000         1.000000000000
 end
  // -----------------------------------------------
  // The basis set
  // -----------------------------------------------
  BAS[ATNO] = new BFNGauss[NSH];
  // Basis function   1 L = s
  InitBFNGauss(BAS[ATNO][  0]);
  BAS[ATNO][  0].l  = 0;
  BAS[ATNO][  0].ng = 14;
  BAS[ATNO][  0].a[  0] =     79111.422997999995;     BAS[ATNO][  0].d[  0] =         0.000505757460;
  BAS[ATNO][  0].a[  1] =     11864.746009000000;     BAS[ATNO][  0].d[  1] =         0.003911226221;
  BAS[ATNO][  0].a[  2] =      2700.164297300000;     BAS[ATNO][  0].d[  2] =         0.020126570573;
  BAS[ATNO][  0].a[  3] =       763.959434850000;     BAS[ATNO][  0].d[  3] =         0.078983469103;
  BAS[ATNO][  0].a[  4] =       248.451505610000;     BAS[ATNO][  0].d[  4] =         0.232124451260;
  BAS[ATNO][  0].a[  5] =        88.283581000000;     BAS[ATNO][  0].d[  5] =         0.444353351965;
  BAS[ATNO][  0].a[  6] =        32.948607069000;     BAS[ATNO][  0].d[  6] =         0.360845464102;
  BAS[ATNO][  0].a[  7] =       142.553580000000;     BAS[ATNO][  0].d[  7] =        -0.004253798611;
  BAS[ATNO][  0].a[  8] =        44.163688009000;     BAS[ATNO][  0].d[  8] =        -0.018097643834;
  BAS[ATNO][  0].a[  9] =         8.952499500000;     BAS[ATNO][  0].d[  9] =         0.042201896552;
  BAS[ATNO][  0].a[ 10] =         4.554692094100;     BAS[ATNO][  0].d[ 10] =        -0.007414033983;
  BAS[ATNO][  0].a[ 11] =         2.144407900100;     BAS[ATNO][  0].d[ 11] =        -0.003831595259;
  BAS[ATNO][  0].a[ 12] =         0.607087770000;     BAS[ATNO][  0].d[ 12] =         0.003118705789;
  BAS[ATNO][  0].a[ 13] =         0.216514320000;     BAS[ATNO][  0].d[ 13] =        -0.001267779318;

  // Basis function   2 L = s
  InitBFNGauss(BAS[ATNO][  1]);
  BAS[ATNO][  1].l  = 0;
  BAS[ATNO][  1].ng = 14;
  BAS[ATNO][  1].a[  0] =     79111.422997999995;     BAS[ATNO][  1].d[  0] =        -0.000150331860;
  BAS[ATNO][  1].a[  1] =     11864.746009000000;     BAS[ATNO][  1].d[  1] =        -0.001162576846;
  BAS[ATNO][  1].a[  2] =      2700.164297300000;     BAS[ATNO][  1].d[  2] =        -0.005982442235;
  BAS[ATNO][  1].a[  3] =       763.959434850000;     BAS[ATNO][  1].d[  3] =        -0.023477126406;
  BAS[ATNO][  1].a[  4] =       248.451505610000;     BAS[ATNO][  1].d[  4] =        -0.068996907152;
  BAS[ATNO][  1].a[  5] =        88.283581000000;     BAS[ATNO][  1].d[  5] =        -0.132080040692;
  BAS[ATNO][  1].a[  6] =        32.948607069000;     BAS[ATNO][  1].d[  6] =        -0.107258071468;
  BAS[ATNO][  1].a[  7] =       142.553580000000;     BAS[ATNO][  1].d[  7] =        -0.024657442326;
  BAS[ATNO][  1].a[  8] =        44.163688009000;     BAS[ATNO][  1].d[  8] =        -0.104904263188;
  BAS[ATNO][  1].a[  9] =         8.952499500000;     BAS[ATNO][  1].d[  9] =         0.244626256518;
  BAS[ATNO][  1].a[ 10] =         4.554692094100;     BAS[ATNO][  1].d[ 10] =         0.573199928208;
  BAS[ATNO][  1].a[ 11] =         2.144407900100;     BAS[ATNO][  1].d[ 11] =         0.296231462184;
  BAS[ATNO][  1].a[ 12] =         0.607087770000;     BAS[ATNO][  1].d[ 12] =         0.032300336687;
  BAS[ATNO][  1].a[ 13] =         0.216514320000;     BAS[ATNO][  1].d[ 13] =        -0.008840142182;

  // Basis function   3 L = s
  InitBFNGauss(BAS[ATNO][  2]);
  BAS[ATNO][  2].l  = 0;
  BAS[ATNO][  2].ng = 14;
  BAS[ATNO][  2].a[  0] =     79111.422997999995;     BAS[ATNO][  2].d[  0] =         0.000048527040;
  BAS[ATNO][  2].a[  1] =     11864.746009000000;     BAS[ATNO][  2].d[  1] =         0.000375279153;
  BAS[ATNO][  2].a[  2] =      2700.164297300000;     BAS[ATNO][  2].d[  2] =         0.001931128991;
  BAS[ATNO][  2].a[  3] =       763.959434850000;     BAS[ATNO][  2].d[  3] =         0.007578403210;
  BAS[ATNO][  2].a[  4] =       248.451505610000;     BAS[ATNO][  2].d[  4] =         0.022272162852;
  BAS[ATNO][  2].a[  5] =        88.283581000000;     BAS[ATNO][  2].d[  5] =         0.042635362906;
  BAS[ATNO][  2].a[  6] =        32.948607069000;     BAS[ATNO][  2].d[  6] =         0.034622845191;
  BAS[ATNO][  2].a[  7] =       142.553580000000;     BAS[ATNO][  2].d[  7] =         0.009826624550;
  BAS[ATNO][  2].a[  8] =        44.163688009000;     BAS[ATNO][  2].d[  8] =         0.041807045288;
  BAS[ATNO][  2].a[  9] =         8.952499500000;     BAS[ATNO][  2].d[  9] =        -0.097489850976;
  BAS[ATNO][  2].a[ 10] =         4.554692094100;     BAS[ATNO][  2].d[ 10] =        -0.370149111498;
  BAS[ATNO][  2].a[ 11] =         2.144407900100;     BAS[ATNO][  2].d[ 11] =        -0.191294183982;
  BAS[ATNO][  2].a[ 12] =         0.607087770000;     BAS[ATNO][  2].d[ 12] =         0.734879232971;
  BAS[ATNO][  2].a[ 13] =         0.216514320000;     BAS[ATNO][  2].d[ 13] =         0.479719260574;

  // Basis function   4 L = s
  InitBFNGauss(BAS[ATNO][  3]);
  BAS[ATNO][  3].l  = 0;
  BAS[ATNO][  3].ng = 14;
  BAS[ATNO][  3].a[  0] =     79111.422997999995;     BAS[ATNO][  3].d[  0] =         0.000050185997;
  BAS[ATNO][  3].a[  1] =     11864.746009000000;     BAS[ATNO][  3].d[  1] =         0.000388108535;
  BAS[ATNO][  3].a[  2] =      2700.164297300000;     BAS[ATNO][  3].d[  2] =         0.001997147024;
  BAS[ATNO][  3].a[  3] =       763.959434850000;     BAS[ATNO][  3].d[  3] =         0.007837480296;
  BAS[ATNO][  3].a[  4] =       248.451505610000;     BAS[ATNO][  3].d[  4] =         0.023033564284;
  BAS[ATNO][  3].a[  5] =        88.283581000000;     BAS[ATNO][  3].d[  5] =         0.044092905515;
  BAS[ATNO][  3].a[  6] =        32.948607069000;     BAS[ATNO][  3].d[  6] =         0.035806469972;
  BAS[ATNO][  3].a[  7] =       142.553580000000;     BAS[ATNO][  3].d[  7] =         0.006540124254;
  BAS[ATNO][  3].a[  8] =        44.163688009000;     BAS[ATNO][  3].d[  8] =         0.027824739765;
  BAS[ATNO][  3].a[  9] =         8.952499500000;     BAS[ATNO][  3].d[  9] =        -0.064884512034;
  BAS[ATNO][  3].a[ 10] =         4.554692094100;     BAS[ATNO][  3].d[ 10] =        -0.441588969896;
  BAS[ATNO][  3].a[ 11] =         2.144407900100;     BAS[ATNO][  3].d[ 11] =        -0.228214519576;
  BAS[ATNO][  3].a[ 12] =         0.607087770000;     BAS[ATNO][  3].d[ 12] =         2.150929136724;
  BAS[ATNO][  3].a[ 13] =         0.216514320000;     BAS[ATNO][  3].d[ 13] =        -1.860176727638;

  // Basis function   5 L = s
  InitBFNGauss(BAS[ATNO][  4]);
  BAS[ATNO][  4].l  = 0;
  BAS[ATNO][  4].ng = 14;
  BAS[ATNO][  4].a[  0] =     79111.422997999995;     BAS[ATNO][  4].d[  0] =         0.000392075893;
  BAS[ATNO][  4].a[  1] =     11864.746009000000;     BAS[ATNO][  4].d[  1] =         0.003032080862;
  BAS[ATNO][  4].a[  2] =      2700.164297300000;     BAS[ATNO][  4].d[  2] =         0.015602623322;
  BAS[ATNO][  4].a[  3] =       763.959434850000;     BAS[ATNO][  4].d[  3] =         0.061229970233;
  BAS[ATNO][  4].a[  4] =       248.451505610000;     BAS[ATNO][  4].d[  4] =         0.179948708286;
  BAS[ATNO][  4].a[  5] =        88.283581000000;     BAS[ATNO][  4].d[  5] =         0.344473885775;
  BAS[ATNO][  4].a[  6] =        32.948607069000;     BAS[ATNO][  4].d[  6] =         0.279736472413;
  BAS[ATNO][  4].a[  7] =       142.553580000000;     BAS[ATNO][  4].d[  7] =        -0.318302844437;
  BAS[ATNO][  4].a[  8] =        44.163688009000;     BAS[ATNO][  4].d[  8] =        -1.354208799326;
  BAS[ATNO][  4].a[  9] =         8.952499500000;     BAS[ATNO][  4].d[  9] =         3.157879566144;
  BAS[ATNO][  4].a[ 10] =         4.554692094100;     BAS[ATNO][  4].d[ 10] =        -2.109667345758;
  BAS[ATNO][  4].a[ 11] =         2.144407900100;     BAS[ATNO][  4].d[ 11] =        -1.090282485747;
  BAS[ATNO][  4].a[ 12] =         0.607087770000;     BAS[ATNO][  4].d[ 12] =         1.439421597925;
  BAS[ATNO][  4].a[ 13] =         0.216514320000;     BAS[ATNO][  4].d[ 13] =        -0.631698098047;

  // Basis function   6 L = p
  InitBFNGauss(BAS[ATNO][  5]);
  BAS[ATNO][  5].l  = 1;
  BAS[ATNO][  5].ng = 9;
  BAS[ATNO][  5].a[  0] =       776.775419980000;     BAS[ATNO][  5].d[  0] =         0.002276078534;
  BAS[ATNO][  5].a[  1] =       183.801070180000;     BAS[ATNO][  5].d[  1] =         0.018282791962;
  BAS[ATNO][  5].a[  2] =        58.694003175000;     BAS[ATNO][  5].d[  2] =         0.085173440865;
  BAS[ATNO][  5].a[  3] =        21.701591695000;     BAS[ATNO][  5].d[  3] =         0.250125546009;
  BAS[ATNO][  5].a[  4] =         8.582148963500;     BAS[ATNO][  5].d[  4] =         0.436694914975;
  BAS[ATNO][  5].a[  5] =         3.492267916100;     BAS[ATNO][  5].d[  5] =         0.345280410082;
  BAS[ATNO][  5].a[  6] =         1.263742699800;     BAS[ATNO][  5].d[  6] =         0.077966692847;
  BAS[ATNO][  5].a[  7] =         0.466078700100;     BAS[ATNO][  5].d[  7] =        -0.010054258870;
  BAS[ATNO][  5].a[  8] =         0.157660030000;     BAS[ATNO][  5].d[  8] =         0.003017920600;

  // Basis function   7 L = p
  InitBFNGauss(BAS[ATNO][  6]);
  BAS[ATNO][  6].l  = 1;
  BAS[ATNO][  6].ng = 9;
  BAS[ATNO][  6].a[  0] =       776.775419980000;     BAS[ATNO][  6].d[  0] =        -0.000729768213;
  BAS[ATNO][  6].a[  1] =       183.801070180000;     BAS[ATNO][  6].d[  1] =        -0.005861924453;
  BAS[ATNO][  6].a[  2] =        58.694003175000;     BAS[ATNO][  6].d[  2] =        -0.027308754419;
  BAS[ATNO][  6].a[  3] =        21.701591695000;     BAS[ATNO][  6].d[  3] =        -0.080196561750;
  BAS[ATNO][  6].a[  4] =         8.582148963500;     BAS[ATNO][  6].d[  4] =        -0.140015409356;
  BAS[ATNO][  6].a[  5] =         3.492267916100;     BAS[ATNO][  6].d[  5] =        -0.104005148350;
  BAS[ATNO][  6].a[  6] =         1.263742699800;     BAS[ATNO][  6].d[  6] =         0.282796517001;
  BAS[ATNO][  6].a[  7] =         0.466078700100;     BAS[ATNO][  6].d[  7] =         0.546089675611;
  BAS[ATNO][  6].a[  8] =         0.157660030000;     BAS[ATNO][  6].d[  8] =         0.350233776560;

  // Basis function   8 L = p
  InitBFNGauss(BAS[ATNO][  7]);
  BAS[ATNO][  7].l  = 1;
  BAS[ATNO][  7].ng = 9;
  BAS[ATNO][  7].a[  0] =       776.775419980000;     BAS[ATNO][  7].d[  0] =         0.000551323868;
  BAS[ATNO][  7].a[  1] =       183.801070180000;     BAS[ATNO][  7].d[  1] =         0.004428555268;
  BAS[ATNO][  7].a[  2] =        58.694003175000;     BAS[ATNO][  7].d[  2] =         0.020631164594;
  BAS[ATNO][  7].a[  3] =        21.701591695000;     BAS[ATNO][  7].d[  3] =         0.060586742257;
  BAS[ATNO][  7].a[  4] =         8.582148963500;     BAS[ATNO][  7].d[  4] =         0.105778568725;
  BAS[ATNO][  7].a[  5] =         3.492267916100;     BAS[ATNO][  7].d[  5] =         0.035216563695;
  BAS[ATNO][  7].a[  6] =         1.263742699800;     BAS[ATNO][  7].d[  6] =        -0.078409275986;
  BAS[ATNO][  7].a[  7] =         0.466078700100;     BAS[ATNO][  7].d[  7] =        -1.083811477495;
  BAS[ATNO][  7].a[  8] =         0.157660030000;     BAS[ATNO][  7].d[  8] =         1.359261785440;

  // Basis function   9 L = p
  InitBFNGauss(BAS[ATNO][  8]);
  BAS[ATNO][  8].l  = 1;
  BAS[ATNO][  8].ng = 9;
  BAS[ATNO][  8].a[  0] =       776.775419980000;     BAS[ATNO][  8].d[  0] =         0.001071753991;
  BAS[ATNO][  8].a[  1] =       183.801070180000;     BAS[ATNO][  8].d[  1] =         0.008608953938;
  BAS[ATNO][  8].a[  2] =        58.694003175000;     BAS[ATNO][  8].d[  2] =         0.040106250219;
  BAS[ATNO][  8].a[  3] =        21.701591695000;     BAS[ATNO][  8].d[  3] =         0.117778472168;
  BAS[ATNO][  8].a[  4] =         8.582148963500;     BAS[ATNO][  8].d[  4] =         0.205629775566;
  BAS[ATNO][  8].a[  5] =         3.492267916100;     BAS[ATNO][  8].d[  5] =         0.399233672834;
  BAS[ATNO][  8].a[  6] =         1.263742699800;     BAS[ATNO][  8].d[  6] =        -2.064157233562;
  BAS[ATNO][  8].a[  7] =         0.466078700100;     BAS[ATNO][  8].d[  7] =         2.072786256496;
  BAS[ATNO][  8].a[  8] =         0.157660030000;     BAS[ATNO][  8].d[  8] =        -0.774929404997;

  // Basis function  10 L = p
  InitBFNGauss(BAS[ATNO][  9]);
  BAS[ATNO][  9].l  = 1;
  BAS[ATNO][  9].ng = 9;
  BAS[ATNO][  9].a[  0] =       776.775419980000;     BAS[ATNO][  9].d[  0] =        -0.003847361869;
  BAS[ATNO][  9].a[  1] =       183.801070180000;     BAS[ATNO][  9].d[  1] =        -0.030904257301;
  BAS[ATNO][  9].a[  2] =        58.694003175000;     BAS[ATNO][  9].d[  2] =        -0.143972645816;
  BAS[ATNO][  9].a[  3] =        21.701591695000;     BAS[ATNO][  9].d[  3] =        -0.422798894577;
  BAS[ATNO][  9].a[  4] =         8.582148963500;     BAS[ATNO][  9].d[  4] =        -0.738165814189;
  BAS[ATNO][  9].a[  5] =         3.492267916100;     BAS[ATNO][  9].d[  5] =         2.272368163455;
  BAS[ATNO][  9].a[  6] =         1.263742699800;     BAS[ATNO][  9].d[  6] =        -1.958637015103;
  BAS[ATNO][  9].a[  7] =         0.466078700100;     BAS[ATNO][  9].d[  7] =         1.006518547812;
  BAS[ATNO][  9].a[  8] =         0.157660030000;     BAS[ATNO][  9].d[  8] =        -0.303303665071;

  // Basis function  11 L = d
  InitBFNGauss(BAS[ATNO][ 10]);
  BAS[ATNO][ 10].l  = 2;
  BAS[ATNO][ 10].ng = 3;
  BAS[ATNO][ 10].a[  0] =         5.551000000000;     BAS[ATNO][ 10].d[  0] =         0.059825259039;
  BAS[ATNO][ 10].a[  1] =         1.235000000000;     BAS[ATNO][ 10].d[  1] =         0.299126295196;
  BAS[ATNO][ 10].a[  2] =         0.412000000000;     BAS[ATNO][ 10].d[  2] =         0.776458411201;

  // Basis function  12 L = d
  InitBFNGauss(BAS[ATNO][ 11]);
  BAS[ATNO][ 11].l  = 2;
  BAS[ATNO][ 11].ng = 3;
  BAS[ATNO][ 11].a[  0] =         5.551000000000;     BAS[ATNO][ 11].d[  0] =         0.213625375597;
  BAS[ATNO][ 11].a[  1] =         1.235000000000;     BAS[ATNO][ 11].d[  1] =         1.068126877983;
  BAS[ATNO][ 11].a[  2] =         0.412000000000;     BAS[ATNO][ 11].d[  2] =        -0.935608335389;

  // Basis function  13 L = f
  InitBFNGauss(BAS[ATNO][ 12]);
  BAS[ATNO][ 12].l  = 3;
  BAS[ATNO][ 12].ng = 1;
  BAS[ATNO][ 12].a[  0] =         0.890000000000;     BAS[ATNO][ 12].d[  0] =         1.000000000000;

-------
TIMINGS
-------

Total SCF time: 0 days 0 hours 0 min 1 sec 

Total time                  ....       1.161 sec
Sum of individual times     ....       1.079 sec  ( 92.9%)

Fock matrix formation       ....       0.731 sec  ( 62.9%)
  Split-RI-J                ....       0.503 sec  ( 68.9% of F)
  XC integration            ....       0.222 sec  ( 30.3% of F)
    Basis function eval.    ....       0.069 sec  ( 31.1% of XC)
    Density eval.           ....       0.056 sec  ( 25.4% of XC)
    XC-Functional eval.     ....       0.032 sec  ( 14.6% of XC)
    XC-Potential eval.      ....       0.052 sec  ( 23.3% of XC)
Diagonalization             ....       0.001 sec  (  0.1%)
Density matrix formation    ....       0.000 sec  (  0.0%)
Population analysis         ....       0.001 sec  (  0.0%)
Initial guess               ....       0.105 sec  (  9.0%)
Orbital Transformation      ....       0.000 sec  (  0.0%)
Orbital Orthonormalization  ....       0.000 sec  (  0.0%)
DIIS solution               ....       0.000 sec  (  0.0%)
SOSCF solution              ....       0.019 sec  (  1.6%)
Grid generation             ....       0.223 sec  ( 19.2%)


-------------------------------------------------------------------------------
                          DFT DISPERSION CORRECTION                            
                                                                               
                                 DFTD4 V2.0                                    
-------------------------------------------------------------------------------
The BLYP functional is recognized
Active option DFTDOPT                   ...         5   

-------------------------   ----------------
Dispersion correction            0.000000000
-------------------------   ----------------


-------------------------   --------------------
FINAL SINGLE POINT ENERGY      -527.531495716438
-------------------------   --------------------


                            ***************************************
                            *     ORCA property calculations      *
                            ***************************************

                                    ---------------------
                                    Active property flags
                                    ---------------------
   (+) Dipole Moment


------------------------------------------------------------------------------
                       ORCA ELECTRIC PROPERTIES CALCULATION
------------------------------------------------------------------------------

Dipole Moment Calculation                       ... on
Quadrupole Moment Calculation                   ... off
Polarizability Calculation                      ... off
GBWName                                         ... argon.gbw
Electron density file                           ... argon.scfp
The origin for moment calculation is the CENTER OF MASS  = ( 0.000000,  0.000000  0.000000)

-------------
DIPOLE MOMENT
-------------
                                X             Y             Z
Electronic contribution:     -0.00000      -0.00000      -0.00000
Nuclear contribution   :      0.00000       0.00000       0.00000
                        -----------------------------------------
Total Dipole Moment    :     -0.00000      -0.00000      -0.00000
                        -----------------------------------------
Magnitude (a.u.)       :      0.00000
Magnitude (Debye)      :      0.00000



--------------------
Rotational spectrum 
--------------------
 
Rotational constants in cm-1:     0.000000     0.000000     0.000000 
Rotational constants in MHz :     0.000000     0.000000     0.000000 

 Dipole components along the rotational axes: 
x,y,z [a.u.] :    -0.000000    -0.000000    -0.000000 
x,y,z [Debye]:    -0.000000    -0.000000    -0.000000 

 

Timings for individual modules:

Sum of individual times         ...        1.317 sec (=   0.022 min)
GTO integral calculation        ...        0.141 sec (=   0.002 min)  10.7 %
SCF iterations                  ...        1.176 sec (=   0.020 min)  89.3 %
                             ****ORCA TERMINATED NORMALLY****
TOTAL RUN TIME: 0 days 0 hours 0 minutes 2 seconds 42 msec
