
                                 *****************
                                 * O   R   C   A *
                                 *****************

           --- An Ab Initio, DFT and Semiempirical electronic structure package ---

                  #######################################################
                  #                        -***-                        #
                  #          Department of theory and spectroscopy      #
                  #               Directorship: Frank Neese             #
                  #        Max Planck Institute fuer Kohlenforschung    #
                  #                Kaiser Wilhelm Platz 1               #
                  #                 D-45470 Muelheim/Ruhr               #
                  #                      Germany                        #
                  #                                                     #
                  #                  All rights reserved                #
                  #                        -***-                        #
                  #######################################################


                         Program Version 4.2.1 -  RELEASE  -


 With contributions from (in alphabetic order):
   Daniel Aravena         : Magnetic Suceptibility
   Michael Atanasov       : Ab Initio Ligand Field Theory (pilot matlab implementation)
   Alexander A. Auer      : GIAO ZORA, VPT2
   Ute Becker             : Parallelization
   Giovanni Bistoni       : ED, misc. LED, open-shell LED, HFLD
   Martin Brehm           : Molecular dynamics
   Dmytro Bykov           : SCF Hessian
   Vijay G. Chilkuri      : MRCI spin determinant printing, contributions to CSF-ICE
   Dipayan Datta          : RHF DLPNO-CCSD density
   Achintya Kumar Dutta   : EOM-CC, STEOM-CC
   Dmitry Ganyushin       : Spin-Orbit,Spin-Spin,Magnetic field MRCI
   Miquel Garcia          : C-PCM Hessian, Gaussian charge scheme
   Yang Guo               : DLPNO-NEVPT2, CIM, IAO-localization
   Andreas Hansen         : Spin unrestricted coupled pair/coupled cluster methods
   Benjamin Helmich-Paris : CASSCF linear response (MC-RPA)
   Lee Huntington         : MR-EOM, pCC
   Robert Izsak           : Overlap fitted RIJCOSX, COSX-SCS-MP3, EOM
   Christian Kollmar      : KDIIS, OOCD, Brueckner-CCSD(T), CCSD density
   Simone Kossmann        : Meta GGA functionals, TD-DFT gradient, OOMP2, MP2 Hessian
   Martin Krupicka        : AUTO-CI
   Lucas Lang             : DCDCAS
   Dagmar Lenk            : GEPOL surface, SMD
   Dimitrios Liakos       : Extrapolation schemes; Compound Job, initial MDCI parallelization
   Dimitrios Manganas     : Further ROCIS development; embedding schemes
   Dimitrios Pantazis     : SARC Basis sets
   Taras Petrenko         : DFT Hessian,TD-DFT gradient, ASA, ECA, R-Raman, ABS, FL, XAS/XES, NRVS
   Peter Pinski           : DLPNO-MP2, DLPNO-MP2 Gradient
   Christoph Reimann      : Effective Core Potentials
   Marius Retegan         : Local ZFS, SOC
   Christoph Riplinger    : Optimizer, TS searches, QM/MM, DLPNO-CCSD(T), (RO)-DLPNO pert. Triples
   Tobias Risthaus        : Range-separated hybrids, TD-DFT gradient, RPA, STAB
   Michael Roemelt        : Original ROCIS implementation
   Masaaki Saitow         : Open-shell DLPNO-CCSD energy and density
   Barbara Sandhoefer     : DKH picture change effects
   Avijit Sen             : IP-ROCIS
   Kantharuban Sivalingam : CASSCF convergence, NEVPT2, FIC-MRCI
   Bernardo de Souza      : ESD, SOC TD-DFT
   Georgi Stoychev        : AutoAux, RI-MP2 NMR
   Willem Van den Heuvel  : Paramagnetic NMR
   Boris Wezisla          : Elementary symmetry handling
   Frank Wennmohs         : Technical directorship


 We gratefully acknowledge several colleagues who have allowed us to
 interface, adapt or use parts of their codes:
   Stefan Grimme, W. Hujo, H. Kruse,             : VdW corrections, initial TS optimization,
                  C. Bannwarth                     DFT functionals, gCP, sTDA/sTD-DF
   Ed Valeev, F. Pavosevic, A. Kumar             : LibInt (2-el integral package), F12 methods
   Garnet Chan, S. Sharma, J. Yang, R. Olivares  : DMRG
   Ulf Ekstrom                                   : XCFun DFT Library
   Mihaly Kallay                                 : mrcc  (arbitrary order and MRCC methods)
   Andreas Klamt, Michael Diedenhofen            : otool_cosmo (COSMO solvation model)
   Jiri Pittner, Ondrej Demel                    : Mk-CCSD
   Frank Weinhold                                : gennbo (NPA and NBO analysis)
   Christopher J. Cramer and Donald G. Truhlar   : smd solvation model
   Lars Goerigk                                  : TD-DFT with DH, B97 family of functionals
   V. Asgeirsson, H. Jonsson                     : NEB implementation
   FAccTs GmbH                                   : IRC, NEB, NEB-TS, Multilevel, MM, QM/MM, CI optimization
   S Lehtola, MJT Oliveira, MAL Marques          : LibXC Library


 Your calculation uses the libint2 library for the computation of 2-el integrals
 For citations please refer to: http://libint.valeyev.net

 Your ORCA version has been built with support for libXC version: 4.2.3
 For citations please refer to: https://tddft.org/programs/libxc/

 This ORCA versions uses:
   CBLAS   interface :  Fast vector & matrix operations
   LAPACKE interface :  Fast linear algebra routines
   SCALAPACK package :  Parallel linear algebra routines




***************************************
The coordinates will be read from file: init.xyz
***************************************


Your calculation utilizes the atom-pairwise dispersion correction
based on tight binding partial charges (D4)
Cite in your paper:
E.Caldeweyher, C.Bannwarth, S.Grimme, J.Chem.Phys., (2017), 147, 034112.
E.Caldeweyher, S.Ehlert, A.Hansen, H.Neugebauer, S.Grimme, J.Chem.Phys., (2018), in progress.
   

Your calculation utilizes the SMD solvation module
Please cite in your paper:
A.V. Marenich, C.J. Cramer, D.G. Truhlar J. Phys. Chem. B, 113, (2009), 6378 

----- Orbital basis set information -----
Your calculation utilizes the basis: def2-TZVP
   F. Weigend and R. Ahlrichs, Phys. Chem. Chem. Phys. 7, 3297 (2005).

----- AuxJ basis set information -----
Your calculation utilizes the auxiliary basis: def2/J
   F. Weigend, Phys. Chem. Chem. Phys. 8, 1057 (2006).

================================================================================
                                        WARNINGS
                       Please study these warnings very carefully!
================================================================================


INFO   : the flag for use of LIBINT has been found!

================================================================================
                                       INPUT FILE
================================================================================
NAME = argon@water.inp
|  1> ! BLYP D4 def2-TZVP RI def2/J TightSCF Grid4 FinalGrid5 PrintBasis PrintMOs
|  2> %maxcore 1150
|  3> 
|  4> * xyzfile 0 1 init.xyz
|  5> 
|  6> %cpcm
|  7>  smd true
|  8>  smdsolvent "water"
|  9> end
| 10> 
| 11>                          ****END OF INPUT****
================================================================================

                       ****************************
                       * Single Point Calculation *
                       ****************************

---------------------------------
CARTESIAN COORDINATES (ANGSTROEM)
---------------------------------
  Ar     0.000000    0.000000    0.000000

----------------------------
CARTESIAN COORDINATES (A.U.)
----------------------------
  NO LB      ZA    FRAG     MASS         X           Y           Z
   0 Ar   18.0000    0    39.948    0.000000    0.000000    0.000000

--------------------------------
INTERNAL COORDINATES (ANGSTROEM)
--------------------------------
 Ar     0   0   0     0.000000000000     0.00000000     0.00000000

---------------------------
INTERNAL COORDINATES (A.U.)
---------------------------
 Ar     0   0   0     0.000000000000     0.00000000     0.00000000

---------------------
BASIS SET INFORMATION
---------------------
There are 1 groups of distinct atoms

 Group   1 Type Ar  : 14s9p3d1f contracted to 5s5p2d1f pattern {73211/51111/21/1}

Atom   0Ar   basis set group =>   1

-------------------------
BASIS SET IN INPUT FORMAT
-------------------------

 # Basis set for element : Ar
 NewGTO Ar
 S 7 
   1   79111.4229980000      0.0005049164
   2   11864.7460090000      0.0039047223
   3    2700.1642973000      0.0200931026
   4     763.9594348500      0.0788521294
   5     248.4515056100      0.2317384572
   6      88.2835810000      0.4436144476
   7      32.9486070690      0.3602454230
 S 3 
   1     142.5535800000      0.1259085593
   2      44.1636880090      0.5356737519
   3       8.9524995000     -1.2491376486
 S 2 
   1       4.5546920941      0.6744110313
   2       2.1444079001      0.3485376674
 S 1 
   1       0.6070877700      1.0000000000
 S 1 
   1       0.2165143200      1.0000000000
 P 5 
   1     776.7754199800      0.0032356380
   2     183.8010701800      0.0259905340
   3      58.6940031750      0.1210812451
   4      21.7015916950      0.3555746043
   5       8.5821489635      0.6207987312
 P 1 
   1       3.4922679161      1.0000000000
 P 1 
   1       1.2637426998      1.0000000000
 P 1 
   1       0.4660787001      1.0000000000
 P 1 
   1       0.1576600300      1.0000000000
 D 2 
   1       5.5510000000      0.1824627029
   2       1.2350000000      0.9123135143
 D 1 
   1       0.4120000000      1.0000000000
 F 1 
   1       0.8900000000      1.0000000000
  end;

---------------------------------
AUXILIARY/J BASIS SET INFORMATION
---------------------------------
There are 1 groups of distinct atoms

 Group   1 Type Ar  : 14s5p5d2f1g contracted to 8s4p3d1f1g pattern {71111111/2111/311/2/1}

Atom   0Ar   basis set group =>   1

-------------------------------------
AUXILIARY/J BASIS SET IN INPUT FORMAT
-------------------------------------

 # Auxiliary/J basis set for element : Ar
 NewAuxJGTO Ar
 S 7 
   1    9188.5309157000      0.0302419413
   2    3279.0428273000      0.0621099207
   3    1227.6297914000      0.1912101213
   4     481.1823792000      0.3820848304
   5     196.9697695000      0.4189004825
   6      83.9606192000      0.0802353960
   7      37.1435409000     -0.0537207241
 S 1 
   1      16.9892190000      1.0000000000
 S 1 
   1       8.0003093000      1.0000000000
 S 1 
   1       3.8606959000     -1.0000000000
 S 1 
   1       1.8996439000     -1.0000000000
 S 1 
   1       0.9480149000      1.0000000000
 S 1 
   1       0.4771798000      1.0000000000
 S 1 
   1       0.2408781000      1.0000000000
 P 2 
   1      14.1000000000      1.4914967135
   2       5.6300000000     -1.4912874590
 P 1 
   1       2.2200000000      1.0000000000
 P 1 
   1       0.8700000000      1.0000000000
 P 1 
   1       0.3400000000      1.0000000000
 D 3 
   1      32.7000000000     -1.0830508455
   2       8.3700000000      0.5502827403
   3       2.6600000000     -0.5568282843
 D 1 
   1       0.9900000000      1.0000000000
 D 1 
   1       0.3900000000      1.0000000000
 F 2 
   1       1.3800000000      0.5555551478
   2       0.5400000000      0.5555551478
 G 1 
   1       0.8700000000      1.0000000000
  end;

------------------------------------------------------------------------------
                           ORCA GTO INTEGRAL CALCULATION
                           -- RI-GTO INTEGRALS CHOSEN --
------------------------------------------------------------------------------

                         BASIS SET STATISTICS AND STARTUP INFO

Gaussian basis set:
 # of primitive gaussian shells          ...   27
 # of primitive gaussian functions       ...   63
 # of contracted shells                  ...   13
 # of contracted basis functions         ...   37
 Highest angular momentum                ...    3
 Maximum contraction depth               ...    7
Auxiliary gaussian basis set:
 # of primitive gaussian shells          ...   27
 # of primitive gaussian functions       ...   77
 # of contracted shells                  ...   17
 # of contracted aux-basis functions     ...   51
 Highest angular momentum                ...    4
 Maximum contraction depth               ...    7
Ratio of auxiliary to basis functions    ...  1.38
Integral package used                  ... LIBINT
 One Electron integrals                  ... done
 Ordering auxiliary basis shells         ... done
 Integral threshhold             Thresh  ...  2.500e-11
 Primitive cut-off               TCut    ...  2.500e-12
 Pre-screening matrix                    ... done
 Shell pair data                         ... 
 Ordering of the shell pairs             ... done (   0.000 sec) 91 of 91 pairs
 Determination of significant pairs      ... done (   0.000 sec)
 Creation of shell pair data             ... done (   0.000 sec)
 Storage of shell pair data              ... done (   0.000 sec)
 Shell pair data done in (   0.000 sec)
 Computing two index integrals           ... done
 Cholesky decomposition of the V-matrix  ... done


Timings:
 Total evaluation time                   ...   0.104 sec (  0.002 min)
 One electron matrix time                ...   0.004 sec (  0.000 min) =  3.7%
 Schwartz matrix evaluation time         ...   0.081 sec (  0.001 min) = 77.8%
 Two index repulsion integral time       ...   0.000 sec (  0.000 min) =  0.2%
 Cholesky decomposition of V             ...   0.000 sec (  0.000 min) =  0.2%
 Three index repulsion integral time     ...   0.000 sec (  0.000 min) =  0.0%

-------------------------------------------------------------------------------
                                 ORCA SCF
-------------------------------------------------------------------------------

------------
SCF SETTINGS
------------
Hamiltonian:
 Density Functional     Method          .... DFT(GTOs)
 Exchange Functional    Exchange        .... B88
   X-Alpha parameter    XAlpha          ....  0.666667
   Becke's b parameter  XBeta           ....  0.004200
 Correlation Functional Correlation     .... LYP
 Gradients option       PostSCFGGA      .... off
   Density functional embedding theory  .... OFF
   NL short-range parameter             ....  4.000000
 RI-approximation to the Coulomb term is turned on
   Number of auxiliary basis functions  .... 51


General Settings:
 Integral files         IntName         .... argon@water
 Hartree-Fock type      HFTyp           .... RHF
 Total Charge           Charge          ....    0
 Multiplicity           Mult            ....    1
 Number of Electrons    NEL             ....   18
 Basis Dimension        Dim             ....   37
 Nuclear Repulsion      ENuc            ....      0.0000000000 Eh

Convergence Acceleration:
 DIIS                   CNVDIIS         .... on
   Start iteration      DIISMaxIt       ....    12
   Startup error        DIISStart       ....  0.200000
   # of expansion vecs  DIISMaxEq       ....     5
   Bias factor          DIISBfac        ....   1.050
   Max. coefficient     DIISMaxC        ....  10.000
 Newton-Raphson         CNVNR           .... off
 SOSCF                  CNVSOSCF        .... on
   Start iteration      SOSCFMaxIt      ....   150
   Startup grad/error   SOSCFStart      ....  0.003300
 Level Shifting         CNVShift        .... on
   Level shift para.    LevelShift      ....    0.2500
   Turn off err/grad.   ShiftErr        ....    0.0010
 Zerner damping         CNVZerner       .... off
 Static damping         CNVDamp         .... on
   Fraction old density DampFac         ....    0.7000
   Max. Damping (<1)    DampMax         ....    0.9800
   Min. Damping (>=0)   DampMin         ....    0.0000
   Turn off err/grad.   DampErr         ....    0.1000
 Fernandez-Rico         CNVRico         .... off

SCF Procedure:
 Maximum # iterations   MaxIter         ....   125
 SCF integral mode      SCFMode         .... Direct
   Integral package                     .... LIBINT
 Reset frequency        DirectResetFreq ....    20
 Integral Threshold     Thresh          ....  2.500e-11 Eh
 Primitive CutOff       TCut            ....  2.500e-12 Eh

Convergence Tolerance:
 Convergence Check Mode ConvCheckMode   .... Total+1el-Energy
 Convergence forced     ConvForced      .... 0
 Energy Change          TolE            ....  1.000e-08 Eh
 1-El. energy change                    ....  1.000e-05 Eh
 Orbital Gradient       TolG            ....  1.000e-05
 Orbital Rotation angle TolX            ....  1.000e-05
 DIIS Error             TolErr          ....  5.000e-07


Diagonalization of the overlap matrix:
Smallest eigenvalue                        ... 4.397e-02
Time for diagonalization                   ...    0.000 sec
Threshold for overlap eigenvalues          ... 1.000e-08
Number of eigenvalues below threshold      ... 0
Time for construction of square roots      ...    0.000 sec
Total time needed                          ...    0.001 sec

-------------------
DFT GRID GENERATION
-------------------

General Integration Accuracy     IntAcc      ...  4.670
Radial Grid Type                 RadialGrid  ... Gauss-Chebyshev
Angular Grid (max. acc.)         AngularGrid ... Lebedev-302
Angular grid pruning method      GridPruning ... 3 (G Style)
Weight generation scheme         WeightScheme... Becke
Basis function cutoff            BFCut       ...    1.0000e-11
Integration weight cutoff        WCut        ...    1.0000e-14
Grids for H and He will be reduced by one unit

# of grid points (after initial pruning)     ...   6822 (   0.0 sec)
# of grid points (after weights+screening)   ...   6822 (   0.0 sec)
Grid point division into batches done        ...    0.1 sec
Reduced shell lists constructed in    0.1 sec

Total number of grid points                  ...     6822
Total number of batches                      ...      107
Average number of points per batch           ...       63
Average number of grid points per atom       ...     6822
Average number of shells per batch           ...     9.34 (71.87%)
Average number of basis functions per batch  ...    28.29 (76.45%)
Average number of large shells per batch     ...     8.68 (92.86%)
Average number of large basis fcns per batch ...    26.31 (93.00%)
Maximum spatial batch extension              ...  25.31, 19.50, 17.78 au
Average spatial batch extension              ...   4.90,  4.71,  4.47 au

Time for grid setup =    0.068 sec

------------------------------
INITIAL GUESS: MODEL POTENTIAL
------------------------------
Loading Hartree-Fock densities                     ... done
Calculating cut-offs                               ... done
Setting up the integral package                    ... done
Initializing the effective Hamiltonian             ... done
Starting the Coulomb interaction                   ... done (   0.0 sec)
Reading the grid                                   ... done
Mapping shells                                     ... done
Starting the XC term evaluation                    ... done (   0.0 sec)
  promolecular density results
     # of electrons  =     17.999999794
     EX              =    -30.160978857
     EC              =     -0.750626630
     EX+EC           =    -30.911605487
Transforming the Hamiltonian                       ... done (   0.0 sec)
Diagonalizing the Hamiltonian                      ... done (   0.0 sec)
Back transforming the eigenvectors                 ... done (   0.0 sec)
Now organizing SCF variables                       ... done
                      ------------------
                      INITIAL GUESS DONE (   0.2 sec)
                      ------------------

--------------------
CPCM SOLVATION MODEL
--------------------
CPCM parameters:
  Epsilon                                         ...      78.3550
  Refrac                                          ...       1.0000
  Rsolv                                           ...       1.3000
  Surface type                                    ...    GEPOL SES
  Epsilon function type                           ...         CPCM
Solvent:                                     ... WATER
SMD-CDS solvent descriptors:
  Soln                                       ...    1.3328
  Soln25                                     ...    1.3323
  Sola                                       ...    0.0000
  Solb                                       ...    0.0000
  Solg                                       ...    0.0000
  Solc                                       ...    0.0000
  Solh                                       ...    0.0000
Radii:
 Radius for Ar used is    3.5527 Bohr (=   1.8800 Ang.)
Calculating surface                               ...        done! (  0.0s)
GEPOL surface points                              ...           60
GEPOL Volume                                      ...     187.8273
GEPOL Surface-area                                ...     158.6073
Calculating surface distance matrix               ...        done! (  0.0s)
Performing Cholesky decomposition & store         ...        done! (  0.0s)
Overall time for CPCM initialization              ...                 0.0s
--------------
SCF ITERATIONS
--------------
ITER       Energy         Delta-E        Max-DP      RMS-DP      [F,P]     Damp
               ***  Starting incremental Fock matrix formation  ***
  0   -527.5314964201   0.000000000000 0.00625691  0.00026893  0.0090138 0.7000
                      *** Initiating the SOSCF procedure ***
                      *** Re-Reading the Fockian *** 
                      *** Removing any level shift *** 
ITER      Energy       Delta-E        Grad      Rot      Max-DP    RMS-DP
  1   -527.53155469  -0.0000582692  0.000650  0.000650  0.013367  0.000594
               *** Restarting incremental Fock matrix formation ***
  2   -527.53159313  -0.0000384364  0.002672  0.003214  0.011496  0.000574
  3   -527.53159353  -0.0000003999  0.002598  0.001601  0.005605  0.000283
  4   -527.53162652  -0.0000329917  0.000039  0.000006  0.000019  0.000001
  5   -527.53162652   0.0000000011  0.000010  0.000001  0.000003  0.000000
                 **** Energy Check signals convergence ****
              ***Rediagonalizing the Fockian in SOSCF/NRSCF***

               *****************************************************
               *                     SUCCESS                       *
               *           SCF CONVERGED AFTER   6 CYCLES          *
               *****************************************************

Setting up the final grid:

General Integration Accuracy     IntAcc      ...  5.010
Radial Grid Type                 RadialGrid  ... Gauss-Chebyshev
Angular Grid (max. acc.)         AngularGrid ... Lebedev-434
Angular grid pruning method      GridPruning ... 3 (G Style)
Weight generation scheme         WeightScheme... Becke
Basis function cutoff            BFCut       ...    1.0000e-11
Integration weight cutoff        WCut        ...    1.0000e-14
Grids for H and He will be reduced by one unit

# of grid points (after initial pruning)     ...  11992 (   0.0 sec)
# of grid points (after weights+screening)   ...  11992 (   0.0 sec)
Grid point division into batches done        ...    0.1 sec
Reduced shell lists constructed in    0.1 sec

Total number of grid points                  ...    11992
Total number of batches                      ...      188
Average number of points per batch           ...       63
Average number of grid points per atom       ...    11992
Average number of shells per batch           ...     9.16 (70.45%)
Average number of basis functions per batch  ...    27.63 (74.69%)
Average number of large shells per batch     ...     8.59 (93.76%)
Average number of large basis fcns per batch ...    26.17 (94.72%)
Maximum spatial batch extension              ...  18.71, 18.71, 18.71 au
Average spatial batch extension              ...   4.14,  4.05,  4.06 au

Final grid set up in    0.1 sec
Final integration                            ... done (   0.0 sec)
Change in XC energy                          ...     0.000099243
Integrated number of electrons               ...    17.999998943
Previous integrated no of electrons          ...    17.999999497

SMD CDS free energy correction energy :                 0.00000     Kcal/mol
Total Energy after SMD CDS correction =              -527.531527277 Eh

----------------
TOTAL SCF ENERGY
----------------

Total Energy       :         -527.53152728 Eh          -14354.86264 eV

Components:
Nuclear Repulsion  :            0.00000000 Eh               0.00000 eV
Electronic Energy  :         -527.53152728 Eh          -14354.86264 eV
One Electron Energy:         -728.39674719 Eh          -19820.68315 eV
Two Electron Energy:          200.86521991 Eh            5465.82051 eV
CPCM Dielectric    :           -0.00003157 Eh              -0.00086 eV

Virial components:
Potential Energy   :        -1054.42681739 Eh          -28692.41240 eV
Kinetic Energy     :          526.89529012 Eh           14337.54975 eV
Virial Ratio       :            2.00120752


DFT components:
N(Alpha)           :        8.999999471645 electrons
N(Beta)            :        8.999999471645 electrons
N(Total)           :       17.999998943291 electrons
E(X)               :      -30.149480004270 Eh       
E(C)               :       -0.751603247890 Eh       
E(XC)              :      -30.901083252160 Eh       
DFET-embed. en.    :        0.000000000000 Eh       
CPCM Solvation Model Properties:
Surface-charge          :           -0.01507217
Charge-correction       :            0.00003157 Eh               0.00086 eV
Free-energy (cav+disp)  :            0.00258390 Eh               0.07031 eV
Corrected G(solv)       :         -527.52891181 Eh          -14354.79147 eV

---------------
SCF CONVERGENCE
---------------

  Last Energy change         ...   -4.2552e-09  Tolerance :   1.0000e-08
  Last MAX-Density change    ...    1.6773e-08  Tolerance :   1.0000e-07
  Last RMS-Density change    ...    1.0023e-09  Tolerance :   5.0000e-09
  Last Orbital Gradient      ...    9.8616e-09  Tolerance :   1.0000e-05
  Last Orbital Rotation      ...    3.2803e-09  Tolerance :   1.0000e-05

             **** THE GBW FILE WAS UPDATED (argon@water.gbw) ****
             **** DENSITY FILE WAS UPDATED (argon@water.scfp) ****
             **** ENERGY FILE WAS UPDATED (argon@water.en.tmp) ****
             **** THE GBW FILE WAS UPDATED (argon@water.gbw) ****
             **** DENSITY FILE WAS UPDATED (argon@water.scfp) ****
----------------
ORBITAL ENERGIES
----------------

  NO   OCC          E(Eh)            E(eV) 
   0   2.0000    -114.218355     -3108.0395 
   1   2.0000     -10.816957      -294.3444 
   2   2.0000      -8.437586      -229.5984 
   3   2.0000      -8.437586      -229.5984 
   4   2.0000      -8.437586      -229.5984 
   5   2.0000      -0.869515       -23.6607 
   6   2.0000      -0.364491        -9.9183 
   7   2.0000      -0.364491        -9.9183 
   8   2.0000      -0.364491        -9.9183 
   9   0.0000       0.375284        10.2120 
  10   0.0000       0.375284        10.2120 
  11   0.0000       0.375284        10.2120 
  12   0.0000       0.429645        11.6912 
  13   0.0000       0.429645        11.6912 
  14   0.0000       0.429645        11.6912 
  15   0.0000       0.429645        11.6912 
  16   0.0000       0.429645        11.6912 
  17   0.0000       0.576419        15.6851 
  18   0.0000       1.902536        51.7706 
  19   0.0000       1.902536        51.7706 
  20   0.0000       1.902536        51.7706 
  21   0.0000       1.902536        51.7706 
  22   0.0000       1.902536        51.7706 
  23   0.0000       2.483210        67.5716 
  24   0.0000       2.483210        67.5716 
  25   0.0000       2.483210        67.5716 
  26   0.0000       2.483210        67.5716 
  27   0.0000       2.483211        67.5716 
  28   0.0000       2.483211        67.5716 
  29   0.0000       2.483211        67.5716 
  30   0.0000       2.520194        68.5780 
  31   0.0000       2.520194        68.5780 
  32   0.0000       2.520194        68.5780 
  33   0.0000      12.478883       339.5677 
  34   0.0000      12.478883       339.5677 
  35   0.0000      12.478883       339.5677 
  36   0.0000      31.164535       848.0301 
------------------
MOLECULAR ORBITALS
------------------
                      0         1         2         3         4         5   
                 -114.21836 -10.81696  -8.43759  -8.43759  -8.43759  -0.86951
                   2.00000   2.00000   2.00000   2.00000   2.00000   2.00000
                  --------  --------  --------  --------  --------  --------
  0Ar  1s        -1.001666 -0.297736  0.000000  0.000000 -0.000000  0.096110
  0Ar  2s         0.033785 -0.195836  0.000000  0.000000 -0.000000  0.078046
  0Ar  3s         0.010993  0.849927 -0.000000 -0.000000  0.000000 -0.548851
  0Ar  4s        -0.003119  0.032300 -0.000000 -0.000000  0.000000  0.734892
  0Ar  5s         0.001268 -0.008840 -0.000000 -0.000000  0.000000  0.479708
  0Ar  1pz        0.000000 -0.000000  0.114310 -0.021650  0.693753 -0.000000
  0Ar  1px        0.000000 -0.000000  0.017023 -0.702799 -0.024737 -0.000000
  0Ar  1py        0.000000 -0.000000 -0.693882 -0.020808  0.113682 -0.000000
  0Ar  2pz        0.000000 -0.000000  0.056109 -0.010627  0.340525 -0.000000
  0Ar  2px        0.000000 -0.000000  0.008356 -0.344966 -0.012142 -0.000000
  0Ar  2py        0.000000 -0.000000 -0.340588 -0.010214  0.055800 -0.000000
  0Ar  3pz       -0.000000 -0.000000  0.012670 -0.002400  0.076893  0.000000
  0Ar  3px       -0.000000 -0.000000  0.001887 -0.077895 -0.002742  0.000000
  0Ar  3py        0.000000 -0.000000 -0.076907 -0.002306  0.012600  0.000000
  0Ar  4pz       -0.000000  0.000000 -0.001634  0.000309 -0.009916  0.000000
  0Ar  4px       -0.000000  0.000000 -0.000243  0.010045  0.000354 -0.000000
  0Ar  4py       -0.000000  0.000000  0.009918  0.000297 -0.001625  0.000000
  0Ar  5pz       -0.000000  0.000000  0.000490 -0.000093  0.002976  0.000000
  0Ar  5px       -0.000000  0.000000  0.000073 -0.003015 -0.000106  0.000000
  0Ar  5py        0.000000 -0.000000 -0.002977 -0.000089  0.000488  0.000000
  0Ar  1dz2      -0.000000 -0.000000 -0.000000  0.000000  0.000000  0.000000
  0Ar  1dxz      -0.000000 -0.000000  0.000000 -0.000000 -0.000000 -0.000000
  0Ar  1dyz      -0.000000 -0.000000 -0.000000  0.000000  0.000000 -0.000000
  0Ar  1dx2y2     0.000000  0.000000  0.000000 -0.000000 -0.000000 -0.000000
  0Ar  1dxy       0.000000  0.000000 -0.000000  0.000000 -0.000000  0.000000
  0Ar  2dz2       0.000000  0.000000  0.000000 -0.000000  0.000000 -0.000000
  0Ar  2dxz       0.000000  0.000000 -0.000000 -0.000000  0.000000  0.000000
  0Ar  2dyz      -0.000000  0.000000  0.000000 -0.000000 -0.000000  0.000000
  0Ar  2dx2y2    -0.000000 -0.000000 -0.000000  0.000000  0.000000  0.000000
  0Ar  2dxy      -0.000000 -0.000000 -0.000000 -0.000000  0.000000 -0.000000
  0Ar  1f0        0.000000 -0.000000 -0.000000  0.000000  0.000000 -0.000000
  0Ar  1f+1      -0.000000  0.000000 -0.000000  0.000000  0.000000  0.000000
  0Ar  1f-1      -0.000000  0.000000 -0.000000 -0.000000  0.000000  0.000000
  0Ar  1f+2      -0.000000 -0.000000 -0.000000  0.000000 -0.000000  0.000000
  0Ar  1f-2       0.000000 -0.000000 -0.000000  0.000000  0.000000 -0.000000
  0Ar  1f+3       0.000000  0.000000 -0.000000  0.000000  0.000000  0.000000
  0Ar  1f-3       0.000000  0.000000 -0.000000  0.000000  0.000000  0.000000
                      6         7         8         9        10        11   
                  -0.36449  -0.36449  -0.36449   0.37528   0.37528   0.37528
                   2.00000   2.00000   2.00000   0.00000   0.00000   0.00000
                  --------  --------  --------  --------  --------  --------
  0Ar  1s        -0.000000 -0.000000 -0.000000 -0.000000 -0.000000 -0.000000
  0Ar  2s        -0.000000 -0.000000 -0.000000 -0.000000 -0.000000 -0.000000
  0Ar  3s         0.000000  0.000000  0.000000  0.000000  0.000000  0.000000
  0Ar  4s        -0.000000 -0.000000 -0.000000 -0.000000 -0.000000 -0.000000
  0Ar  5s         0.000000 -0.000000 -0.000000  0.000000  0.000000  0.000000
  0Ar  1pz       -0.003680 -0.225313  0.009366 -0.168104  0.013714  0.024208
  0Ar  1px       -0.225499  0.003759  0.001840 -0.012550 -0.169691  0.008988
  0Ar  1py       -0.001994 -0.009334 -0.225335 -0.024832 -0.007084 -0.168423
  0Ar  2pz       -0.001697 -0.103906  0.004319 -0.034730  0.002833  0.005001
  0Ar  2px       -0.103991  0.001734  0.000848 -0.002593 -0.035057  0.001857
  0Ar  2py       -0.000920 -0.004305 -0.103916 -0.005130 -0.001464 -0.034795
  0Ar  3pz        0.004615  0.282534 -0.011745  0.077298 -0.006306 -0.011131
  0Ar  3px        0.282767 -0.004714 -0.002307  0.005771  0.078028 -0.004133
  0Ar  3py        0.002501  0.011705  0.282563  0.011418  0.003258  0.077445
  0Ar  4pz        0.008909  0.545487 -0.022675  1.069350 -0.087241 -0.153991
  0Ar  4px        0.545937 -0.009102 -0.004454  0.079831  1.079440 -0.057174
  0Ar  4py        0.004828  0.022599  0.545542  0.157960  0.045065  1.071378
  0Ar  5pz        0.005715  0.349940 -0.014547 -1.341031  0.109405  0.193115
  0Ar  5px        0.350228 -0.005839 -0.002857 -0.100113 -1.353685  0.071700
  0Ar  5py        0.003097  0.014497  0.349975 -0.198092 -0.056515 -1.343575
  0Ar  1dz2       0.000000  0.000000  0.000000  0.000000 -0.000000 -0.000000
  0Ar  1dxz       0.000000  0.000000 -0.000000  0.000000  0.000000 -0.000000
  0Ar  1dyz      -0.000000  0.000000  0.000000  0.000000  0.000000  0.000000
  0Ar  1dx2y2    -0.000000  0.000000 -0.000000 -0.000000  0.000000 -0.000000
  0Ar  1dxy      -0.000000 -0.000000  0.000000  0.000000  0.000000  0.000000
  0Ar  2dz2       0.000000 -0.000000 -0.000000  0.000000 -0.000000 -0.000000
  0Ar  2dxz      -0.000000 -0.000000  0.000000  0.000000  0.000000 -0.000000
  0Ar  2dyz       0.000000 -0.000000 -0.000000  0.000000  0.000000  0.000000
  0Ar  2dx2y2    -0.000000 -0.000000  0.000000 -0.000000  0.000000 -0.000000
  0Ar  2dxy       0.000000  0.000000 -0.000000  0.000000  0.000000  0.000000
  0Ar  1f0       -0.000000 -0.000000  0.000000 -0.000000  0.000000  0.000000
  0Ar  1f+1       0.000000 -0.000000 -0.000000 -0.000000  0.000000  0.000000
  0Ar  1f-1      -0.000000  0.000000  0.000000 -0.000000  0.000000  0.000000
  0Ar  1f+2      -0.000000  0.000000  0.000000 -0.000000 -0.000000  0.000000
  0Ar  1f-2       0.000000 -0.000000  0.000000 -0.000000 -0.000000 -0.000000
  0Ar  1f+3       0.000000 -0.000000 -0.000000 -0.000000  0.000000 -0.000000
  0Ar  1f-3       0.000000 -0.000000 -0.000000 -0.000000  0.000000 -0.000000
                     12        13        14        15        16        17   
                   0.42964   0.42964   0.42964   0.42964   0.42964   0.57642
                   0.00000   0.00000   0.00000   0.00000   0.00000   0.00000
                  --------  --------  --------  --------  --------  --------
  0Ar  1s         0.000000  0.000000  0.000000 -0.000000 -0.000000 -0.099394
  0Ar  2s         0.000000  0.000000  0.000000 -0.000000  0.000000 -0.051943
  0Ar  3s        -0.000000 -0.000000 -0.000000  0.000000  0.000000  0.654773
  0Ar  4s         0.000000  0.000000  0.000000 -0.000000 -0.000000 -2.150924
  0Ar  5s        -0.000000 -0.000000 -0.000000  0.000000  0.000000  1.860180
  0Ar  1pz        0.000000 -0.000000  0.000000  0.000000  0.000000  0.000000
  0Ar  1px       -0.000000 -0.000000  0.000000 -0.000000 -0.000000  0.000000
  0Ar  1py        0.000000 -0.000000 -0.000000  0.000000 -0.000000  0.000000
  0Ar  2pz        0.000000 -0.000000  0.000000  0.000000  0.000000 -0.000000
  0Ar  2px        0.000000 -0.000000  0.000000 -0.000000 -0.000000  0.000000
  0Ar  2py        0.000000 -0.000000 -0.000000  0.000000 -0.000000  0.000000
  0Ar  3pz       -0.000000  0.000000 -0.000000 -0.000000 -0.000000  0.000000
  0Ar  3px       -0.000000  0.000000 -0.000000  0.000000  0.000000 -0.000000
  0Ar  3py       -0.000000  0.000000  0.000000 -0.000000  0.000000 -0.000000
  0Ar  4pz       -0.000000  0.000000 -0.000000 -0.000000 -0.000000 -0.000000
  0Ar  4px        0.000000  0.000000 -0.000000  0.000000  0.000000 -0.000000
  0Ar  4py       -0.000000  0.000000  0.000000 -0.000000  0.000000 -0.000000
  0Ar  5pz        0.000000 -0.000000  0.000000  0.000000  0.000000  0.000000
  0Ar  5px       -0.000000 -0.000000  0.000000 -0.000000 -0.000000  0.000000
  0Ar  5py        0.000000 -0.000000 -0.000000  0.000000 -0.000000  0.000000
  0Ar  1dz2       0.014984  0.010100  0.026956  0.095942  0.311852 -0.000000
  0Ar  1dxz      -0.004914 -0.213153  0.248671  0.000817 -0.014606  0.000000
  0Ar  1dyz       0.326835 -0.000079  0.005950 -0.023974 -0.008840  0.000000
  0Ar  1dx2y2    -0.019958 -0.021116 -0.011692 -0.311203  0.098395  0.000000
  0Ar  1dxy       0.006427 -0.248048 -0.211598  0.029705  0.016876 -0.000000
  0Ar  2dz2       0.035482  0.023918  0.063833  0.227194  0.738480 -0.000000
  0Ar  2dxz      -0.011637 -0.504756  0.588865  0.001935 -0.034588  0.000000
  0Ar  2dyz       0.773961 -0.000188  0.014090 -0.056772 -0.020933  0.000000
  0Ar  2dx2y2    -0.047262 -0.050004 -0.027688 -0.736942  0.233005  0.000000
  0Ar  2dxy       0.015220 -0.587388 -0.501073  0.070343  0.039964 -0.000000
  0Ar  1f0       -0.000000  0.000000 -0.000000  0.000000  0.000000  0.000000
  0Ar  1f+1       0.000000 -0.000000  0.000000  0.000000  0.000000 -0.000000
  0Ar  1f-1       0.000000  0.000000  0.000000 -0.000000  0.000000 -0.000000
  0Ar  1f+2      -0.000000 -0.000000  0.000000 -0.000000  0.000000 -0.000000
  0Ar  1f-2       0.000000 -0.000000 -0.000000  0.000000  0.000000  0.000000
  0Ar  1f+3       0.000000 -0.000000 -0.000000  0.000000 -0.000000  0.000000
  0Ar  1f-3       0.000000  0.000000  0.000000  0.000000 -0.000000 -0.000000
                     18        19        20        21        22        23   
                   1.90254   1.90254   1.90254   1.90254   1.90254   2.48321
                   0.00000   0.00000   0.00000   0.00000   0.00000   0.00000
                  --------  --------  --------  --------  --------  --------
  0Ar  1s         0.000000  0.000000 -0.000000  0.000000 -0.000000 -0.000000
  0Ar  2s         0.000000  0.000000  0.000000 -0.000000 -0.000000 -0.000000
  0Ar  3s        -0.000000 -0.000000  0.000000 -0.000000  0.000000  0.000000
  0Ar  4s         0.000000  0.000000 -0.000000  0.000000 -0.000000 -0.000000
  0Ar  5s        -0.000000 -0.000000  0.000000 -0.000000  0.000000  0.000000
  0Ar  1pz        0.000000 -0.000000  0.000000 -0.000000  0.000000 -0.000000
  0Ar  1px        0.000000 -0.000000  0.000000  0.000000 -0.000000  0.000000
  0Ar  1py        0.000000  0.000000 -0.000000  0.000000  0.000000  0.000000
  0Ar  2pz        0.000000 -0.000000  0.000000  0.000000  0.000000 -0.000000
  0Ar  2px        0.000000 -0.000000  0.000000  0.000000 -0.000000  0.000000
  0Ar  2py       -0.000000  0.000000 -0.000000  0.000000  0.000000  0.000000
  0Ar  3pz       -0.000000  0.000000 -0.000000  0.000000 -0.000000  0.000000
  0Ar  3px       -0.000000  0.000000 -0.000000 -0.000000  0.000000 -0.000000
  0Ar  3py       -0.000000 -0.000000  0.000000 -0.000000 -0.000000 -0.000000
  0Ar  4pz        0.000000 -0.000000  0.000000 -0.000000  0.000000 -0.000000
  0Ar  4px        0.000000 -0.000000  0.000000  0.000000 -0.000000  0.000000
  0Ar  4py        0.000000  0.000000 -0.000000  0.000000  0.000000  0.000000
  0Ar  5pz       -0.000000  0.000000 -0.000000  0.000000 -0.000000  0.000000
  0Ar  5px       -0.000000  0.000000 -0.000000 -0.000000  0.000000 -0.000000
  0Ar  5py       -0.000000 -0.000000  0.000000 -0.000000 -0.000000 -0.000000
  0Ar  1dz2       0.031194  0.021780 -1.027359  0.481403 -0.286494  0.000000
  0Ar  1dxz      -0.899297  0.749357 -0.014028 -0.012203 -0.011151  0.000000
  0Ar  1dyz      -0.017019 -0.039724  0.147870 -0.341634 -1.109186 -0.000000
  0Ar  1dx2y2     0.016137 -0.003643 -0.539940 -1.010792  0.239229 -0.000000
  0Ar  1dxy      -0.748654 -0.898409 -0.040956  0.020696  0.031828 -0.000000
  0Ar  2dz2      -0.024929 -0.017405  0.820997 -0.384706  0.228947  0.000000
  0Ar  2dxz       0.718659 -0.598836  0.011210  0.009752  0.008911 -0.000000
  0Ar  2dyz       0.013600  0.031745 -0.118168  0.273011  0.886388  0.000000
  0Ar  2dx2y2    -0.012896  0.002911  0.431484  0.807758 -0.191176 -0.000000
  0Ar  2dxy       0.598275  0.717949  0.032730 -0.016539 -0.025435 -0.000000
  0Ar  1f0        0.000000 -0.000000 -0.000000  0.000000 -0.000000  0.000001
  0Ar  1f+1      -0.000000  0.000000 -0.000000  0.000000 -0.000000 -0.387114
  0Ar  1f-1       0.000000  0.000000 -0.000000 -0.000000 -0.000000  0.256884
  0Ar  1f+2      -0.000000  0.000000 -0.000000 -0.000000  0.000000  0.553878
  0Ar  1f-2      -0.000000 -0.000000  0.000000 -0.000000 -0.000000 -0.082948
  0Ar  1f+3      -0.000000 -0.000000  0.000000  0.000000 -0.000000  0.678360
  0Ar  1f-3       0.000000  0.000000  0.000000  0.000000 -0.000000  0.101592
                     24        25        26        27        28        29   
                   2.48321   2.48321   2.48321   2.48321   2.48321   2.48321
                   0.00000   0.00000   0.00000   0.00000   0.00000   0.00000
                  --------  --------  --------  --------  --------  --------
  0Ar  1s        -0.000000  0.000000  0.000000 -0.000000 -0.000000 -0.000000
  0Ar  2s        -0.000000  0.000000  0.000000 -0.000000 -0.000000 -0.000000
  0Ar  3s         0.000000 -0.000000 -0.000000  0.000000  0.000000  0.000000
  0Ar  4s        -0.000000  0.000000  0.000000 -0.000000 -0.000000 -0.000000
  0Ar  5s         0.000000 -0.000000 -0.000000  0.000000  0.000000  0.000000
  0Ar  1pz        0.000000  0.000000 -0.000000 -0.000000  0.000000 -0.000000
  0Ar  1px        0.000000 -0.000000 -0.000000 -0.000000 -0.000000  0.000000
  0Ar  1py        0.000000  0.000000  0.000000  0.000000  0.000000 -0.000000
  0Ar  2pz        0.000000  0.000000 -0.000000 -0.000000  0.000000 -0.000000
  0Ar  2px        0.000000 -0.000000 -0.000000 -0.000000 -0.000000  0.000000
  0Ar  2py        0.000000  0.000000  0.000000  0.000000  0.000000 -0.000000
  0Ar  3pz       -0.000000 -0.000000  0.000000  0.000000 -0.000000  0.000000
  0Ar  3px       -0.000000  0.000000  0.000000  0.000000  0.000000 -0.000000
  0Ar  3py       -0.000000 -0.000000 -0.000000 -0.000000 -0.000000  0.000000
  0Ar  4pz        0.000000  0.000000 -0.000000 -0.000000  0.000000 -0.000000
  0Ar  4px        0.000000 -0.000000 -0.000000 -0.000000 -0.000000  0.000000
  0Ar  4py        0.000000  0.000000  0.000000  0.000000  0.000000 -0.000000
  0Ar  5pz       -0.000000 -0.000000  0.000000  0.000000 -0.000000  0.000000
  0Ar  5px       -0.000000  0.000000  0.000000  0.000000  0.000000 -0.000000
  0Ar  5py       -0.000000 -0.000000 -0.000000 -0.000000 -0.000000  0.000000
  0Ar  1dz2      -0.000000  0.000000 -0.000000 -0.000000  0.000000 -0.000000
  0Ar  1dxz      -0.000000  0.000000 -0.000000 -0.000000 -0.000000 -0.000000
  0Ar  1dyz      -0.000000 -0.000000 -0.000000  0.000000 -0.000000 -0.000000
  0Ar  1dx2y2     0.000000 -0.000000 -0.000000 -0.000000 -0.000000  0.000000
  0Ar  1dxy       0.000000  0.000000 -0.000000  0.000000  0.000000 -0.000000
  0Ar  2dz2       0.000000 -0.000000  0.000000 -0.000000 -0.000000  0.000000
  0Ar  2dxz       0.000000 -0.000000  0.000000  0.000000  0.000000  0.000000
  0Ar  2dyz       0.000000  0.000000  0.000000 -0.000000  0.000000  0.000000
  0Ar  2dx2y2    -0.000000  0.000000  0.000000  0.000000  0.000000 -0.000000
  0Ar  2dxy      -0.000000 -0.000000  0.000000 -0.000000 -0.000000  0.000000
  0Ar  1f0       -0.000000 -0.000001  0.000001  0.183093 -0.980825  0.066782
  0Ar  1f+1       0.259373 -0.884383  0.027126 -0.000003 -0.000000 -0.000000
  0Ar  1f-1       0.935285  0.167282  0.176832 -0.000000 -0.000000 -0.000001
  0Ar  1f+2      -0.115806 -0.274343  0.067419  0.761244  0.140080 -0.029737
  0Ar  1f-2      -0.098870  0.026285  0.618576  0.019813  0.056283  0.772306
  0Ar  1f+3      -0.141834 -0.335995  0.082570 -0.621554 -0.114373  0.024282
  0Ar  1f-3       0.121097 -0.032192 -0.757625  0.016178  0.045953  0.630562
                     30        31        32        33        34        35   
                   2.52019   2.52019   2.52019  12.47888  12.47888  12.47888
                   0.00000   0.00000   0.00000   0.00000   0.00000   0.00000
                  --------  --------  --------  --------  --------  --------
  0Ar  1s        -0.000000  0.000000  0.000000 -0.000000  0.000000 -0.000000
  0Ar  2s         0.000000 -0.000000 -0.000000  0.000000 -0.000000  0.000000
  0Ar  3s         0.000000 -0.000000 -0.000000  0.000000 -0.000000  0.000000
  0Ar  4s         0.000000  0.000000  0.000000 -0.000000  0.000000 -0.000000
  0Ar  5s        -0.000000 -0.000000 -0.000000 -0.000000 -0.000000  0.000000
  0Ar  1pz       -0.330942  0.002244 -0.013777  1.185233 -0.063858 -0.070745
  0Ar  1px       -0.013483  0.033173  0.329295  0.063374 -0.131125  1.180106
  0Ar  1py        0.003611  0.329563 -0.033052 -0.071179 -1.180079 -0.127300
  0Ar  2pz       -0.398881  0.002705 -0.016605 -2.265057  0.122037  0.135198
  0Ar  2px       -0.016251  0.039983  0.396896 -0.121112  0.250589 -2.255259
  0Ar  2py        0.004352  0.397219 -0.039837  0.136028  2.255209  0.243279
  0Ar  3pz        2.062325 -0.013984  0.085853  1.952334 -0.105188 -0.116532
  0Ar  3px        0.084024 -0.206721 -2.052061  0.104390 -0.215992  1.943889
  0Ar  3py       -0.022500 -2.053733  0.205968 -0.117247 -1.943846 -0.209690
  0Ar  4pz       -2.070918  0.014042 -0.086210 -1.003276  0.054055  0.059884
  0Ar  4px       -0.084374  0.207582  2.060612 -0.053645  0.110995 -0.998936
  0Ar  4py        0.022594  2.062290 -0.206826  0.060252  0.998914  0.107757
  0Ar  5pz        0.774195 -0.005250  0.032229  0.302324 -0.016289 -0.018045
  0Ar  5px        0.031542 -0.077603 -0.770343  0.016165 -0.033447  0.301016
  0Ar  5py       -0.008446 -0.770970  0.077320 -0.018156 -0.301009 -0.032471
  0Ar  1dz2      -0.000000 -0.000000 -0.000000  0.000000  0.000000 -0.000000
  0Ar  1dxz      -0.000000  0.000000  0.000000  0.000000 -0.000000  0.000000
  0Ar  1dyz      -0.000000  0.000000 -0.000000  0.000000 -0.000000 -0.000000
  0Ar  1dx2y2    -0.000000 -0.000000  0.000000  0.000000  0.000000  0.000000
  0Ar  1dxy       0.000000  0.000000  0.000000  0.000000 -0.000000  0.000000
  0Ar  2dz2       0.000000  0.000000  0.000000 -0.000000 -0.000000  0.000000
  0Ar  2dxz       0.000000 -0.000000 -0.000000 -0.000000  0.000000 -0.000000
  0Ar  2dyz       0.000000 -0.000000  0.000000 -0.000000  0.000000  0.000000
  0Ar  2dx2y2     0.000000  0.000000 -0.000000  0.000000 -0.000000 -0.000000
  0Ar  2dxy      -0.000000 -0.000000 -0.000000 -0.000000  0.000000 -0.000000
  0Ar  1f0       -0.000000  0.000000 -0.000000 -0.000000  0.000000  0.000000
  0Ar  1f+1      -0.000000 -0.000000 -0.000000 -0.000000 -0.000000  0.000000
  0Ar  1f-1       0.000000 -0.000000  0.000000 -0.000000 -0.000000 -0.000000
  0Ar  1f+2      -0.000000  0.000000  0.000000 -0.000000  0.000000 -0.000000
  0Ar  1f-2      -0.000000  0.000000 -0.000000 -0.000000  0.000000  0.000000
  0Ar  1f+3       0.000000  0.000000 -0.000000  0.000000  0.000000  0.000000
  0Ar  1f-3      -0.000000  0.000000 -0.000000  0.000000  0.000000  0.000000
                     36   
                  31.16453
                   0.00000
                  --------
  0Ar  1s         0.776516
  0Ar  2s        -2.528048
  0Ar  3s        -3.128163
  0Ar  4s         1.439422
  0Ar  5s        -0.631698
  0Ar  1pz        0.000000
  0Ar  1px        0.000000
  0Ar  1py        0.000000
  0Ar  2pz       -0.000000
  0Ar  2px       -0.000000
  0Ar  2py       -0.000000
  0Ar  3pz        0.000000
  0Ar  3px        0.000000
  0Ar  3py        0.000000
  0Ar  4pz       -0.000000
  0Ar  4px       -0.000000
  0Ar  4py       -0.000000
  0Ar  5pz        0.000000
  0Ar  5px        0.000000
  0Ar  5py        0.000000
  0Ar  1dz2      -0.000000
  0Ar  1dxz      -0.000000
  0Ar  1dyz       0.000000
  0Ar  1dx2y2     0.000000
  0Ar  1dxy      -0.000000
  0Ar  2dz2       0.000000
  0Ar  2dxz       0.000000
  0Ar  2dyz      -0.000000
  0Ar  2dx2y2    -0.000000
  0Ar  2dxy       0.000000
  0Ar  1f0        0.000000
  0Ar  1f+1      -0.000000
  0Ar  1f-1       0.000000
  0Ar  1f+2      -0.000000
  0Ar  1f-2       0.000000
  0Ar  1f+3       0.000000
  0Ar  1f-3      -0.000000



                    ********************************
                    * MULLIKEN POPULATION ANALYSIS *
                    ********************************

-----------------------
MULLIKEN ATOMIC CHARGES
-----------------------
   0 Ar:    0.000000
Sum of atomic charges:    0.0000000

--------------------------------
MULLIKEN REDUCED ORBITAL CHARGES
--------------------------------
  0 Ars       :     6.000000  s :     6.000000
      pz      :     4.000000  p :    12.000000
      px      :     4.000000
      py      :     4.000000
      dz2     :     0.000000  d :     0.000000
      dxz     :     0.000000
      dyz     :     0.000000
      dx2y2   :     0.000000
      dxy     :     0.000000
      f0      :     0.000000  f :     0.000000
      f+1     :     0.000000
      f-1     :     0.000000
      f+2     :     0.000000
      f-2     :     0.000000
      f+3     :     0.000000
      f-3     :     0.000000


                     *******************************
                     * LOEWDIN POPULATION ANALYSIS *
                     *******************************

----------------------
LOEWDIN ATOMIC CHARGES
----------------------
   0 Ar:    0.000000

-------------------------------
LOEWDIN REDUCED ORBITAL CHARGES
-------------------------------
  0 Ars       :     6.000000  s :     6.000000
      pz      :     4.000000  p :    12.000000
      px      :     4.000000
      py      :     4.000000
      dz2     :     0.000000  d :     0.000000
      dxz     :     0.000000
      dyz     :     0.000000
      dx2y2   :     0.000000
      dxy     :     0.000000
      f0      :     0.000000  f :     0.000000
      f+1     :     0.000000
      f-1     :     0.000000
      f+2     :     0.000000
      f-2     :     0.000000
      f+3     :     0.000000
      f-3     :     0.000000


                      *****************************
                      * MAYER POPULATION ANALYSIS *
                      *****************************

  NA   - Mulliken gross atomic population
  ZA   - Total nuclear charge
  QA   - Mulliken gross atomic charge
  VA   - Mayer's total valence
  BVA  - Mayer's bonded valence
  FA   - Mayer's free valence

  ATOM       NA         ZA         QA         VA         BVA        FA
  0 Ar    18.0000    18.0000     0.0000     0.0000     0.0000     0.0000

  Mayer bond orders larger than 0.100000


--------------------------
ATOM BASIS FOR ELEMENT Ar
--------------------------
 NewGTO Ar
 S 14
    1      79111.422997999995         0.000505757460
    2      11864.746009000000         0.003911226219
    3       2700.164297300000         0.020126570562
    4        763.959434850000         0.078983469061
    5        248.451505610000         0.232124451137
    6         88.283581000000         0.444353351730
    7         32.948607069000         0.360845463911
    8        142.553580000000        -0.004253797346
    9         44.163688009000        -0.018097638449
   10          8.952499500000         0.042201883994
   11          4.554692094100        -0.007414031513
   12          2.144407900100        -0.003831593983
   13          0.607087770000         0.003118704920
   14          0.216514320000        -0.001267779013
 S 14
    1      79111.422997999995         0.000150331855
    2      11864.746009000000         0.001162576807
    3       2700.164297300000         0.005982442036
    4        763.959434850000         0.023477125626
    5        248.451505610000         0.068996904857
    6         88.283581000000         0.132080036300
    7         32.948607069000         0.107258067901
    8        142.553580000000         0.024657456490
    9         44.163688009000         0.104904323451
   10          8.952499500000        -0.244626397044
   11          4.554692094100        -0.573199952297
   12          2.144407900100        -0.296231474634
   13          0.607087770000        -0.032300064780
   14          0.216514320000         0.008840067800
 S 14
    1      79111.422997999995         0.000048527274
    2      11864.746009000000         0.000375280960
    3       2700.164297300000         0.001931138292
    4        763.959434850000         0.007578439709
    5        248.451505610000         0.022272270120
    6         88.283581000000         0.042635568247
    7         32.948607069000         0.034623011942
    8        142.553580000000         0.009826702579
    9         44.163688009000         0.041807377263
   10          8.952499500000        -0.097490625108
   11          4.554692094100        -0.370151473711
   12          2.144407900100        -0.191295404781
   13          0.607087770000         0.734892359608
   14          0.216514320000         0.479707831291
 S 14
    1      79111.422997999995         0.000050185636
    2      11864.746009000000         0.000388105745
    3       2700.164297300000         0.001997132671
    4        763.959434850000         0.007837423970
    5        248.451505610000         0.023033398748
    6         88.283581000000         0.044092588631
    7         32.948607069000         0.035806212641
    8        142.553580000000         0.006540097937
    9         44.163688009000         0.027824627800
   10          8.952499500000        -0.064884250944
   11          4.554692094100        -0.441586380825
   12          2.144407900100        -0.228213181536
   13          0.607087770000         2.150924425917
   14          0.216514320000        -1.860179623761
 S 14
    1      79111.422997999995        -0.000392075913
    2      11864.746009000000        -0.003032081013
    3       2700.164297300000        -0.015602624098
    4        763.959434850000        -0.061229973279
    5        248.451505610000        -0.179948717236
    6         88.283581000000        -0.344473902908
    7         32.948607069000        -0.279736486326
    8        142.553580000000         0.318302841488
    9         44.163688009000         1.354208786781
   10          8.952499500000        -3.157879536891
   11          4.554692094100         2.109667466695
   12          2.144407900100         1.090282548248
   13          0.607087770000        -1.439421941678
   14          0.216514320000         0.631698250232
 P 9
    1        776.775419980000         0.002276079204
    2        183.801070180000         0.018282797342
    3         58.694003175000         0.085173465926
    4         21.701591695000         0.250125619603
    5          8.582148963500         0.436695043465
    6          3.492267916100         0.345280293715
    7          1.263742699800         0.077966544301
    8          0.466078700100        -0.010054361728
    9          0.157660030000         0.003017987571
 P 9
    1        776.775419980000         0.000729757453
    2        183.801070180000         0.005861838025
    3         58.694003175000         0.027308351776
    4         21.701591695000         0.080195379325
    5          8.582148963500         0.140013344957
    6          3.492267916100         0.104009251506
    7          1.263742699800        -0.282815929686
    8          0.466078700100        -0.546030800320
    9          0.157660030000        -0.350288534717
 P 9
    1        776.775419980000         0.000551324708
    2        183.801070180000         0.004428562015
    3         58.694003175000         0.020631196027
    4         21.701591695000         0.060586834566
    5          8.582148963500         0.105778729888
    6          3.492267916100         0.035202043477
    7          1.263742699800        -0.078349862535
    8          0.466078700100        -1.083897308451
    9          0.157660030000         1.359274639072
 P 9
    1        776.775419980000         0.001071760418
    2        183.801070180000         0.008609005559
    3         58.694003175000         0.040106490705
    4         21.701591695000         0.117779178392
    5          8.582148963500         0.205631008566
    6          3.492267916100         0.399235489736
    7          1.263742699800        -2.064158380697
    8          0.466078700100         2.072758833303
    9          0.157660030000        -0.774883742034
 P 9
    1        776.775419980000         0.003847361603
    2        183.801070180000         0.030904255165
    3         58.694003175000         0.143972635867
    4         21.701591695000         0.422798865359
    5          8.582148963500         0.738165763177
    6          3.492267916100        -2.272367899104
    7          1.263742699800         1.958635386667
    8          0.466078700100        -1.006514536157
    9          0.157660030000         0.303299488166
 D 3
    1          5.551000000000         0.059827081782
    2          1.235000000000         0.299135408912
    3          0.412000000000         0.776450428152
 D 3
    1          5.551000000000         0.213624865133
    2          1.235000000000         1.068124325667
    3          0.412000000000        -0.935614960439
 F 1
    1          0.890000000000         1.000000000000
 end
  // -----------------------------------------------
  // The basis set
  // -----------------------------------------------
  BAS[ATNO] = new BFNGauss[NSH];
  // Basis function   1 L = s
  InitBFNGauss(BAS[ATNO][  0]);
  BAS[ATNO][  0].l  = 0;
  BAS[ATNO][  0].ng = 14;
  BAS[ATNO][  0].a[  0] =     79111.422997999995;     BAS[ATNO][  0].d[  0] =         0.000505757460;
  BAS[ATNO][  0].a[  1] =     11864.746009000000;     BAS[ATNO][  0].d[  1] =         0.003911226219;
  BAS[ATNO][  0].a[  2] =      2700.164297300000;     BAS[ATNO][  0].d[  2] =         0.020126570562;
  BAS[ATNO][  0].a[  3] =       763.959434850000;     BAS[ATNO][  0].d[  3] =         0.078983469061;
  BAS[ATNO][  0].a[  4] =       248.451505610000;     BAS[ATNO][  0].d[  4] =         0.232124451137;
  BAS[ATNO][  0].a[  5] =        88.283581000000;     BAS[ATNO][  0].d[  5] =         0.444353351730;
  BAS[ATNO][  0].a[  6] =        32.948607069000;     BAS[ATNO][  0].d[  6] =         0.360845463911;
  BAS[ATNO][  0].a[  7] =       142.553580000000;     BAS[ATNO][  0].d[  7] =        -0.004253797346;
  BAS[ATNO][  0].a[  8] =        44.163688009000;     BAS[ATNO][  0].d[  8] =        -0.018097638449;
  BAS[ATNO][  0].a[  9] =         8.952499500000;     BAS[ATNO][  0].d[  9] =         0.042201883994;
  BAS[ATNO][  0].a[ 10] =         4.554692094100;     BAS[ATNO][  0].d[ 10] =        -0.007414031513;
  BAS[ATNO][  0].a[ 11] =         2.144407900100;     BAS[ATNO][  0].d[ 11] =        -0.003831593983;
  BAS[ATNO][  0].a[ 12] =         0.607087770000;     BAS[ATNO][  0].d[ 12] =         0.003118704920;
  BAS[ATNO][  0].a[ 13] =         0.216514320000;     BAS[ATNO][  0].d[ 13] =        -0.001267779013;

  // Basis function   2 L = s
  InitBFNGauss(BAS[ATNO][  1]);
  BAS[ATNO][  1].l  = 0;
  BAS[ATNO][  1].ng = 14;
  BAS[ATNO][  1].a[  0] =     79111.422997999995;     BAS[ATNO][  1].d[  0] =        -0.000150331855;
  BAS[ATNO][  1].a[  1] =     11864.746009000000;     BAS[ATNO][  1].d[  1] =        -0.001162576807;
  BAS[ATNO][  1].a[  2] =      2700.164297300000;     BAS[ATNO][  1].d[  2] =        -0.005982442036;
  BAS[ATNO][  1].a[  3] =       763.959434850000;     BAS[ATNO][  1].d[  3] =        -0.023477125626;
  BAS[ATNO][  1].a[  4] =       248.451505610000;     BAS[ATNO][  1].d[  4] =        -0.068996904857;
  BAS[ATNO][  1].a[  5] =        88.283581000000;     BAS[ATNO][  1].d[  5] =        -0.132080036300;
  BAS[ATNO][  1].a[  6] =        32.948607069000;     BAS[ATNO][  1].d[  6] =        -0.107258067901;
  BAS[ATNO][  1].a[  7] =       142.553580000000;     BAS[ATNO][  1].d[  7] =        -0.024657456490;
  BAS[ATNO][  1].a[  8] =        44.163688009000;     BAS[ATNO][  1].d[  8] =        -0.104904323451;
  BAS[ATNO][  1].a[  9] =         8.952499500000;     BAS[ATNO][  1].d[  9] =         0.244626397044;
  BAS[ATNO][  1].a[ 10] =         4.554692094100;     BAS[ATNO][  1].d[ 10] =         0.573199952297;
  BAS[ATNO][  1].a[ 11] =         2.144407900100;     BAS[ATNO][  1].d[ 11] =         0.296231474634;
  BAS[ATNO][  1].a[ 12] =         0.607087770000;     BAS[ATNO][  1].d[ 12] =         0.032300064780;
  BAS[ATNO][  1].a[ 13] =         0.216514320000;     BAS[ATNO][  1].d[ 13] =        -0.008840067800;

  // Basis function   3 L = s
  InitBFNGauss(BAS[ATNO][  2]);
  BAS[ATNO][  2].l  = 0;
  BAS[ATNO][  2].ng = 14;
  BAS[ATNO][  2].a[  0] =     79111.422997999995;     BAS[ATNO][  2].d[  0] =         0.000048527274;
  BAS[ATNO][  2].a[  1] =     11864.746009000000;     BAS[ATNO][  2].d[  1] =         0.000375280960;
  BAS[ATNO][  2].a[  2] =      2700.164297300000;     BAS[ATNO][  2].d[  2] =         0.001931138292;
  BAS[ATNO][  2].a[  3] =       763.959434850000;     BAS[ATNO][  2].d[  3] =         0.007578439709;
  BAS[ATNO][  2].a[  4] =       248.451505610000;     BAS[ATNO][  2].d[  4] =         0.022272270120;
  BAS[ATNO][  2].a[  5] =        88.283581000000;     BAS[ATNO][  2].d[  5] =         0.042635568247;
  BAS[ATNO][  2].a[  6] =        32.948607069000;     BAS[ATNO][  2].d[  6] =         0.034623011942;
  BAS[ATNO][  2].a[  7] =       142.553580000000;     BAS[ATNO][  2].d[  7] =         0.009826702579;
  BAS[ATNO][  2].a[  8] =        44.163688009000;     BAS[ATNO][  2].d[  8] =         0.041807377263;
  BAS[ATNO][  2].a[  9] =         8.952499500000;     BAS[ATNO][  2].d[  9] =        -0.097490625108;
  BAS[ATNO][  2].a[ 10] =         4.554692094100;     BAS[ATNO][  2].d[ 10] =        -0.370151473711;
  BAS[ATNO][  2].a[ 11] =         2.144407900100;     BAS[ATNO][  2].d[ 11] =        -0.191295404781;
  BAS[ATNO][  2].a[ 12] =         0.607087770000;     BAS[ATNO][  2].d[ 12] =         0.734892359608;
  BAS[ATNO][  2].a[ 13] =         0.216514320000;     BAS[ATNO][  2].d[ 13] =         0.479707831291;

  // Basis function   4 L = s
  InitBFNGauss(BAS[ATNO][  3]);
  BAS[ATNO][  3].l  = 0;
  BAS[ATNO][  3].ng = 14;
  BAS[ATNO][  3].a[  0] =     79111.422997999995;     BAS[ATNO][  3].d[  0] =         0.000050185636;
  BAS[ATNO][  3].a[  1] =     11864.746009000000;     BAS[ATNO][  3].d[  1] =         0.000388105745;
  BAS[ATNO][  3].a[  2] =      2700.164297300000;     BAS[ATNO][  3].d[  2] =         0.001997132671;
  BAS[ATNO][  3].a[  3] =       763.959434850000;     BAS[ATNO][  3].d[  3] =         0.007837423970;
  BAS[ATNO][  3].a[  4] =       248.451505610000;     BAS[ATNO][  3].d[  4] =         0.023033398748;
  BAS[ATNO][  3].a[  5] =        88.283581000000;     BAS[ATNO][  3].d[  5] =         0.044092588631;
  BAS[ATNO][  3].a[  6] =        32.948607069000;     BAS[ATNO][  3].d[  6] =         0.035806212641;
  BAS[ATNO][  3].a[  7] =       142.553580000000;     BAS[ATNO][  3].d[  7] =         0.006540097937;
  BAS[ATNO][  3].a[  8] =        44.163688009000;     BAS[ATNO][  3].d[  8] =         0.027824627800;
  BAS[ATNO][  3].a[  9] =         8.952499500000;     BAS[ATNO][  3].d[  9] =        -0.064884250944;
  BAS[ATNO][  3].a[ 10] =         4.554692094100;     BAS[ATNO][  3].d[ 10] =        -0.441586380825;
  BAS[ATNO][  3].a[ 11] =         2.144407900100;     BAS[ATNO][  3].d[ 11] =        -0.228213181536;
  BAS[ATNO][  3].a[ 12] =         0.607087770000;     BAS[ATNO][  3].d[ 12] =         2.150924425917;
  BAS[ATNO][  3].a[ 13] =         0.216514320000;     BAS[ATNO][  3].d[ 13] =        -1.860179623761;

  // Basis function   5 L = s
  InitBFNGauss(BAS[ATNO][  4]);
  BAS[ATNO][  4].l  = 0;
  BAS[ATNO][  4].ng = 14;
  BAS[ATNO][  4].a[  0] =     79111.422997999995;     BAS[ATNO][  4].d[  0] =         0.000392075913;
  BAS[ATNO][  4].a[  1] =     11864.746009000000;     BAS[ATNO][  4].d[  1] =         0.003032081013;
  BAS[ATNO][  4].a[  2] =      2700.164297300000;     BAS[ATNO][  4].d[  2] =         0.015602624098;
  BAS[ATNO][  4].a[  3] =       763.959434850000;     BAS[ATNO][  4].d[  3] =         0.061229973279;
  BAS[ATNO][  4].a[  4] =       248.451505610000;     BAS[ATNO][  4].d[  4] =         0.179948717236;
  BAS[ATNO][  4].a[  5] =        88.283581000000;     BAS[ATNO][  4].d[  5] =         0.344473902908;
  BAS[ATNO][  4].a[  6] =        32.948607069000;     BAS[ATNO][  4].d[  6] =         0.279736486326;
  BAS[ATNO][  4].a[  7] =       142.553580000000;     BAS[ATNO][  4].d[  7] =        -0.318302841488;
  BAS[ATNO][  4].a[  8] =        44.163688009000;     BAS[ATNO][  4].d[  8] =        -1.354208786781;
  BAS[ATNO][  4].a[  9] =         8.952499500000;     BAS[ATNO][  4].d[  9] =         3.157879536891;
  BAS[ATNO][  4].a[ 10] =         4.554692094100;     BAS[ATNO][  4].d[ 10] =        -2.109667466695;
  BAS[ATNO][  4].a[ 11] =         2.144407900100;     BAS[ATNO][  4].d[ 11] =        -1.090282548248;
  BAS[ATNO][  4].a[ 12] =         0.607087770000;     BAS[ATNO][  4].d[ 12] =         1.439421941678;
  BAS[ATNO][  4].a[ 13] =         0.216514320000;     BAS[ATNO][  4].d[ 13] =        -0.631698250232;

  // Basis function   6 L = p
  InitBFNGauss(BAS[ATNO][  5]);
  BAS[ATNO][  5].l  = 1;
  BAS[ATNO][  5].ng = 9;
  BAS[ATNO][  5].a[  0] =       776.775419980000;     BAS[ATNO][  5].d[  0] =         0.002276079204;
  BAS[ATNO][  5].a[  1] =       183.801070180000;     BAS[ATNO][  5].d[  1] =         0.018282797342;
  BAS[ATNO][  5].a[  2] =        58.694003175000;     BAS[ATNO][  5].d[  2] =         0.085173465926;
  BAS[ATNO][  5].a[  3] =        21.701591695000;     BAS[ATNO][  5].d[  3] =         0.250125619603;
  BAS[ATNO][  5].a[  4] =         8.582148963500;     BAS[ATNO][  5].d[  4] =         0.436695043465;
  BAS[ATNO][  5].a[  5] =         3.492267916100;     BAS[ATNO][  5].d[  5] =         0.345280293715;
  BAS[ATNO][  5].a[  6] =         1.263742699800;     BAS[ATNO][  5].d[  6] =         0.077966544301;
  BAS[ATNO][  5].a[  7] =         0.466078700100;     BAS[ATNO][  5].d[  7] =        -0.010054361728;
  BAS[ATNO][  5].a[  8] =         0.157660030000;     BAS[ATNO][  5].d[  8] =         0.003017987571;

  // Basis function   7 L = p
  InitBFNGauss(BAS[ATNO][  6]);
  BAS[ATNO][  6].l  = 1;
  BAS[ATNO][  6].ng = 9;
  BAS[ATNO][  6].a[  0] =       776.775419980000;     BAS[ATNO][  6].d[  0] =        -0.000729757453;
  BAS[ATNO][  6].a[  1] =       183.801070180000;     BAS[ATNO][  6].d[  1] =        -0.005861838025;
  BAS[ATNO][  6].a[  2] =        58.694003175000;     BAS[ATNO][  6].d[  2] =        -0.027308351776;
  BAS[ATNO][  6].a[  3] =        21.701591695000;     BAS[ATNO][  6].d[  3] =        -0.080195379325;
  BAS[ATNO][  6].a[  4] =         8.582148963500;     BAS[ATNO][  6].d[  4] =        -0.140013344957;
  BAS[ATNO][  6].a[  5] =         3.492267916100;     BAS[ATNO][  6].d[  5] =        -0.104009251506;
  BAS[ATNO][  6].a[  6] =         1.263742699800;     BAS[ATNO][  6].d[  6] =         0.282815929686;
  BAS[ATNO][  6].a[  7] =         0.466078700100;     BAS[ATNO][  6].d[  7] =         0.546030800320;
  BAS[ATNO][  6].a[  8] =         0.157660030000;     BAS[ATNO][  6].d[  8] =         0.350288534717;

  // Basis function   8 L = p
  InitBFNGauss(BAS[ATNO][  7]);
  BAS[ATNO][  7].l  = 1;
  BAS[ATNO][  7].ng = 9;
  BAS[ATNO][  7].a[  0] =       776.775419980000;     BAS[ATNO][  7].d[  0] =         0.000551324708;
  BAS[ATNO][  7].a[  1] =       183.801070180000;     BAS[ATNO][  7].d[  1] =         0.004428562015;
  BAS[ATNO][  7].a[  2] =        58.694003175000;     BAS[ATNO][  7].d[  2] =         0.020631196027;
  BAS[ATNO][  7].a[  3] =        21.701591695000;     BAS[ATNO][  7].d[  3] =         0.060586834566;
  BAS[ATNO][  7].a[  4] =         8.582148963500;     BAS[ATNO][  7].d[  4] =         0.105778729888;
  BAS[ATNO][  7].a[  5] =         3.492267916100;     BAS[ATNO][  7].d[  5] =         0.035202043477;
  BAS[ATNO][  7].a[  6] =         1.263742699800;     BAS[ATNO][  7].d[  6] =        -0.078349862535;
  BAS[ATNO][  7].a[  7] =         0.466078700100;     BAS[ATNO][  7].d[  7] =        -1.083897308451;
  BAS[ATNO][  7].a[  8] =         0.157660030000;     BAS[ATNO][  7].d[  8] =         1.359274639072;

  // Basis function   9 L = p
  InitBFNGauss(BAS[ATNO][  8]);
  BAS[ATNO][  8].l  = 1;
  BAS[ATNO][  8].ng = 9;
  BAS[ATNO][  8].a[  0] =       776.775419980000;     BAS[ATNO][  8].d[  0] =         0.001071760418;
  BAS[ATNO][  8].a[  1] =       183.801070180000;     BAS[ATNO][  8].d[  1] =         0.008609005559;
  BAS[ATNO][  8].a[  2] =        58.694003175000;     BAS[ATNO][  8].d[  2] =         0.040106490705;
  BAS[ATNO][  8].a[  3] =        21.701591695000;     BAS[ATNO][  8].d[  3] =         0.117779178392;
  BAS[ATNO][  8].a[  4] =         8.582148963500;     BAS[ATNO][  8].d[  4] =         0.205631008566;
  BAS[ATNO][  8].a[  5] =         3.492267916100;     BAS[ATNO][  8].d[  5] =         0.399235489736;
  BAS[ATNO][  8].a[  6] =         1.263742699800;     BAS[ATNO][  8].d[  6] =        -2.064158380697;
  BAS[ATNO][  8].a[  7] =         0.466078700100;     BAS[ATNO][  8].d[  7] =         2.072758833303;
  BAS[ATNO][  8].a[  8] =         0.157660030000;     BAS[ATNO][  8].d[  8] =        -0.774883742034;

  // Basis function  10 L = p
  InitBFNGauss(BAS[ATNO][  9]);
  BAS[ATNO][  9].l  = 1;
  BAS[ATNO][  9].ng = 9;
  BAS[ATNO][  9].a[  0] =       776.775419980000;     BAS[ATNO][  9].d[  0] =        -0.003847361603;
  BAS[ATNO][  9].a[  1] =       183.801070180000;     BAS[ATNO][  9].d[  1] =        -0.030904255165;
  BAS[ATNO][  9].a[  2] =        58.694003175000;     BAS[ATNO][  9].d[  2] =        -0.143972635867;
  BAS[ATNO][  9].a[  3] =        21.701591695000;     BAS[ATNO][  9].d[  3] =        -0.422798865359;
  BAS[ATNO][  9].a[  4] =         8.582148963500;     BAS[ATNO][  9].d[  4] =        -0.738165763177;
  BAS[ATNO][  9].a[  5] =         3.492267916100;     BAS[ATNO][  9].d[  5] =         2.272367899104;
  BAS[ATNO][  9].a[  6] =         1.263742699800;     BAS[ATNO][  9].d[  6] =        -1.958635386667;
  BAS[ATNO][  9].a[  7] =         0.466078700100;     BAS[ATNO][  9].d[  7] =         1.006514536157;
  BAS[ATNO][  9].a[  8] =         0.157660030000;     BAS[ATNO][  9].d[  8] =        -0.303299488166;

  // Basis function  11 L = d
  InitBFNGauss(BAS[ATNO][ 10]);
  BAS[ATNO][ 10].l  = 2;
  BAS[ATNO][ 10].ng = 3;
  BAS[ATNO][ 10].a[  0] =         5.551000000000;     BAS[ATNO][ 10].d[  0] =         0.059827081782;
  BAS[ATNO][ 10].a[  1] =         1.235000000000;     BAS[ATNO][ 10].d[  1] =         0.299135408912;
  BAS[ATNO][ 10].a[  2] =         0.412000000000;     BAS[ATNO][ 10].d[  2] =         0.776450428152;

  // Basis function  12 L = d
  InitBFNGauss(BAS[ATNO][ 11]);
  BAS[ATNO][ 11].l  = 2;
  BAS[ATNO][ 11].ng = 3;
  BAS[ATNO][ 11].a[  0] =         5.551000000000;     BAS[ATNO][ 11].d[  0] =         0.213624865133;
  BAS[ATNO][ 11].a[  1] =         1.235000000000;     BAS[ATNO][ 11].d[  1] =         1.068124325667;
  BAS[ATNO][ 11].a[  2] =         0.412000000000;     BAS[ATNO][ 11].d[  2] =        -0.935614960439;

  // Basis function  13 L = f
  InitBFNGauss(BAS[ATNO][ 12]);
  BAS[ATNO][ 12].l  = 3;
  BAS[ATNO][ 12].ng = 1;
  BAS[ATNO][ 12].a[  0] =         0.890000000000;     BAS[ATNO][ 12].d[  0] =         1.000000000000;

-------
TIMINGS
-------

Total SCF time: 0 days 0 hours 0 min 1 sec 

Total time                  ....       1.961 sec
Sum of individual times     ....       1.882 sec  ( 96.0%)

Fock matrix formation       ....       1.556 sec  ( 79.3%)
  Split-RI-J                ....       0.456 sec  ( 29.3% of F)
  XC integration            ....       0.176 sec  ( 11.3% of F)
    Basis function eval.    ....       0.055 sec  ( 31.5% of XC)
    Density eval.           ....       0.044 sec  ( 25.2% of XC)
    XC-Functional eval.     ....       0.027 sec  ( 15.5% of XC)
    XC-Potential eval.      ....       0.038 sec  ( 21.8% of XC)
Diagonalization             ....       0.001 sec  (  0.0%)
Density matrix formation    ....       0.000 sec  (  0.0%)
Population analysis         ....       0.001 sec  (  0.0%)
Initial guess               ....       0.099 sec  (  5.0%)
Orbital Transformation      ....       0.000 sec  (  0.0%)
Orbital Orthonormalization  ....       0.000 sec  (  0.0%)
DIIS solution               ....       0.000 sec  (  0.0%)
SOSCF solution              ....       0.021 sec  (  1.1%)
Grid generation             ....       0.204 sec  ( 10.4%)


-------------------------------------------------------------------------------
                          DFT DISPERSION CORRECTION                            
                                                                               
                                 DFTD4 V2.0                                    
-------------------------------------------------------------------------------
The BLYP functional is recognized
Active option DFTDOPT                   ...         5   

-------------------------   ----------------
Dispersion correction            0.000000000
-------------------------   ----------------


-------------------------   --------------------
FINAL SINGLE POINT ENERGY      -527.531527277400
-------------------------   --------------------


                            ***************************************
                            *     ORCA property calculations      *
                            ***************************************

                                    ---------------------
                                    Active property flags
                                    ---------------------
   (+) Dipole Moment


------------------------------------------------------------------------------
                       ORCA ELECTRIC PROPERTIES CALCULATION
------------------------------------------------------------------------------

Dipole Moment Calculation                       ... on
Quadrupole Moment Calculation                   ... off
Polarizability Calculation                      ... off
GBWName                                         ... argon@water.gbw
Electron density file                           ... argon@water.scfp
The origin for moment calculation is the CENTER OF MASS  = ( 0.000000,  0.000000  0.000000)

-------------
DIPOLE MOMENT
-------------
                                X             Y             Z
Electronic contribution:     -0.00000      -0.00000      -0.00000
Nuclear contribution   :      0.00000       0.00000       0.00000
                        -----------------------------------------
Total Dipole Moment    :     -0.00000      -0.00000      -0.00000
                        -----------------------------------------
Magnitude (a.u.)       :      0.00000
Magnitude (Debye)      :      0.00000



--------------------
Rotational spectrum 
--------------------
 
Rotational constants in cm-1:     0.000000     0.000000     0.000000 
Rotational constants in MHz :     0.000000     0.000000     0.000000 

 Dipole components along the rotational axes: 
x,y,z [a.u.] :    -0.000000    -0.000000    -0.000000 
x,y,z [Debye]:    -0.000000    -0.000000    -0.000000 

 

Timings for individual modules:

Sum of individual times         ...        2.104 sec (=   0.035 min)
GTO integral calculation        ...        0.127 sec (=   0.002 min)   6.0 %
SCF iterations                  ...        1.977 sec (=   0.033 min)  94.0 %
                             ****ORCA TERMINATED NORMALLY****
TOTAL RUN TIME: 0 days 0 hours 0 minutes 2 seconds 253 msec
