(SLURM) JOB ID:         341

                                 *****************
                                 * O   R   C   A *
                                 *****************

           --- An Ab Initio, DFT and Semiempirical electronic structure package ---

                  #######################################################
                  #                        -***-                        #
                  #          Department of theory and spectroscopy      #
                  #               Directorship: Frank Neese             #
                  #        Max Planck Institute fuer Kohlenforschung    #
                  #                Kaiser Wilhelm Platz 1               #
                  #                 D-45470 Muelheim/Ruhr               #
                  #                      Germany                        #
                  #                                                     #
                  #                  All rights reserved                #
                  #                        -***-                        #
                  #######################################################


                         Program Version 4.2.1 -  RELEASE  -


 With contributions from (in alphabetic order):
   Daniel Aravena         : Magnetic Suceptibility
   Michael Atanasov       : Ab Initio Ligand Field Theory (pilot matlab implementation)
   Alexander A. Auer      : GIAO ZORA, VPT2
   Ute Becker             : Parallelization
   Giovanni Bistoni       : ED, misc. LED, open-shell LED, HFLD
   Martin Brehm           : Molecular dynamics
   Dmytro Bykov           : SCF Hessian
   Vijay G. Chilkuri      : MRCI spin determinant printing, contributions to CSF-ICE
   Dipayan Datta          : RHF DLPNO-CCSD density
   Achintya Kumar Dutta   : EOM-CC, STEOM-CC
   Dmitry Ganyushin       : Spin-Orbit,Spin-Spin,Magnetic field MRCI
   Miquel Garcia          : C-PCM Hessian, Gaussian charge scheme
   Yang Guo               : DLPNO-NEVPT2, CIM, IAO-localization
   Andreas Hansen         : Spin unrestricted coupled pair/coupled cluster methods
   Benjamin Helmich-Paris : CASSCF linear response (MC-RPA)
   Lee Huntington         : MR-EOM, pCC
   Robert Izsak           : Overlap fitted RIJCOSX, COSX-SCS-MP3, EOM
   Christian Kollmar      : KDIIS, OOCD, Brueckner-CCSD(T), CCSD density
   Simone Kossmann        : Meta GGA functionals, TD-DFT gradient, OOMP2, MP2 Hessian
   Martin Krupicka        : AUTO-CI
   Lucas Lang             : DCDCAS
   Dagmar Lenk            : GEPOL surface, SMD
   Dimitrios Liakos       : Extrapolation schemes; Compound Job, initial MDCI parallelization
   Dimitrios Manganas     : Further ROCIS development; embedding schemes
   Dimitrios Pantazis     : SARC Basis sets
   Taras Petrenko         : DFT Hessian,TD-DFT gradient, ASA, ECA, R-Raman, ABS, FL, XAS/XES, NRVS
   Peter Pinski           : DLPNO-MP2, DLPNO-MP2 Gradient
   Christoph Reimann      : Effective Core Potentials
   Marius Retegan         : Local ZFS, SOC
   Christoph Riplinger    : Optimizer, TS searches, QM/MM, DLPNO-CCSD(T), (RO)-DLPNO pert. Triples
   Tobias Risthaus        : Range-separated hybrids, TD-DFT gradient, RPA, STAB
   Michael Roemelt        : Original ROCIS implementation
   Masaaki Saitow         : Open-shell DLPNO-CCSD energy and density
   Barbara Sandhoefer     : DKH picture change effects
   Avijit Sen             : IP-ROCIS
   Kantharuban Sivalingam : CASSCF convergence, NEVPT2, FIC-MRCI
   Bernardo de Souza      : ESD, SOC TD-DFT
   Georgi Stoychev        : AutoAux, RI-MP2 NMR
   Willem Van den Heuvel  : Paramagnetic NMR
   Boris Wezisla          : Elementary symmetry handling
   Frank Wennmohs         : Technical directorship


 We gratefully acknowledge several colleagues who have allowed us to
 interface, adapt or use parts of their codes:
   Stefan Grimme, W. Hujo, H. Kruse,             : VdW corrections, initial TS optimization,
                  C. Bannwarth                     DFT functionals, gCP, sTDA/sTD-DF
   Ed Valeev, F. Pavosevic, A. Kumar             : LibInt (2-el integral package), F12 methods
   Garnet Chan, S. Sharma, J. Yang, R. Olivares  : DMRG
   Ulf Ekstrom                                   : XCFun DFT Library
   Mihaly Kallay                                 : mrcc  (arbitrary order and MRCC methods)
   Andreas Klamt, Michael Diedenhofen            : otool_cosmo (COSMO solvation model)
   Jiri Pittner, Ondrej Demel                    : Mk-CCSD
   Frank Weinhold                                : gennbo (NPA and NBO analysis)
   Christopher J. Cramer and Donald G. Truhlar   : smd solvation model
   Lars Goerigk                                  : TD-DFT with DH, B97 family of functionals
   V. Asgeirsson, H. Jonsson                     : NEB implementation
   FAccTs GmbH                                   : IRC, NEB, NEB-TS, Multilevel, MM, QM/MM, CI optimization
   S Lehtola, MJT Oliveira, MAL Marques          : LibXC Library


 Your calculation uses the libint2 library for the computation of 2-el integrals
 For citations please refer to: http://libint.valeyev.net

 Your ORCA version has been built with support for libXC version: 4.2.3
 For citations please refer to: https://tddft.org/programs/libxc/

 This ORCA versions uses:
   CBLAS   interface :  Fast vector & matrix operations
   LAPACKE interface :  Fast linear algebra routines
   SCALAPACK package :  Parallel linear algebra routines




***************************************
The coordinates will be read from file: init.xyz
***************************************


Your calculation utilizes the SMD solvation module
Please cite in your paper:
A.V. Marenich, C.J. Cramer, D.G. Truhlar J. Phys. Chem. B, 113, (2009), 6378 

Your calculation utilizes the semiempirical GFN2-xTB method
Please cite in your paper:
C. Bannwarth, Ehlert S., S. Grimme,  J. Chem. Theory Comput., 15, (2019), 1652.
   

----- Orbital basis set information -----
Your calculation utilizes the basis: def2-SVP
   F. Weigend and R. Ahlrichs, Phys. Chem. Chem. Phys. 7, 3297 (2005).

================================================================================
                                        WARNINGS
                       Please study these warnings very carefully!
================================================================================

WARNING: Gradients needed for Numerical Frequencies
  ===> : Setting RunTyp to EnGrad

WARNING: The environment variable RSH_COMMAND is not set!
  ===> : All Displacements for the Numerical Hessian calculation
         will be started on localhost

WARNING: Found dipole moment calculation with XTB calculation
  ===> : Switching off dipole moment calculation


INFO   : the flag for use of LIBINT has been found!

================================================================================
                                       INPUT FILE
================================================================================
NAME = /tmp/slurm-scratch/freq.341/freq.inp
|  1> ! XTB2 NumFreq
|  2> %maxcore 1450
|  3> 
|  4> * xyzfile 0 1 init.xyz
|  5> 
|  6> %cpcm
|  7>  smd true
|  8>  smdsolvent "ch2cl2"
|  9> end
| 10> %pal nprocs 8 end
| 11> 
| 12>                          ****END OF INPUT****
================================================================================

                     *******************************
                     * Energy+Gradient Calculation *
                     *******************************

      -----------------------------------------------------------      
     |                   =====================                   |     
     |                           x T B                           |     
     |                   =====================                   |     
     |                         S. Grimme                         |     
     |          Mulliken Center for Theoretical Chemistry        |     
     |                    University of Bonn                     |     
      -----------------------------------------------------------      

   * xtb version 6.3.0 (preview) compiled by 'ehlert@majestix' on 2020-01-15

   This program is distributed in the hope that it will be useful,
   but WITHOUT ANY WARRANTY; without even the implied warranty of
   MERCHANTABILITY or FITNESS FOR A PARTICULAR PURPOSE.
   
   FOR NON-COMMERCIAL, ACADEMIA USE ONLY.
   
   Cite this work as:
   * S. Grimme, C. Bannwarth, P. Shushkov, J. Chem. Theory Comput., 2017,
     13, 1989-2009. DOI: 10.1021/acs.jctc.7b00118
   * C. Bannwarth, S. Ehlert and S. Grimme., J. Chem. Theory Comput., 2019,
     15, 1652-1671. DOI: 10.1021/acs.jctc.8b01176
   * P. Pracht, E. Caldeweyher, S. Ehlert, S. Grimme, ChemRxiv, 2019, preprint.
     DOI: 10.26434/chemrxiv.8326202.v1
   * S. Grimme, S. Spicher unpublished
   
   for DFT-D4:
   * E. Caldeweyher, C. Bannwarth and S. Grimme, J. Chem. Phys., 2017,
     147, 034112. DOI: 10.1063/1.4993215
   * E. Caldeweyher, S. Ehlert, A. Hansen, H. Neugebauer, S. Spicher,
     C. Bannwarth and S. Grimme, J. Chem. Phys., 2019, 150, 154122.
     DOI: 10.1063/1.5090222
   
   for sTDA-xTB:
   * S. Grimme and C. Bannwarth, J. Chem. Phys., 2016, 145, 054103.
     DOI: 10.1063/1.4959605
   
   in the mass-spec context:
   * V. Asgeirsson, C. Bauer and S. Grimme, Chem. Sci., 2017, 8, 4879.
     DOI: 10.1039/c7sc00601b
   
   for metadynamics refer to:
   * S. Grimme, J. Chem. Theory Comput., 2019, 155, 2847-2862
     DOI: 10.1021/acs.jctc.9b00143
   
   with help from (in alphabetical order)
   C. Bannwarth, F. Bohle, G. Brandenburg, E. Caldeweyher, M. Checinski,
   S. Dohm, S. Ehlert, S. Ehrlich, F. März, H. Neugebauer, J. Pisarek,
   P. Pracht, P. Shushkov, and S. Spicher.
   
 * started run on 2020/12/18 at 06:49:40.209     

           -------------------------------------------------
          |                Calculation Setup                |
           -------------------------------------------------

          program call               : /opt/orca/otool_xtb /tmp/slurm-scratch/freq.341/freq_XTB.xyz --grad -c 0 -u 0 -P 8 --namespace /tmp/slurm-scratch/freq.341/freq --gbsa CH2Cl2
          hostname                   : headnode-pbs
          calculation namespace      : /tmp/slurm-scratch/freq.341/freq
          coordinate file            : /tmp/slurm-scratch/freq.341/freq_XTB.xyz
          omp threads                :                     8
          number of atoms            :                    36
          number of electrons        :                    88
          charge                     :                     0
          spin                       :                   0.0
          first test random number   :      0.33177951267048


molecular fragmentation (1/2 indicates fragments):
111111111111111111121222211111111111
# atoms in fragment 1/2:    31     5
 fragment masses (1/2) :      180.27       35.02
CMA distance (Bohr)    :   6.240
constraining FC (au)   :  0.0500

########################################################################
# WARNING! Please study the warnings concerning your input carefully
#  - Process number higher than OMP_NUM_THREADS, I hope you know what you are doing.
########################################################################

           ------------------------------------------------- 
          |                 G F N 2 - x T B                 |
          | Geometry, Frequencies, Noncovalent interactions |
          |            JCTC 2019 parametrisation            |
           ------------------------------------------------- 
             k(s)              :                1.8500
             k(p)              :                2.2300
             k(d)              :                2.2300
             k(f)              :                2.0000
             kEN (H0ij)        :               -2.0000
             D4 a1             :                0.5200
             D4 a2             :                5.0000
             D4 s6             :                1.0000
             D4 s8             :                2.7000
             D4 s9             :                5.0000
             alphaj            :                2.0000

  Z AO/shell   Hii/eV     exponent
  1     Wed Apr 25 08:07:45 CEST 2018   EN: 2.200 GM2: 0.406  GM3: 0.0800  RAES: 1.40
     1s    -10.707211    1.230000
  6     Wed Apr 25 08:07:45 CEST 2018   EN: 2.550 GM2: 0.538  GM3: 0.1500  RAES: 3.00
     2s    -13.970922    2.096432
     2p    -10.063292    1.800000
  7     Wed Apr 25 08:07:45 CEST 2018   EN: 3.040 GM2: 0.461  GM3:-0.0640  RAES: 1.90
     2s    -16.686243    2.339881
     2p    -12.523956    2.014332
  8     Wed Apr 25 08:07:45 CEST 2018   EN: 3.440 GM2: 0.452  GM3:-0.0517  RAES: 1.80
     2s    -20.229985    2.439742
     2p    -15.503117    2.137023

 Solvent             : CH2Cl2
 Using internal parameter file: .param_gbsa2_CH2Cl2
 Gsolv ref. state (COSMO-RS): gsolv [1 M gas/solution]
 temperature (mdtemp)       :    298.150000000000     
 dielectric constant        :    8.93000000000000     
 rho                        :    1.33000000000000     
 mass                       :    84.9300000000000     
 surface tension            :    15.5689454083859     
 probe radius               :   0.719875900000000     
 Gshift (Eh)                :   4.440829173451759E-003
 c1                         :    1.49173776000000     
 soset                      :   0.000000000000000E+000
 HB correction              :  F
           ------------------------------------------------- 
          |        Self-Consistent Charge Iterations        |
           ------------------------------------------------- 

          ...................................................
          :                      SETUP                      :
          :.................................................:
          :  # basis functions                  81          :
          :  # atomic orbitals                  81          :
          :  # shells                           51          :
          :  # electrons                        88          :
          :  max. iterations                   250          :
          :  Hamiltonian                  GFN2-xTB          :
          :  GBSA solvation                   true          :
          :  PC potential                    false          :
          :  electronic temp.          300.0000000     K    :
          :  accuracy                    1.0000000          :
          :  -> integral cutoff          0.2500000E+02      :
          :  -> integral neglect         0.1000000E-07      :
          :  -> SCF convergence          0.1000000E-05 Eh   :
          :  -> wf. convergence          0.1000000E-03 e    :
          :  Broyden damping             0.4000000          :
          ...................................................
  Checking positiv definite overlap ...  done.
 

 iter      E             dE          RMSdq      gap      omega  full diag
   1    -49.8408720 -0.498409E+02  0.403E+00    4.65       0.0  T
   2    -49.9410756 -0.100204E+00  0.231E+00    4.52       1.0  T
   3    -49.9432942 -0.221861E-02  0.920E-01    3.86       1.0  T
   4    -49.9432048  0.893950E-04  0.303E-01    3.83       1.0  T
   5    -49.9458728 -0.266797E-02  0.787E-02    3.89       1.0  T
   6    -49.9459029 -0.301792E-04  0.288E-02    3.95       1.0  T
   7    -49.9459056 -0.267572E-05  0.146E-02    3.95       1.1  T
   8    -49.9459076 -0.201940E-05  0.467E-03    3.95       3.6  T
   9    -49.9459078 -0.140809E-06  0.205E-03    3.95       8.1  T
  10    -49.9459078 -0.412511E-07  0.811E-04    3.95      20.6  T
  11    -49.9459078 -0.377793E-08  0.382E-04    3.95      43.6  T

   *** convergence criteria satisfied after 11 iterations ***

         #    Occupation            Energy/Eh            Energy/eV
      -------------------------------------------------------------
         1        2.0000           -0.7053641             -19.1939
       ...           ...                  ...                  ...
        38        2.0000           -0.4292859             -11.6815
        39        2.0000           -0.4205460             -11.4436
        40        2.0000           -0.4178401             -11.3700
        41        2.0000           -0.4133101             -11.2467
        42        2.0000           -0.4113825             -11.1943
        43        2.0000           -0.3916251             -10.6567
        44        2.0000           -0.3864396             -10.5156 (HOMO)
        45                         -0.2412312              -6.5642 (LUMO)
        46                         -0.2342021              -6.3730
        47                         -0.1173564              -3.1934
        48                         -0.0633876              -1.7249
        49                          0.0017173               0.0467
       ...                                ...                  ...
        81                          0.6370241              17.3343
      -------------------------------------------------------------
                  HL-Gap            0.1452083 Eh            3.9513 eV
             Fermi-level           -0.3138354 Eh           -8.5399 eV

 SCC (total)                   0 d,  0 h,  0 min,  0.038 sec
 SCC setup                      ...        0 min,  0.002 sec (  4.277%)
 Dispersion                     ...        0 min,  0.001 sec (  1.446%)
 integral evaluation            ...        0 min,  0.005 sec ( 14.499%)
 zeroth order Hamiltonian       ...        0 min,  0.000 sec (  0.029%)
 iterations                     ...        0 min,  0.023 sec ( 59.635%)
 molecular gradient             ...        0 min,  0.007 sec ( 19.007%)
 printout                       ...        0 min,  0.000 sec (  0.967%)

         :::::::::::::::::::::::::::::::::::::::::::::::::::::
         ::                     SUMMARY                     ::
         :::::::::::::::::::::::::::::::::::::::::::::::::::::
         :: total energy             -49.358917114005 Eh    ::
         :: total w/o Gsasa/hb       -49.341451243490 Eh    ::
         :: gradient norm              0.033240566177 Eh/a0 ::
         :: HOMO-LUMO gap              3.951319420657 eV    ::
         ::.................................................::
         :: SCC energy               -49.963373686757 Eh    ::
         :: -> isotropic ES            0.167165809744 Eh    ::
         :: -> anisotropic ES         -0.014455674565 Eh    ::
         :: -> anisotropic XC          0.018890179202 Eh    ::
         :: -> dispersion             -0.029433678713 Eh    ::
         :: -> Gsolv                  -0.039218329216 Eh    ::
         ::    -> Gborn               -0.021752458702 Eh    ::
         ::    -> Gsasa               -0.021906699688 Eh    ::
         ::    -> Ghb                  0.000000000000 Eh    ::
         ::    -> Gshift               0.004440829173 Eh    ::
         :: repulsion energy           0.604274914353 Eh    ::
         :: add. restraining           0.000000000000 Eh    ::
         :::::::::::::::::::::::::::::::::::::::::::::::::::::

           -------------------------------------------------
          |                Property Printout                |
           -------------------------------------------------

    * Orbital Energies and Occupations

         #    Occupation            Energy/Eh            Energy/eV
      -------------------------------------------------------------
         1        2.0000           -0.7053641             -19.1939
       ...           ...                  ...                  ...
        32        2.0000           -0.4672872             -12.7155
        33        2.0000           -0.4558779             -12.4051
        34        2.0000           -0.4546961             -12.3729
        35        2.0000           -0.4476023             -12.1799
        36        2.0000           -0.4429362             -12.0529
        37        2.0000           -0.4299665             -11.7000
        38        2.0000           -0.4292859             -11.6815
        39        2.0000           -0.4205460             -11.4436
        40        2.0000           -0.4178401             -11.3700
        41        2.0000           -0.4133101             -11.2467
        42        2.0000           -0.4113825             -11.1943
        43        2.0000           -0.3916251             -10.6567
        44        2.0000           -0.3864396             -10.5156 (HOMO)
        45                         -0.2412312              -6.5642 (LUMO)
        46                         -0.2342021              -6.3730
        47                         -0.1173564              -3.1934
        48                         -0.0633876              -1.7249
        49                          0.0017173               0.0467
        50                          0.0150672               0.4100
        51                          0.0522011               1.4205
        52                          0.0653501               1.7783
        53                          0.0879135               2.3922
        54                          0.0927890               2.5249
        55                          0.1102627               3.0004
       ...                                ...                  ...
        81                          0.6370241              17.3343
      -------------------------------------------------------------
                  HL-Gap            0.1452083 Eh            3.9513 eV
             Fermi-level           -0.3138354 Eh           -8.5399 eV

     #   Z        covCN         q      C6AA      α(0)
     1   6 C      2.966    -0.024    28.611     8.774
     2   6 C      2.919    -0.044    29.084     8.844
     3   6 C      2.914    -0.028    28.704     8.785
     4   6 C      2.915    -0.028    28.691     8.784
     5   6 C      2.915    -0.028    28.702     8.785
     6   6 C      2.916    -0.032    28.806     8.801
     7   6 C      3.659     0.169    18.138     6.112
     8   1 H      0.925     0.044     2.398     2.422
     9   1 H      0.926     0.061     2.186     2.312
    10   1 H      0.925     0.045     2.384     2.415
    11   7 N      3.515    -0.122    23.649     7.223
    12   6 C      3.734    -0.017    20.963     6.535
    13   1 H      0.864     0.279     0.778     1.381
    14   6 C      3.801    -0.070    21.846     6.655
    15   1 H      0.925     0.088     1.901     2.156
    16   1 H      0.924     0.080     1.983     2.202
    17   1 H      0.924     0.053     2.284     2.363
    18   1 H      0.924     0.057     2.235     2.338
    19   8 O      1.641    -0.493    22.755     6.439
    20   8 O      1.270    -0.796    31.027     7.486
    21   1 H      0.806     0.345     0.600     1.217
    22   1 H      0.805     0.222     1.013     1.581
    23   8 O      1.449    -0.731    28.758     7.227
    24   1 H      1.074     0.325     0.635     1.245
    25   1 H      0.805     0.247     0.906     1.495
    26   1 H      0.925     0.063     2.166     2.302
    27   1 H      0.860     0.210     1.056     1.610
    28   1 H      0.925     0.049     2.338     2.391
    29   1 H      0.925     0.040     2.445     2.445
    30   6 C      3.800    -0.056    21.581     6.614
    31   1 H      0.924     0.040     2.450     2.448
    32   1 H      0.924     0.041     2.432     2.439
    33   6 C      3.749    -0.106    22.587     6.778
    34   1 H      0.924     0.040     2.447     2.446
    35   1 H      0.924     0.040     2.454     2.450
    36   1 H      0.924     0.039     2.464     2.455

 Mol. C6AA /au·bohr⁶  :      10728.811603
 Mol. C8AA /au·bohr⁸  :     236651.990833
 Mol. α(0) /au        :        157.952221


Wiberg/Mayer (AO) data.
largest (>0.10) Wiberg bond orders for each atom
          total WBO             WBO to atom ...
     1  C   3.984        C    6 1.418    C    2 1.410    C    7 0.972    C    4 0.109
     2  C   3.990        C    3 1.446    C    1 1.410    H    8 0.967    C    5 0.112
     3  C   3.991        C    2 1.446    C    4 1.436    H   28 0.970    C    6 0.111
     4  C   3.990        C    5 1.442    C    3 1.436    H   10 0.971    C    1 0.109
     5  C   3.991        C    4 1.442    C    6 1.439    H   29 0.971    C    2 0.112
     6  C   3.989        C    5 1.439    C    1 1.418    H    9 0.960    C    3 0.111
     7  C   3.932        O   19 1.082    C    1 0.972    H   26 0.949    N   11 0.870
     8  H   0.998        C    2 0.967
     9  H   0.996        C    6 0.960
    10  H   0.997        C    4 0.971
    11  N   3.657        C   12 0.951    H   27 0.931    C    7 0.870    H   13 0.718
    12  C   3.933        C   14 1.010    H   15 0.968    H   16 0.967    N   11 0.951
    13  H   0.922        N   11 0.718    O   23 0.184
    14  C   3.990        C   12 1.010    C   30 1.003    H   17 0.973    H   18 0.971
    15  H   0.992        C   12 0.968
    16  H   0.993        C   12 0.967
    17  H   0.997        C   14 0.973
    18  H   0.997        C   14 0.971
    19  O   1.964        C    7 1.082    H   21 0.701
    20  O   1.693        H   22 0.943    H   24 0.401    H   21 0.161    O   23 0.112
    21  H   0.881        O   19 0.701    O   20 0.161
    22  H   0.951        O   20 0.943
    23  O   1.812        H   25 0.934    H   24 0.492    H   13 0.184    O   20 0.112
    24  H   0.894        O   23 0.492    O   20 0.401
    25  H   0.939        O   23 0.934
    26  H   0.996        C    7 0.949
    27  H   0.956        N   11 0.931
    28  H   0.997        C    3 0.970
    29  H   0.998        C    5 0.971
    30  C   3.995        C   33 1.020    C   14 1.003    H   31 0.977    H   32 0.977
    31  H   0.998        C   30 0.977
    32  H   0.998        C   30 0.977
    33  C   3.995        C   30 1.020    H   36 0.987    H   34 0.987    H   35 0.987
    34  H   0.998        C   33 0.987
    35  H   0.998        C   33 0.987
    36  H   0.998        C   33 0.987

molecular dipole:
                 x           y           z       tot (Debye)
 q only:       -0.271       3.437       0.516
   full:       -0.372       3.195       0.813       8.432
molecular quadrupole (traceless):
                xx          xy          yy          xz          yz          zz
 q only:       10.588      18.396      -1.126      -1.194       1.269      -9.462
  q+dip:        9.497      15.153       2.956      -2.006       1.250     -12.453
   full:        9.053      15.371       1.313      -1.330       1.363     -10.366

           -------------------------------------------------
          |                Property Printout                |
           -------------------------------------------------

    * Orbital Energies and Occupations

         #    Occupation            Energy/Eh            Energy/eV
      -------------------------------------------------------------
         1        2.0000           -0.7053641             -19.1939
       ...           ...                  ...                  ...
        32        2.0000           -0.4672872             -12.7155
        33        2.0000           -0.4558779             -12.4051
        34        2.0000           -0.4546961             -12.3729
        35        2.0000           -0.4476023             -12.1799
        36        2.0000           -0.4429362             -12.0529
        37        2.0000           -0.4299665             -11.7000
        38        2.0000           -0.4292859             -11.6815
        39        2.0000           -0.4205460             -11.4436
        40        2.0000           -0.4178401             -11.3700
        41        2.0000           -0.4133101             -11.2467
        42        2.0000           -0.4113825             -11.1943
        43        2.0000           -0.3916251             -10.6567
        44        2.0000           -0.3864396             -10.5156 (HOMO)
        45                         -0.2412312              -6.5642 (LUMO)
        46                         -0.2342021              -6.3730
        47                         -0.1173564              -3.1934
        48                         -0.0633876              -1.7249
        49                          0.0017173               0.0467
        50                          0.0150672               0.4100
        51                          0.0522011               1.4205
        52                          0.0653501               1.7783
        53                          0.0879135               2.3922
        54                          0.0927890               2.5249
        55                          0.1102627               3.0004
       ...                                ...                  ...
        81                          0.6370241              17.3343
      -------------------------------------------------------------
                  HL-Gap            0.1452083 Eh            3.9513 eV
             Fermi-level           -0.3138354 Eh           -8.5399 eV

     #   Z        covCN         q      C6AA      α(0)
     1   6 C      2.966    -0.024    28.611     8.774
     2   6 C      2.919    -0.044    29.084     8.844
     3   6 C      2.914    -0.028    28.704     8.785
     4   6 C      2.915    -0.028    28.691     8.784
     5   6 C      2.915    -0.028    28.702     8.785
     6   6 C      2.916    -0.032    28.806     8.801
     7   6 C      3.659     0.169    18.138     6.112
     8   1 H      0.925     0.044     2.398     2.422
     9   1 H      0.926     0.061     2.186     2.312
    10   1 H      0.925     0.045     2.384     2.415
    11   7 N      3.515    -0.122    23.649     7.223
    12   6 C      3.734    -0.017    20.963     6.535
    13   1 H      0.864     0.279     0.778     1.381
    14   6 C      3.801    -0.070    21.846     6.655
    15   1 H      0.925     0.088     1.901     2.156
    16   1 H      0.924     0.080     1.983     2.202
    17   1 H      0.924     0.053     2.284     2.363
    18   1 H      0.924     0.057     2.235     2.338
    19   8 O      1.641    -0.493    22.755     6.439
    20   8 O      1.270    -0.796    31.027     7.486
    21   1 H      0.806     0.345     0.600     1.217
    22   1 H      0.805     0.222     1.013     1.581
    23   8 O      1.449    -0.731    28.758     7.227
    24   1 H      1.074     0.325     0.635     1.245
    25   1 H      0.805     0.247     0.906     1.495
    26   1 H      0.925     0.063     2.166     2.302
    27   1 H      0.860     0.210     1.056     1.610
    28   1 H      0.925     0.049     2.338     2.391
    29   1 H      0.925     0.040     2.445     2.445
    30   6 C      3.800    -0.056    21.581     6.614
    31   1 H      0.924     0.040     2.450     2.448
    32   1 H      0.924     0.041     2.432     2.439
    33   6 C      3.749    -0.106    22.587     6.778
    34   1 H      0.924     0.040     2.447     2.446
    35   1 H      0.924     0.040     2.454     2.450
    36   1 H      0.924     0.039     2.464     2.455

 Mol. C6AA /au·bohr⁶  :      10728.811603
 Mol. C8AA /au·bohr⁸  :     236651.990833
 Mol. α(0) /au        :        157.952221


Wiberg/Mayer (AO) data.
largest (>0.10) Wiberg bond orders for each atom
          total WBO             WBO to atom ...
     1  C   3.984        C    6 1.418    C    2 1.410    C    7 0.972    C    4 0.109
     2  C   3.990        C    3 1.446    C    1 1.410    H    8 0.967    C    5 0.112
     3  C   3.991        C    2 1.446    C    4 1.436    H   28 0.970    C    6 0.111
     4  C   3.990        C    5 1.442    C    3 1.436    H   10 0.971    C    1 0.109
     5  C   3.991        C    4 1.442    C    6 1.439    H   29 0.971    C    2 0.112
     6  C   3.989        C    5 1.439    C    1 1.418    H    9 0.960    C    3 0.111
     7  C   3.932        O   19 1.082    C    1 0.972    H   26 0.949    N   11 0.870
     8  H   0.998        C    2 0.967
     9  H   0.996        C    6 0.960
    10  H   0.997        C    4 0.971
    11  N   3.657        C   12 0.951    H   27 0.931    C    7 0.870    H   13 0.718
    12  C   3.933        C   14 1.010    H   15 0.968    H   16 0.967    N   11 0.951
    13  H   0.922        N   11 0.718    O   23 0.184
    14  C   3.990        C   12 1.010    C   30 1.003    H   17 0.973    H   18 0.971
    15  H   0.992        C   12 0.968
    16  H   0.993        C   12 0.967
    17  H   0.997        C   14 0.973
    18  H   0.997        C   14 0.971
    19  O   1.964        C    7 1.082    H   21 0.701
    20  O   1.693        H   22 0.943    H   24 0.401    H   21 0.161    O   23 0.112
    21  H   0.881        O   19 0.701    O   20 0.161
    22  H   0.951        O   20 0.943
    23  O   1.812        H   25 0.934    H   24 0.492    H   13 0.184    O   20 0.112
    24  H   0.894        O   23 0.492    O   20 0.401
    25  H   0.939        O   23 0.934
    26  H   0.996        C    7 0.949
    27  H   0.956        N   11 0.931
    28  H   0.997        C    3 0.970
    29  H   0.998        C    5 0.971
    30  C   3.995        C   33 1.020    C   14 1.003    H   31 0.977    H   32 0.977
    31  H   0.998        C   30 0.977
    32  H   0.998        C   30 0.977
    33  C   3.995        C   30 1.020    H   36 0.987    H   34 0.987    H   35 0.987
    34  H   0.998        C   33 0.987
    35  H   0.998        C   33 0.987
    36  H   0.998        C   33 0.987

molecular dipole:
                 x           y           z       tot (Debye)
 q only:       -0.271       3.437       0.516
   full:       -0.372       3.195       0.813       8.432
molecular quadrupole (traceless):
                xx          xy          yy          xz          yz          zz
 q only:       10.588      18.396      -1.126      -1.194       1.269      -9.462
  q+dip:        9.497      15.153       2.956      -2.006       1.250     -12.453
   full:        9.053      15.371       1.313      -1.330       1.363     -10.366


           -------------------------------------------------
          | TOTAL ENERGY              -49.358917114005 Eh   |
          | GRADIENT NORM               0.033240566177 Eh/α |
          | HOMO-LUMO GAP               3.951319420657 eV   |
           -------------------------------------------------

------------------------------------------------------------------------
 * finished run on 2020/12/18 at 06:49:40.305     
------------------------------------------------------------------------
 total:
 * wall-time:     0 d,  0 h,  0 min,  0.096 sec
 *  cpu-time:     0 d,  0 h,  0 min,  0.711 sec
 * ratio c/w:     7.390 speedup
 SCF:
 * wall-time:     0 d,  0 h,  0 min,  0.038 sec
 *  cpu-time:     0 d,  0 h,  0 min,  0.291 sec
 * ratio c/w:     7.614 speedup


-------------------------   --------------------
FINAL SINGLE POINT ENERGY       -49.358917114000
-------------------------   --------------------


----------------------------------------------------------------------------
                           ORCA NUMERICAL FREQUENCIES
                              (8-process run)
----------------------------------------------------------------------------

Number of atoms                ... 36
Central differences            ... used
Number of displacements        ... 216
Numerical increment            ... 5.000e-03 bohr
IR-spectrum generation         ... on
Raman-spectrum generation      ... off
Surface Crossing Hessian       ... off
List of participating nodes    ...  /tmp/slurm-scratch/freq.341/freq.hostnames

The output will be reduced. Please look at the following files:
SCF program output             ... >/tmp/slurm-scratch/freq.341/freq.lastscf
Integral program output        ... >/tmp/slurm-scratch/freq.341/freq.lastint
Gradient program output        ... >/tmp/slurm-scratch/freq.341/freq.lastgrad
Dipole moment program output   ... >/tmp/slurm-scratch/freq.341/freq.lastmom
AutoCI program output          ... >/tmp/slurm-scratch/freq.341/freq.lastautoci


         <<< Energy and Gradient at the input geometry >>>

        <<< Energy and Gradient at displaced geometries >>>
             <<<Displacing   2/coordinate 3 (+)>>>
             <<<Displacing   2/coordinate 2 (+)>>>
             <<<Displacing   2/coordinate 1 (+)>>>
             <<<Displacing   2/coordinate 3 (-)>>>
             <<<Displacing   3/coordinate 1 (+)>>>
             <<<Displacing   1/coordinate 1 (+)>>>
             <<<Displacing   1/coordinate 2 (+)>>>
             <<<Displacing   1/coordinate 3 (+)>>>
             <<<Displacing   2/coordinate 1 (-)>>>
             <<<Displacing   2/coordinate 2 (-)>>>
             <<<Displacing   3/coordinate 1 (-)>>>
             <<<Displacing   1/coordinate 1 (-)>>>
             <<<Displacing   3/coordinate 2 (+)>>>
             <<<Displacing   1/coordinate 2 (-)>>>
             <<<Displacing   1/coordinate 3 (-)>>>
             <<<Displacing   3/coordinate 2 (-)>>>
             <<<Displacing   3/coordinate 3 (+)>>>
             <<<Displacing   3/coordinate 3 (-)>>>
             <<<Displacing   4/coordinate 2 (+)>>>
             <<<Displacing   4/coordinate 1 (+)>>>
             <<<Displacing   4/coordinate 2 (-)>>>
             <<<Displacing   4/coordinate 3 (+)>>>
             <<<Displacing   5/coordinate 2 (+)>>>
             <<<Displacing   4/coordinate 1 (-)>>>
             <<<Displacing   5/coordinate 1 (+)>>>
             <<<Displacing   5/coordinate 3 (+)>>>
             <<<Displacing   4/coordinate 3 (-)>>>
             <<<Displacing   6/coordinate 1 (+)>>>
             <<<Displacing   5/coordinate 2 (-)>>>
             <<<Displacing   5/coordinate 1 (-)>>>
             <<<Displacing   5/coordinate 3 (-)>>>
             <<<Displacing   6/coordinate 1 (-)>>>
             <<<Displacing   6/coordinate 2 (+)>>>
             <<<Displacing   6/coordinate 2 (-)>>>
             <<<Displacing   7/coordinate 2 (+)>>>
             <<<Displacing   6/coordinate 3 (+)>>>
             <<<Displacing   7/coordinate 2 (-)>>>
             <<<Displacing   7/coordinate 3 (+)>>>
             <<<Displacing   6/coordinate 3 (-)>>>
             <<<Displacing   8/coordinate 2 (+)>>>
             <<<Displacing   7/coordinate 1 (+)>>>
             <<<Displacing   7/coordinate 3 (-)>>>
             <<<Displacing   8/coordinate 1 (+)>>>
             <<<Displacing   8/coordinate 3 (+)>>>
             <<<Displacing   8/coordinate 2 (-)>>>
             <<<Displacing   7/coordinate 1 (-)>>>
             <<<Displacing   8/coordinate 1 (-)>>>
             <<<Displacing   8/coordinate 3 (-)>>>
             <<<Displacing   9/coordinate 1 (+)>>>
             <<<Displacing   9/coordinate 1 (-)>>>
             <<<Displacing   9/coordinate 3 (+)>>>
             <<<Displacing  10/coordinate 2 (+)>>>
             <<<Displacing   9/coordinate 2 (+)>>>
             <<<Displacing   9/coordinate 3 (-)>>>
             <<<Displacing  10/coordinate 1 (+)>>>
             <<<Displacing  10/coordinate 2 (-)>>>
             <<<Displacing   9/coordinate 2 (-)>>>
             <<<Displacing  10/coordinate 3 (+)>>>
             <<<Displacing  11/coordinate 1 (+)>>>
             <<<Displacing  10/coordinate 1 (-)>>>
             <<<Displacing  10/coordinate 3 (-)>>>
             <<<Displacing  11/coordinate 2 (+)>>>
             <<<Displacing  11/coordinate 1 (-)>>>
             <<<Displacing  11/coordinate 2 (-)>>>
             <<<Displacing  11/coordinate 3 (+)>>>
             <<<Displacing  11/coordinate 3 (-)>>>
             <<<Displacing  12/coordinate 2 (+)>>>
             <<<Displacing  12/coordinate 1 (+)>>>
             <<<Displacing  12/coordinate 3 (+)>>>
             <<<Displacing  12/coordinate 2 (-)>>>
             <<<Displacing  12/coordinate 1 (-)>>>
             <<<Displacing  13/coordinate 3 (+)>>>
             <<<Displacing  12/coordinate 3 (-)>>>
             <<<Displacing  13/coordinate 1 (+)>>>
             <<<Displacing  13/coordinate 2 (+)>>>
             <<<Displacing  13/coordinate 3 (-)>>>
             <<<Displacing  13/coordinate 2 (-)>>>
             <<<Displacing  13/coordinate 1 (-)>>>
             <<<Displacing  14/coordinate 1 (+)>>>
             <<<Displacing  14/coordinate 1 (-)>>>
             <<<Displacing  14/coordinate 2 (+)>>>
             <<<Displacing  14/coordinate 2 (-)>>>
             <<<Displacing  15/coordinate 1 (+)>>>
             <<<Displacing  14/coordinate 3 (+)>>>
             <<<Displacing  15/coordinate 3 (+)>>>
             <<<Displacing  15/coordinate 1 (-)>>>
             <<<Displacing  14/coordinate 3 (-)>>>
             <<<Displacing  15/coordinate 3 (-)>>>
             <<<Displacing  15/coordinate 2 (+)>>>
             <<<Displacing  16/coordinate 1 (+)>>>
             <<<Displacing  16/coordinate 2 (+)>>>
             <<<Displacing  16/coordinate 1 (-)>>>
             <<<Displacing  15/coordinate 2 (-)>>>
             <<<Displacing  16/coordinate 3 (+)>>>
             <<<Displacing  16/coordinate 2 (-)>>>
             <<<Displacing  16/coordinate 3 (-)>>>
             <<<Displacing  17/coordinate 1 (+)>>>
             <<<Displacing  17/coordinate 1 (-)>>>
             <<<Displacing  17/coordinate 2 (+)>>>
             <<<Displacing  18/coordinate 1 (+)>>>
             <<<Displacing  17/coordinate 2 (-)>>>
             <<<Displacing  17/coordinate 3 (+)>>>
             <<<Displacing  18/coordinate 1 (-)>>>
             <<<Displacing  18/coordinate 2 (+)>>>
             <<<Displacing  17/coordinate 3 (-)>>>
             <<<Displacing  18/coordinate 3 (+)>>>
             <<<Displacing  19/coordinate 2 (+)>>>
             <<<Displacing  18/coordinate 2 (-)>>>
             <<<Displacing  19/coordinate 1 (+)>>>
             <<<Displacing  18/coordinate 3 (-)>>>
             <<<Displacing  19/coordinate 2 (-)>>>
             <<<Displacing  19/coordinate 1 (-)>>>
             <<<Displacing  19/coordinate 3 (+)>>>
             <<<Displacing  19/coordinate 3 (-)>>>
             <<<Displacing  20/coordinate 1 (+)>>>
             <<<Displacing  20/coordinate 3 (+)>>>
             <<<Displacing  20/coordinate 2 (+)>>>
             <<<Displacing  20/coordinate 1 (-)>>>
             <<<Displacing  20/coordinate 3 (-)>>>
             <<<Displacing  20/coordinate 2 (-)>>>
             <<<Displacing  21/coordinate 2 (+)>>>
             <<<Displacing  21/coordinate 1 (+)>>>
             <<<Displacing  22/coordinate 1 (+)>>>
             <<<Displacing  21/coordinate 3 (+)>>>
             <<<Displacing  21/coordinate 2 (-)>>>
             <<<Displacing  21/coordinate 1 (-)>>>
             <<<Displacing  22/coordinate 1 (-)>>>
             <<<Displacing  21/coordinate 3 (-)>>>
             <<<Displacing  22/coordinate 3 (+)>>>
             <<<Displacing  22/coordinate 2 (+)>>>
             <<<Displacing  22/coordinate 3 (-)>>>
             <<<Displacing  22/coordinate 2 (-)>>>
             <<<Displacing  23/coordinate 1 (+)>>>
             <<<Displacing  23/coordinate 2 (+)>>>
             <<<Displacing  23/coordinate 1 (-)>>>
             <<<Displacing  24/coordinate 1 (+)>>>
             <<<Displacing  23/coordinate 3 (+)>>>
             <<<Displacing  23/coordinate 2 (-)>>>
             <<<Displacing  24/coordinate 1 (-)>>>
             <<<Displacing  24/coordinate 2 (+)>>>
             <<<Displacing  24/coordinate 3 (+)>>>
             <<<Displacing  23/coordinate 3 (-)>>>
             <<<Displacing  24/coordinate 2 (-)>>>
             <<<Displacing  24/coordinate 3 (-)>>>
             <<<Displacing  25/coordinate 1 (+)>>>
             <<<Displacing  25/coordinate 2 (+)>>>
             <<<Displacing  25/coordinate 1 (-)>>>
             <<<Displacing  25/coordinate 2 (-)>>>
             <<<Displacing  25/coordinate 3 (+)>>>
             <<<Displacing  26/coordinate 2 (+)>>>
             <<<Displacing  25/coordinate 3 (-)>>>
             <<<Displacing  26/coordinate 1 (+)>>>
             <<<Displacing  26/coordinate 2 (-)>>>
             <<<Displacing  26/coordinate 1 (-)>>>
             <<<Displacing  26/coordinate 3 (+)>>>
             <<<Displacing  27/coordinate 1 (+)>>>
             <<<Displacing  26/coordinate 3 (-)>>>
             <<<Displacing  27/coordinate 2 (+)>>>
             <<<Displacing  27/coordinate 1 (-)>>>
             <<<Displacing  27/coordinate 2 (-)>>>
             <<<Displacing  28/coordinate 1 (+)>>>
             <<<Displacing  27/coordinate 3 (+)>>>
             <<<Displacing  28/coordinate 1 (-)>>>
             <<<Displacing  27/coordinate 3 (-)>>>
             <<<Displacing  28/coordinate 3 (+)>>>
             <<<Displacing  28/coordinate 3 (-)>>>
             <<<Displacing  29/coordinate 1 (+)>>>
             <<<Displacing  28/coordinate 2 (+)>>>
             <<<Displacing  29/coordinate 2 (+)>>>
             <<<Displacing  28/coordinate 2 (-)>>>
             <<<Displacing  29/coordinate 1 (-)>>>
             <<<Displacing  29/coordinate 3 (+)>>>
             <<<Displacing  29/coordinate 2 (-)>>>
             <<<Displacing  29/coordinate 3 (-)>>>
             <<<Displacing  30/coordinate 1 (+)>>>
             <<<Displacing  30/coordinate 1 (-)>>>
             <<<Displacing  30/coordinate 2 (+)>>>
             <<<Displacing  30/coordinate 3 (+)>>>
             <<<Displacing  30/coordinate 2 (-)>>>
             <<<Displacing  31/coordinate 1 (+)>>>
             <<<Displacing  30/coordinate 3 (-)>>>
             <<<Displacing  31/coordinate 1 (-)>>>
             <<<Displacing  31/coordinate 2 (+)>>>
             <<<Displacing  31/coordinate 3 (+)>>>
             <<<Displacing  31/coordinate 2 (-)>>>
             <<<Displacing  31/coordinate 3 (-)>>>
             <<<Displacing  32/coordinate 2 (+)>>>
             <<<Displacing  32/coordinate 1 (+)>>>
             <<<Displacing  32/coordinate 3 (+)>>>
             <<<Displacing  32/coordinate 2 (-)>>>
             <<<Displacing  32/coordinate 1 (-)>>>
             <<<Displacing  32/coordinate 3 (-)>>>
             <<<Displacing  33/coordinate 3 (+)>>>
             <<<Displacing  33/coordinate 1 (+)>>>
             <<<Displacing  33/coordinate 3 (-)>>>
             <<<Displacing  33/coordinate 2 (+)>>>
             <<<Displacing  33/coordinate 1 (-)>>>
             <<<Displacing  33/coordinate 2 (-)>>>
             <<<Displacing  34/coordinate 1 (+)>>>
             <<<Displacing  34/coordinate 2 (+)>>>
             <<<Displacing  34/coordinate 1 (-)>>>
             <<<Displacing  34/coordinate 2 (-)>>>
             <<<Displacing  34/coordinate 3 (+)>>>
             <<<Displacing  35/coordinate 2 (+)>>>
             <<<Displacing  35/coordinate 1 (+)>>>
             <<<Displacing  34/coordinate 3 (-)>>>
             <<<Displacing  35/coordinate 2 (-)>>>
             <<<Displacing  35/coordinate 1 (-)>>>
             <<<Displacing  35/coordinate 3 (+)>>>
             <<<Displacing  35/coordinate 3 (-)>>>
             <<<Displacing  36/coordinate 1 (+)>>>
             <<<Displacing  36/coordinate 1 (-)>>>
             <<<Displacing  36/coordinate 2 (+)>>>
             <<<Displacing  36/coordinate 3 (+)>>>
             <<<Displacing  36/coordinate 2 (-)>>>
             <<<Displacing  36/coordinate 3 (-)>>>

-----------------------
VIBRATIONAL FREQUENCIES
-----------------------

Scaling factor for frequencies =  1.000000000 (already applied!)

   0:         0.00 cm**-1
   1:         0.00 cm**-1
   2:         0.00 cm**-1
   3:         0.00 cm**-1
   4:         0.00 cm**-1
   5:         0.00 cm**-1
   6:      -450.86 cm**-1 ***imaginary mode***
   7:        40.80 cm**-1
   8:        59.29 cm**-1
   9:        61.27 cm**-1
  10:        74.04 cm**-1
  11:        85.51 cm**-1
  12:        91.82 cm**-1
  13:       111.15 cm**-1
  14:       134.84 cm**-1
  15:       137.72 cm**-1
  16:       210.49 cm**-1
  17:       218.11 cm**-1
  18:       226.45 cm**-1
  19:       248.00 cm**-1
  20:       283.39 cm**-1
  21:       337.91 cm**-1
  22:       378.42 cm**-1
  23:       381.87 cm**-1
  24:       403.68 cm**-1
  25:       439.24 cm**-1
  26:       499.22 cm**-1
  27:       518.10 cm**-1
  28:       534.25 cm**-1
  29:       560.72 cm**-1
  30:       588.95 cm**-1
  31:       589.74 cm**-1
  32:       617.52 cm**-1
  33:       637.65 cm**-1
  34:       671.26 cm**-1
  35:       723.47 cm**-1
  36:       755.39 cm**-1
  37:       772.66 cm**-1
  38:       805.69 cm**-1
  39:       806.29 cm**-1
  40:       831.13 cm**-1
  41:       850.16 cm**-1
  42:       888.69 cm**-1
  43:       903.73 cm**-1
  44:       917.68 cm**-1
  45:       933.75 cm**-1
  46:       944.63 cm**-1
  47:       952.54 cm**-1
  48:       957.47 cm**-1
  49:       979.10 cm**-1
  50:      1001.25 cm**-1
  51:      1021.48 cm**-1
  52:      1058.75 cm**-1
  53:      1072.54 cm**-1
  54:      1081.51 cm**-1
  55:      1106.11 cm**-1
  56:      1117.76 cm**-1
  57:      1131.27 cm**-1
  58:      1141.90 cm**-1
  59:      1180.39 cm**-1
  60:      1191.14 cm**-1
  61:      1194.90 cm**-1
  62:      1211.00 cm**-1
  63:      1218.81 cm**-1
  64:      1242.32 cm**-1
  65:      1265.37 cm**-1
  66:      1269.81 cm**-1
  67:      1279.99 cm**-1
  68:      1281.48 cm**-1
  69:      1282.83 cm**-1
  70:      1292.62 cm**-1
  71:      1306.36 cm**-1
  72:      1339.47 cm**-1
  73:      1341.51 cm**-1
  74:      1371.65 cm**-1
  75:      1406.91 cm**-1
  76:      1423.60 cm**-1
  77:      1430.50 cm**-1
  78:      1444.65 cm**-1
  79:      1449.85 cm**-1
  80:      1459.39 cm**-1
  81:      1481.88 cm**-1
  82:      1494.49 cm**-1
  83:      1501.77 cm**-1
  84:      1506.75 cm**-1
  85:      1510.41 cm**-1
  86:      1566.72 cm**-1
  87:      1572.64 cm**-1
  88:      2078.21 cm**-1
  89:      2238.69 cm**-1
  90:      2935.75 cm**-1
  91:      2945.31 cm**-1
  92:      2961.93 cm**-1
  93:      2971.58 cm**-1
  94:      2974.57 cm**-1
  95:      2977.59 cm**-1
  96:      2982.00 cm**-1
  97:      2998.90 cm**-1
  98:      3009.28 cm**-1
  99:      3035.16 cm**-1
 100:      3043.43 cm**-1
 101:      3051.75 cm**-1
 102:      3056.88 cm**-1
 103:      3067.90 cm**-1
 104:      3092.43 cm**-1
 105:      3330.35 cm**-1
 106:      3594.23 cm**-1
 107:      3609.09 cm**-1


------------
NORMAL MODES
------------

These modes are the cartesian displacements weighted by the diagonal matrix
M(i,i)=1/sqrt(m[i]) where m[i] is the mass of the displaced atom
Thus, these vectors are normalized but *not* orthogonal

                  0          1          2          3          4          5    
      0       0.000000   0.000000   0.000000   0.000000   0.000000   0.000000
      1       0.000000   0.000000   0.000000   0.000000   0.000000   0.000000
      2       0.000000   0.000000   0.000000   0.000000   0.000000   0.000000
      3       0.000000   0.000000   0.000000   0.000000   0.000000   0.000000
      4       0.000000   0.000000   0.000000   0.000000   0.000000   0.000000
      5       0.000000   0.000000   0.000000   0.000000   0.000000   0.000000
      6       0.000000   0.000000   0.000000   0.000000   0.000000   0.000000
      7       0.000000   0.000000   0.000000   0.000000   0.000000   0.000000
      8       0.000000   0.000000   0.000000   0.000000   0.000000   0.000000
      9       0.000000   0.000000   0.000000   0.000000   0.000000   0.000000
     10       0.000000   0.000000   0.000000   0.000000   0.000000   0.000000
     11       0.000000   0.000000   0.000000   0.000000   0.000000   0.000000
     12       0.000000   0.000000   0.000000   0.000000   0.000000   0.000000
     13       0.000000   0.000000   0.000000   0.000000   0.000000   0.000000
     14       0.000000   0.000000   0.000000   0.000000   0.000000   0.000000
     15       0.000000   0.000000   0.000000   0.000000   0.000000   0.000000
     16       0.000000   0.000000   0.000000   0.000000   0.000000   0.000000
     17       0.000000   0.000000   0.000000   0.000000   0.000000   0.000000
     18       0.000000   0.000000   0.000000   0.000000   0.000000   0.000000
     19       0.000000   0.000000   0.000000   0.000000   0.000000   0.000000
     20       0.000000   0.000000   0.000000   0.000000   0.000000   0.000000
     21       0.000000   0.000000   0.000000   0.000000   0.000000   0.000000
     22       0.000000   0.000000   0.000000   0.000000   0.000000   0.000000
     23       0.000000   0.000000   0.000000   0.000000   0.000000   0.000000
     24       0.000000   0.000000   0.000000   0.000000   0.000000   0.000000
     25       0.000000   0.000000   0.000000   0.000000   0.000000   0.000000
     26       0.000000   0.000000   0.000000   0.000000   0.000000   0.000000
     27       0.000000   0.000000   0.000000   0.000000   0.000000   0.000000
     28       0.000000   0.000000   0.000000   0.000000   0.000000   0.000000
     29       0.000000   0.000000   0.000000   0.000000   0.000000   0.000000
     30       0.000000   0.000000   0.000000   0.000000   0.000000   0.000000
     31       0.000000   0.000000   0.000000   0.000000   0.000000   0.000000
     32       0.000000   0.000000   0.000000   0.000000   0.000000   0.000000
     33       0.000000   0.000000   0.000000   0.000000   0.000000   0.000000
     34       0.000000   0.000000   0.000000   0.000000   0.000000   0.000000
     35       0.000000   0.000000   0.000000   0.000000   0.000000   0.000000
     36       0.000000   0.000000   0.000000   0.000000   0.000000   0.000000
     37       0.000000   0.000000   0.000000   0.000000   0.000000   0.000000
     38       0.000000   0.000000   0.000000   0.000000   0.000000   0.000000
     39       0.000000   0.000000   0.000000   0.000000   0.000000   0.000000
     40       0.000000   0.000000   0.000000   0.000000   0.000000   0.000000
     41       0.000000   0.000000   0.000000   0.000000   0.000000   0.000000
     42       0.000000   0.000000   0.000000   0.000000   0.000000   0.000000
     43       0.000000   0.000000   0.000000   0.000000   0.000000   0.000000
     44       0.000000   0.000000   0.000000   0.000000   0.000000   0.000000
     45       0.000000   0.000000   0.000000   0.000000   0.000000   0.000000
     46       0.000000   0.000000   0.000000   0.000000   0.000000   0.000000
     47       0.000000   0.000000   0.000000   0.000000   0.000000   0.000000
     48       0.000000   0.000000   0.000000   0.000000   0.000000   0.000000
     49       0.000000   0.000000   0.000000   0.000000   0.000000   0.000000
     50       0.000000   0.000000   0.000000   0.000000   0.000000   0.000000
     51       0.000000   0.000000   0.000000   0.000000   0.000000   0.000000
     52       0.000000   0.000000   0.000000   0.000000   0.000000   0.000000
     53       0.000000   0.000000   0.000000   0.000000   0.000000   0.000000
     54       0.000000   0.000000   0.000000   0.000000   0.000000   0.000000
     55       0.000000   0.000000   0.000000   0.000000   0.000000   0.000000
     56       0.000000   0.000000   0.000000   0.000000   0.000000   0.000000
     57       0.000000   0.000000   0.000000   0.000000   0.000000   0.000000
     58       0.000000   0.000000   0.000000   0.000000   0.000000   0.000000
     59       0.000000   0.000000   0.000000   0.000000   0.000000   0.000000
     60       0.000000   0.000000   0.000000   0.000000   0.000000   0.000000
     61       0.000000   0.000000   0.000000   0.000000   0.000000   0.000000
     62       0.000000   0.000000   0.000000   0.000000   0.000000   0.000000
     63       0.000000   0.000000   0.000000   0.000000   0.000000   0.000000
     64       0.000000   0.000000   0.000000   0.000000   0.000000   0.000000
     65       0.000000   0.000000   0.000000   0.000000   0.000000   0.000000
     66       0.000000   0.000000   0.000000   0.000000   0.000000   0.000000
     67       0.000000   0.000000   0.000000   0.000000   0.000000   0.000000
     68       0.000000   0.000000   0.000000   0.000000   0.000000   0.000000
     69       0.000000   0.000000   0.000000   0.000000   0.000000   0.000000
     70       0.000000   0.000000   0.000000   0.000000   0.000000   0.000000
     71       0.000000   0.000000   0.000000   0.000000   0.000000   0.000000
     72       0.000000   0.000000   0.000000   0.000000   0.000000   0.000000
     73       0.000000   0.000000   0.000000   0.000000   0.000000   0.000000
     74       0.000000   0.000000   0.000000   0.000000   0.000000   0.000000
     75       0.000000   0.000000   0.000000   0.000000   0.000000   0.000000
     76       0.000000   0.000000   0.000000   0.000000   0.000000   0.000000
     77       0.000000   0.000000   0.000000   0.000000   0.000000   0.000000
     78       0.000000   0.000000   0.000000   0.000000   0.000000   0.000000
     79       0.000000   0.000000   0.000000   0.000000   0.000000   0.000000
     80       0.000000   0.000000   0.000000   0.000000   0.000000   0.000000
     81       0.000000   0.000000   0.000000   0.000000   0.000000   0.000000
     82       0.000000   0.000000   0.000000   0.000000   0.000000   0.000000
     83       0.000000   0.000000   0.000000   0.000000   0.000000   0.000000
     84       0.000000   0.000000   0.000000   0.000000   0.000000   0.000000
     85       0.000000   0.000000   0.000000   0.000000   0.000000   0.000000
     86       0.000000   0.000000   0.000000   0.000000   0.000000   0.000000
     87       0.000000   0.000000   0.000000   0.000000   0.000000   0.000000
     88       0.000000   0.000000   0.000000   0.000000   0.000000   0.000000
     89       0.000000   0.000000   0.000000   0.000000   0.000000   0.000000
     90       0.000000   0.000000   0.000000   0.000000   0.000000   0.000000
     91       0.000000   0.000000   0.000000   0.000000   0.000000   0.000000
     92       0.000000   0.000000   0.000000   0.000000   0.000000   0.000000
     93       0.000000   0.000000   0.000000   0.000000   0.000000   0.000000
     94       0.000000   0.000000   0.000000   0.000000   0.000000   0.000000
     95       0.000000   0.000000   0.000000   0.000000   0.000000   0.000000
     96       0.000000   0.000000   0.000000   0.000000   0.000000   0.000000
     97       0.000000   0.000000   0.000000   0.000000   0.000000   0.000000
     98       0.000000   0.000000   0.000000   0.000000   0.000000   0.000000
     99       0.000000   0.000000   0.000000   0.000000   0.000000   0.000000
    100       0.000000   0.000000   0.000000   0.000000   0.000000   0.000000
    101       0.000000   0.000000   0.000000   0.000000   0.000000   0.000000
    102       0.000000   0.000000   0.000000   0.000000   0.000000   0.000000
    103       0.000000   0.000000   0.000000   0.000000   0.000000   0.000000
    104       0.000000   0.000000   0.000000   0.000000   0.000000   0.000000
    105       0.000000   0.000000   0.000000   0.000000   0.000000   0.000000
    106       0.000000   0.000000   0.000000   0.000000   0.000000   0.000000
    107       0.000000   0.000000   0.000000   0.000000   0.000000   0.000000
                  6          7          8          9         10         11    
      0      -0.001859   0.028155   0.022818   0.037930   0.020647  -0.042207
      1      -0.003040  -0.017364   0.027410  -0.030759  -0.000822  -0.001546
      2      -0.003107  -0.017281   0.043322  -0.024889  -0.035898   0.013824
      3       0.001554   0.074770   0.020874   0.107242   0.022685  -0.043979
      4       0.000319   0.031766   0.029457  -0.012694   0.006119  -0.008609
      5      -0.002658  -0.077255   0.025880   0.188902  -0.066227   0.046871
      6       0.001702   0.063372   0.003395   0.110820   0.038508  -0.047219
      7       0.000408   0.107217   0.031857   0.005852   0.019207  -0.019899
      8      -0.000347  -0.072533  -0.040481   0.211626   0.002159   0.029083
      9       0.000635   0.005442  -0.012788   0.044508   0.055144  -0.052203
     10       0.000412   0.135709   0.031619   0.006746   0.025648  -0.024639
     11      -0.000563  -0.007887  -0.092831   0.017067   0.108531  -0.026683
     12      -0.000594  -0.040930  -0.011022  -0.023829   0.051496  -0.049798
     13      -0.001734   0.087588   0.029965  -0.008554   0.018355  -0.017649
     14       0.002602   0.051641  -0.076136  -0.191718   0.131105  -0.053126
     15      -0.000380  -0.029623   0.006860  -0.025828   0.034673  -0.045717
     16      -0.002664   0.011687   0.027536  -0.027409   0.005073  -0.005827
     17       0.003763   0.048444  -0.009009  -0.213020   0.057987  -0.030607
     18      -0.006963   0.042179   0.035592   0.039301   0.018947  -0.045144
     19      -0.033428  -0.102331   0.031902  -0.044370  -0.007634   0.002334
     20      -0.051829  -0.025780   0.101263  -0.031174  -0.047178  -0.007350
     21      -0.000288   0.119914   0.033800   0.155531   0.013218  -0.044414
     22      -0.000120   0.009350   0.029693  -0.011399   0.000163  -0.003762
     23      -0.011035  -0.126252   0.063739   0.329737  -0.138428   0.082452
     24       0.015447  -0.066265   0.007038  -0.072680   0.031440  -0.042841
     25       0.006645  -0.025566   0.025852  -0.039140   0.000145  -0.001299
     26       0.007064   0.095345   0.001578  -0.355752   0.071950  -0.044220
     27      -0.000206  -0.003593  -0.026625   0.045894   0.069467  -0.056105
     28       0.001008   0.194271   0.032804   0.021277   0.035272  -0.032801
     29      -0.003620  -0.004533  -0.145823   0.032039   0.170490  -0.047200
     30      -0.004638   0.056445   0.009424   0.008956  -0.012720  -0.012624
     31       0.077334  -0.079226  -0.027036   0.019631  -0.009495   0.021682
     32      -0.011104  -0.038649   0.127857  -0.025512  -0.029213  -0.030487
     33       0.014815   0.037357  -0.002154   0.007280  -0.009831  -0.007512
     34       0.010881  -0.019982   0.042289   0.030418  -0.000042   0.003938
     35      -0.003213  -0.074351   0.169442  -0.002893   0.035597  -0.044103
     36      -0.054339   0.108275   0.050400  -0.028657  -0.056739   0.041010
     37       0.325004  -0.078436  -0.073219   0.045484  -0.011030   0.040533
     38      -0.132818  -0.037970   0.067153   0.005489  -0.030360  -0.006651
     39       0.007172  -0.046430  -0.030655  -0.003557   0.007486   0.040110
     40       0.004955   0.049730  -0.063329   0.005344  -0.088548  -0.075238
     41      -0.003689   0.036426  -0.049235  -0.057793  -0.135389  -0.183998
     42      -0.021137   0.034031   0.095650   0.035785   0.065119   0.008591
     43      -0.004572   0.044219  -0.022335   0.012607  -0.066556  -0.065905
     44      -0.013071  -0.170376   0.347818   0.047558   0.197495   0.071577
     45       0.025414   0.088642  -0.082962  -0.020873  -0.102170  -0.042905
     46       0.003234  -0.095073   0.245599   0.086488   0.161161   0.118937
     47      -0.007746  -0.094631   0.200549   0.008130   0.072166  -0.030155
     48       0.009412  -0.069071  -0.112796  -0.048580  -0.165539  -0.115833
     49       0.005374  -0.023439  -0.006148   0.010811  -0.061484  -0.044554
     50      -0.002812   0.118556  -0.224226  -0.115133  -0.365504  -0.400778
     51       0.006216  -0.071770   0.049985   0.037840   0.212034   0.253432
     52       0.002737   0.124200  -0.263657  -0.051954  -0.279448  -0.230508
     53      -0.002545   0.042483  -0.069568  -0.070254  -0.200257  -0.253394
     54       0.003758   0.003442   0.052984   0.057140   0.026216  -0.064424
     55      -0.048740  -0.160506   0.067343  -0.071653  -0.006115  -0.007985
     56       0.048811   0.014019   0.070937   0.025893  -0.041014  -0.011591
     57      -0.012765  -0.135943  -0.034794  -0.081653   0.022661  -0.032626
     58       0.067460  -0.163520  -0.032542  -0.043849  -0.010669   0.026550
     59      -0.073083   0.036856  -0.067304   0.082074  -0.046628   0.038201
     60       0.059574  -0.061437   0.014235   0.009914   0.024708  -0.049688
     61      -0.211323  -0.158244   0.034563  -0.064861  -0.006613   0.003467
     62       0.177195   0.030920   0.010223   0.054476  -0.044327   0.008626
     63      -0.020682  -0.165222  -0.052769  -0.080563   0.036314  -0.053572
     64       0.118269  -0.206790  -0.059212  -0.057083   0.004039   0.003701
     65      -0.276636  -0.017938  -0.100250   0.129778  -0.003512  -0.026776
     66      -0.007665   0.156577   0.087353  -0.139559  -0.152780   0.220740
     67      -0.100680  -0.064759  -0.119912   0.048108  -0.021332   0.063802
     68       0.059476  -0.004338  -0.011461   0.028935  -0.049172   0.030459
     69      -0.044984   0.007636   0.023209  -0.119763  -0.062881   0.093382
     70       0.335938  -0.108870  -0.079932   0.009032  -0.017413   0.050385
     71       0.659333   0.020212  -0.051405   0.064801  -0.046545   0.036436
     72       0.046811   0.198047   0.104776  -0.164224  -0.191913   0.288750
     73      -0.266691  -0.019271  -0.125047   0.089673  -0.017277   0.041742
     74       0.093400   0.099734   0.020033   0.001691  -0.123441   0.151950
     75      -0.000428   0.087772   0.048016   0.043385   0.025535  -0.054812
     76      -0.027201  -0.128242   0.058726  -0.069095  -0.007188  -0.002737
     77      -0.046362  -0.065980   0.148423  -0.072768  -0.044986  -0.017392
     78       0.002659   0.038362  -0.031062  -0.011230  -0.033471  -0.001489
     79       0.141703  -0.101023  -0.081139   0.039242  -0.006647   0.031394
     80      -0.085670  -0.023322   0.167412  -0.074313  -0.053888  -0.034143
     81       0.001372   0.099217   0.002424   0.162972   0.039464  -0.047071
     82       0.000108   0.143462   0.033257   0.018875   0.023836  -0.023971
     83      -0.001004  -0.118085  -0.053127   0.375551  -0.020581   0.053824
     84      -0.001557  -0.085679  -0.023832  -0.074010   0.061850  -0.050711
     85      -0.001507   0.109053   0.030154  -0.006484   0.023075  -0.021588
     86       0.002589   0.100614  -0.115719  -0.334881   0.207275  -0.091800
     87       0.006062  -0.066007  -0.054228  -0.017193  -0.029415   0.019579
     88       0.003035   0.123267   0.023513   0.056711   0.053366   0.013228
     89      -0.001977   0.029095  -0.018487  -0.016395   0.103582   0.098315
     90       0.006048  -0.036610   0.017575   0.026226   0.137577   0.167554
     91       0.003372   0.172253  -0.004037   0.069534   0.071021   0.026727
     92      -0.001892  -0.013504   0.106855   0.013620   0.267953   0.247292
     93       0.005463  -0.052161  -0.109018  -0.051942  -0.221104  -0.194499
     94       0.004279   0.096450   0.173400   0.085186   0.168974   0.073874
     95      -0.002327   0.025366  -0.006395  -0.005422   0.166139   0.171735
     96       0.002155  -0.140561  -0.102188  -0.043109  -0.037269   0.089074
     97       0.002583   0.163633  -0.046961   0.055776   0.025241   0.002057
     98      -0.001898   0.080809  -0.170930  -0.027597   0.046830   0.102082
     99       0.001342  -0.172906  -0.148497  -0.071959  -0.142373   0.005562
    100       0.001591   0.118467  -0.015907   0.046442   0.020382   0.001519
    101      -0.001719   0.118226  -0.272143  -0.044242  -0.060999   0.011013
    102       0.001493  -0.152586  -0.114379  -0.050182  -0.054839   0.082608
    103       0.004511   0.213335   0.003349   0.084361   0.093733   0.023540
    104      -0.003438   0.078339  -0.177646  -0.014164   0.147088   0.240224
    105       0.001896  -0.149893  -0.079748  -0.026285   0.077954   0.229852
    106       0.001625   0.188716  -0.179347   0.036264  -0.058041  -0.026241
    107      -0.001658   0.082850  -0.173366  -0.032215   0.013506   0.058853
                 12         13         14         15         16         17    
      0       0.025723  -0.021545   0.003893   0.021186   0.039570  -0.012464
      1      -0.018334  -0.026186  -0.000619   0.036151  -0.099461   0.121430
      2      -0.012726  -0.110196  -0.050545  -0.111311   0.044291  -0.061319
      3      -0.025301   0.025131   0.011916   0.012867   0.092201  -0.059804
      4      -0.053886   0.000770   0.004642   0.020125  -0.057099   0.082875
      5      -0.044807  -0.046824  -0.043119  -0.071323   0.034065  -0.060996
      6      -0.011465   0.048979   0.023203   0.043049   0.070087  -0.028340
      7      -0.103817   0.040999   0.011992  -0.010441   0.021858  -0.006012
      8      -0.021625   0.066576   0.002286   0.023847  -0.019839   0.012118
      9       0.049316   0.028376   0.028417   0.088048  -0.002039   0.068118
     10      -0.118394   0.053933   0.014264  -0.020621   0.045306  -0.035965
     11       0.041122   0.115750   0.038826   0.076205  -0.050040   0.065143
     12       0.095900  -0.023570   0.016421   0.090717  -0.040795   0.101389
     13      -0.084152   0.027910   0.009488  -0.004155   0.000245   0.009390
     14       0.064595   0.029523   0.012574   0.000621   0.019892  -0.031134
     15       0.079209  -0.044785   0.006009   0.058682  -0.012273   0.062976
     16      -0.034392  -0.012694   0.001728   0.025081  -0.077693   0.093861
     17       0.033550  -0.081253  -0.032406  -0.095585   0.068185  -0.100488
     18       0.017316  -0.013626   0.009038   0.019163   0.017563   0.008074
     19       0.039308  -0.046078   0.004884   0.052429  -0.045639   0.076333
     20      -0.006738  -0.092149  -0.016032  -0.075277   0.016577   0.061481
     21      -0.075228   0.046743   0.012167  -0.014041   0.151979  -0.117695
     22      -0.040934  -0.010365   0.001949   0.026567  -0.077130   0.101009
     23      -0.083080  -0.075053  -0.063634  -0.094167   0.042297  -0.073477
     24       0.097210  -0.071400   0.002025   0.068324  -0.043022   0.104891
     25      -0.020084  -0.027301   0.000044   0.040186  -0.108167   0.135378
     26       0.052156  -0.125375  -0.040593  -0.127221   0.103439  -0.142766
     27       0.062205   0.049796   0.039384   0.115778  -0.027228   0.103251
     28      -0.154337   0.083166   0.019262  -0.041253   0.096646  -0.095030
     29       0.067829   0.218112   0.084829   0.171050  -0.114174   0.163792
     30      -0.009355  -0.120251  -0.057179  -0.009199   0.039330  -0.017070
     31       0.094018   0.019181   0.017158  -0.088932  -0.135833  -0.006303
     32       0.004093  -0.043486   0.018794  -0.028407   0.015410   0.069740
     33      -0.010313  -0.131890  -0.055373   0.006798  -0.032093  -0.046258
     34       0.119212   0.104236   0.031448  -0.160274   0.095893  -0.023979
     35       0.045440   0.101061   0.091294  -0.001503  -0.041458  -0.176643
     36       0.009454  -0.062147  -0.044840  -0.040329   0.126721   0.014147
     37       0.079150   0.012232   0.015148  -0.068021  -0.172271  -0.031723
     38      -0.015386  -0.051834   0.017515  -0.004276   0.012651   0.025235
     39       0.030193  -0.092725  -0.023080  -0.018032  -0.149559  -0.127196
     40       0.103118   0.101084  -0.056886  -0.109797   0.104116   0.029991
     41       0.024300   0.113484  -0.067672   0.104973  -0.083201  -0.102046
     42       0.018028  -0.031337   0.014098  -0.034658   0.080571  -0.194774
     43       0.108471   0.121436  -0.032881  -0.126879   0.151427   0.016068
     44       0.084566   0.161424   0.244016  -0.084622  -0.025630  -0.363540
     45      -0.050132  -0.239036  -0.144668   0.026227  -0.009072   0.181698
     46       0.144753   0.129185   0.176907  -0.265365   0.191349  -0.129953
     47       0.061711   0.145046   0.126434  -0.009103  -0.051130  -0.269858
     48       0.066498  -0.041590   0.029507  -0.033650  -0.151316  -0.140826
     49       0.135471   0.130526   0.022967  -0.165153   0.104016  -0.013593
     50       0.016002   0.124250  -0.126067   0.170312  -0.089935  -0.055293
     51       0.021985  -0.104990  -0.057560  -0.037305  -0.138021  -0.097415
     52       0.101288   0.125610  -0.148440  -0.046270   0.083047   0.100064
     53       0.027258   0.116811  -0.051062   0.109036  -0.084538  -0.113028
     54       0.073143   0.036734   0.054150   0.016942   0.020579   0.043868
     55       0.046691  -0.062876   0.015544   0.097427   0.068546   0.033042
     56       0.037506  -0.017406   0.014205  -0.138513  -0.131578   0.129743
     57      -0.403745   0.095776  -0.008772  -0.145340  -0.041224   0.029268
     58      -0.076214  -0.045707   0.005663   0.199127   0.149532  -0.104910
     59      -0.046720  -0.015454   0.010148   0.060597  -0.001237   0.049240
     60      -0.104167   0.042005   0.026866  -0.010677   0.042110   0.005055
     61       0.007167  -0.055506   0.012008   0.113350   0.072908   0.037140
     62      -0.015647   0.004676   0.009649  -0.117618  -0.163759   0.112423
     63      -0.480655   0.115402  -0.017193  -0.220247  -0.089236   0.035737
     64      -0.224960   0.001867  -0.009913   0.050943   0.036868  -0.097631
     65      -0.080280  -0.038189   0.004280   0.041109   0.043039   0.069127
     66       0.005428   0.124940   0.045663   0.090835  -0.033170  -0.009155
     67       0.039833   0.024036   0.016694   0.034326  -0.103355  -0.113987
     68      -0.084029  -0.054453   0.007304   0.162271   0.132809   0.047915
     69      -0.208686   0.115533   0.018496  -0.036339  -0.049165   0.009314
     70      -0.006772  -0.005333   0.011502   0.095659  -0.026337  -0.115334
     71      -0.068914  -0.030622   0.003959   0.089818  -0.005356   0.043332
     72       0.046766   0.178913   0.074709   0.128783  -0.111163  -0.013901
     73       0.124807  -0.044576  -0.010598   0.036345  -0.001696  -0.124854
     74       0.039932   0.016028   0.050039   0.236890   0.031743   0.032471
     75      -0.004754   0.010609   0.017607   0.048420  -0.047351   0.108287
     76       0.027881  -0.067359   0.004728   0.105682   0.019880   0.072419
     77      -0.025641  -0.127143  -0.014782   0.018842   0.122796   0.064938
     78      -0.045747  -0.224595  -0.096937   0.032815  -0.040326   0.048557
     79       0.077683  -0.025214   0.008611  -0.068566  -0.241977  -0.015474
     80      -0.009164  -0.081822  -0.008851  -0.015830   0.096431   0.149695
     81      -0.047785   0.085673   0.029392   0.033048   0.109254  -0.077406
     82      -0.128092   0.059906   0.014599  -0.026124   0.057626  -0.051201
     83      -0.046649   0.124768   0.015304   0.069159  -0.048988   0.049199
     84       0.147521  -0.045420   0.016406   0.119817  -0.099367   0.162386
     85      -0.098046   0.039138   0.011872  -0.011415   0.021641  -0.012011
     86       0.105792   0.059933   0.033839   0.028370   0.024959  -0.029395
     87       0.052917  -0.060571  -0.008403  -0.044962  -0.119209  -0.115018
     88       0.026813  -0.017808  -0.122294  -0.037106   0.013545  -0.018799
     89       0.013222   0.098918  -0.160115   0.077665  -0.038256  -0.007363
     90       0.009685  -0.118819  -0.100554   0.000731  -0.183424  -0.122802
     91      -0.020005  -0.130611  -0.029233  -0.038203  -0.041805  -0.053880
     92       0.036135   0.206443  -0.409292   0.132196  -0.028717   0.036791
     93       0.054258  -0.078053   0.118603  -0.038869  -0.161596  -0.193081
     94       0.033598   0.073013  -0.373650   0.071167  -0.066414  -0.052009
     95       0.012498   0.100446  -0.192231   0.069402  -0.017818   0.022783
     96       0.140240   0.084411  -0.047049  -0.173375   0.156978   0.068710
     97      -0.007196  -0.130404   0.037019  -0.079342  -0.001986  -0.036251
     98      -0.022453  -0.064296   0.134978  -0.045483   0.031783   0.030665
     99       0.183184   0.139772   0.041872  -0.244532   0.284981   0.076718
    100       0.039180  -0.019126  -0.062435  -0.086701   0.082772   0.006077
    101      -0.050178  -0.183411   0.393692  -0.111758   0.035275  -0.028990
    102       0.155633   0.107107  -0.036580  -0.198369   0.207683   0.089667
    103      -0.070639  -0.224220  -0.002983   0.024295  -0.212276  -0.126905
    104      -0.018094  -0.060014   0.064436  -0.081034   0.106792   0.160714
    105       0.148482   0.115317  -0.176102  -0.181810   0.211180   0.190904
    106      -0.016128  -0.232148   0.297135  -0.205049   0.107407  -0.000868
    107      -0.024721  -0.070490   0.166487  -0.038530   0.011067  -0.008842
                 18         19         20         21         22         23    
      0       0.022859   0.066133  -0.000475  -0.031721  -0.005092   0.001407
      1      -0.128379   0.085701  -0.000683   0.017044   0.114503   0.016210
      2       0.029477   0.089991  -0.000782  -0.071026  -0.044863  -0.001248
      3       0.082065   0.088002  -0.002118  -0.024900  -0.112267  -0.066944
      4      -0.077430   0.078942  -0.001204   0.004464   0.035647   0.000796
      5       0.015426   0.175734  -0.003834   0.105175   0.099393  -0.196446
      6       0.063221   0.059149  -0.001877  -0.037319  -0.148601   0.034298
      7       0.031326   0.010054  -0.000835  -0.000431  -0.057435  -0.003760
      8      -0.013149   0.009335  -0.002210   0.076252   0.017282   0.204481
      9      -0.026596   0.076131  -0.001597  -0.087799  -0.157121  -0.016640
     10       0.063969  -0.022032  -0.000505  -0.003788  -0.058073  -0.009233
     11      -0.020715  -0.202314   0.001381  -0.108023  -0.001447   0.003691
     12      -0.084670   0.152922  -0.002050  -0.021563  -0.031822  -0.055636
     13       0.007134   0.003472  -0.000305   0.018677   0.034084  -0.001848
     14       0.027858   0.000489  -0.001663   0.058106   0.077378  -0.196898
     15      -0.052300   0.173029  -0.002084  -0.001748  -0.061263   0.046161
     16      -0.098548   0.065440  -0.000491   0.026984   0.137133   0.022899
     17       0.056728   0.161432  -0.002783   0.112403  -0.004496   0.208261
     18       0.003349   0.009760   0.000736  -0.030138   0.116852   0.014876
     19      -0.013012   0.010414   0.001086   0.058655  -0.069095  -0.008683
     20       0.052835  -0.062205   0.003275  -0.140700  -0.075752  -0.006251
     21       0.152445   0.089704  -0.002896  -0.031002  -0.210130  -0.142061
     22      -0.103049   0.089300  -0.001124   0.018206   0.088769  -0.002195
     23       0.007543   0.266182  -0.005433   0.189731   0.219895  -0.428783
     24      -0.099282   0.232624  -0.002614   0.023020  -0.061441   0.100998
     25      -0.142204   0.104932  -0.000871   0.025907   0.138511   0.026283
     26       0.085324   0.226139  -0.003482   0.211649  -0.034061   0.435760
     27      -0.047419   0.020980  -0.000759  -0.125100  -0.158722  -0.016300
     28       0.131458  -0.066532  -0.000363  -0.019423  -0.109155  -0.014009
     29      -0.057606  -0.444434   0.004702  -0.266275  -0.048204   0.001435
     30      -0.052783  -0.053068   0.003230  -0.096765   0.121328   0.023125
     31       0.100436   0.038349   0.003321   0.036742  -0.123282  -0.015724
     32       0.050491  -0.064774   0.000569  -0.112016  -0.076173  -0.009429
     33      -0.043380  -0.074911   0.004914  -0.061551   0.101925   0.020161
     34      -0.094005  -0.004049  -0.013488   0.005826  -0.035805  -0.005724
     35      -0.140092  -0.010986  -0.016056  -0.036951   0.046888   0.010399
     36      -0.075219  -0.094661  -0.001824  -0.112022   0.111120   0.017550
     37       0.125162   0.070498   0.006759   0.047126  -0.133850  -0.014929
     38       0.086110  -0.055356   0.003218  -0.140499  -0.087124  -0.011260
     39      -0.048933  -0.122790   0.000112   0.073055  -0.079418  -0.016196
     40      -0.048503  -0.014903  -0.014617   0.010293  -0.028190  -0.005258
     41      -0.026742  -0.004741  -0.019128   0.000844   0.023181   0.004703
     42      -0.272632  -0.063593  -0.010116  -0.064745   0.260143   0.045679
     43      -0.089439  -0.000769  -0.016876  -0.009508   0.009934   0.001149
     44      -0.344672  -0.007386  -0.023868  -0.017315   0.121148   0.023177
     45       0.167246  -0.079958   0.018489  -0.129190  -0.005845   0.003490
     46      -0.273968   0.002817  -0.017939  -0.042529   0.062539   0.012554
     47      -0.225469  -0.008638  -0.021671  -0.009395   0.089943   0.017034
     48      -0.053238  -0.115960  -0.056184   0.097477  -0.119611  -0.024124
     49      -0.092887  -0.015912  -0.024403   0.033143  -0.076319  -0.014531
     50       0.036124   0.003408  -0.067239  -0.005278   0.047735   0.009237
     51      -0.045171  -0.117395   0.060712   0.097514  -0.121918  -0.024866
     52       0.038723  -0.005032  -0.046141   0.048262  -0.073506  -0.015254
     53      -0.031136  -0.005882  -0.039596  -0.010043   0.041148   0.008408
     54       0.227392  -0.105351   0.008533   0.187279   0.234898   0.026384
[...]
     73       0.000107  -0.000152   0.000178  -0.000175  -0.222497  -0.026776
     74       0.000068   0.000222   0.000090  -0.000979   0.450507   0.055779
     75      -0.000431  -0.000557  -0.000042   0.000603  -0.000268  -0.000156
     76      -0.000921  -0.001635  -0.003110   0.000408  -0.000148  -0.000094
     77       0.000787   0.001028   0.001867   0.001091   0.000054   0.000078
     78      -0.000427   0.001416  -0.000717  -0.481374  -0.000777  -0.000599
     79       0.000041  -0.001731   0.000525   0.727118   0.002423   0.001292
     80      -0.000314  -0.001123   0.000225   0.483604   0.000467   0.000702
     81       0.465393   0.343414  -0.003541   0.001343  -0.000020   0.000233
     82      -0.585962  -0.434079   0.004667  -0.001152  -0.000010  -0.000287
     83      -0.100957  -0.074546   0.000703  -0.000283   0.000022  -0.000042
     84      -0.172823   0.115900  -0.041618   0.000809  -0.000008  -0.000042
     85      -0.478572   0.325397  -0.118653   0.001666  -0.000046  -0.000309
     86       0.053368  -0.035941   0.012832  -0.000279   0.000066   0.000046
     87       0.000022   0.000017  -0.000018   0.000072   0.000012   0.000012
     88      -0.000014  -0.000022   0.000012  -0.000111  -0.000025  -0.000011
     89       0.000003   0.000009  -0.000002   0.000030  -0.000002   0.000002
     90      -0.000130  -0.000126   0.000187  -0.000874  -0.000189  -0.000153
     91       0.000171   0.000248  -0.000237   0.000496   0.000198   0.000098
     92       0.000088   0.000145  -0.000160   0.000558   0.000149   0.000099
     93      -0.000063  -0.000053   0.000046  -0.000298  -0.000061  -0.000053
     94       0.000006   0.000002   0.000017  -0.000040  -0.000014  -0.000006
     95      -0.000135  -0.000250   0.000165  -0.000597  -0.000220  -0.000065
     96       0.000013   0.000008   0.000002   0.000022   0.000004   0.000000
     97      -0.000011  -0.000007  -0.000008   0.000021  -0.000017   0.000001
     98      -0.000002  -0.000004   0.000002  -0.000034  -0.000007  -0.000002
     99      -0.000092  -0.000016  -0.000051   0.000050  -0.000035  -0.000024
    100       0.000100   0.000093   0.000054  -0.000029   0.000104   0.000068
    101       0.000059   0.000040   0.000036  -0.000011   0.000006   0.000011
    102      -0.000003  -0.000170   0.000072  -0.001053   0.000062  -0.000057
    103      -0.000008  -0.000015   0.000001  -0.000438   0.000050  -0.000016
    104       0.000008  -0.000011   0.000002   0.000094  -0.000034   0.000003
    105      -0.000027   0.000040  -0.000031   0.000181  -0.000003   0.000007
    106       0.000004   0.000025  -0.000006  -0.000029   0.000020   0.000001
    107      -0.000008   0.000017  -0.000091   0.000465  -0.000050  -0.000003


-----------
IR SPECTRUM  
-----------

 Mode    freq (cm**-1)   T**2         TX         TY         TZ
-------------------------------------------------------------------
   7:        40.80    0.000000  (  0.000000   0.000000   0.000000)
   8:        59.29    0.000000  (  0.000000   0.000000   0.000000)
   9:        61.27    0.000000  (  0.000000   0.000000   0.000000)
  10:        74.04    0.000000  (  0.000000   0.000000   0.000000)
  11:        85.51    0.000000  (  0.000000   0.000000   0.000000)
  12:        91.82    0.000000  (  0.000000   0.000000   0.000000)
  13:       111.15    0.000000  (  0.000000   0.000000   0.000000)
  14:       134.84    0.000000  (  0.000000   0.000000   0.000000)
  15:       137.72    0.000000  (  0.000000   0.000000   0.000000)
  16:       210.49    0.000000  (  0.000000   0.000000   0.000000)
  17:       218.11    0.000000  (  0.000000   0.000000   0.000000)
  18:       226.45    0.000000  (  0.000000   0.000000   0.000000)
  19:       248.00    0.000000  (  0.000000   0.000000   0.000000)
  20:       283.39    0.000000  (  0.000000   0.000000   0.000000)
  21:       337.91    0.000000  (  0.000000   0.000000   0.000000)
  22:       378.42    0.000000  (  0.000000   0.000000   0.000000)
  23:       381.87    0.000000  (  0.000000   0.000000   0.000000)
  24:       403.68    0.000000  (  0.000000   0.000000   0.000000)
  25:       439.24    0.000000  (  0.000000   0.000000   0.000000)
  26:       499.22    0.000000  (  0.000000   0.000000   0.000000)
  27:       518.10    0.000000  (  0.000000   0.000000   0.000000)
  28:       534.25    0.000000  (  0.000000   0.000000   0.000000)
  29:       560.72    0.000000  (  0.000000   0.000000   0.000000)
  30:       588.95    0.000000  (  0.000000   0.000000   0.000000)
  31:       589.74    0.000000  (  0.000000   0.000000   0.000000)
  32:       617.52    0.000000  (  0.000000   0.000000   0.000000)
  33:       637.65    0.000000  (  0.000000   0.000000   0.000000)
  34:       671.26    0.000000  (  0.000000   0.000000   0.000000)
  35:       723.47    0.000000  (  0.000000   0.000000   0.000000)
  36:       755.39    0.000000  (  0.000000   0.000000   0.000000)
  37:       772.66    0.000000  (  0.000000   0.000000   0.000000)
  38:       805.69    0.000000  (  0.000000   0.000000   0.000000)
  39:       806.29    0.000000  (  0.000000   0.000000   0.000000)
  40:       831.13    0.000000  (  0.000000   0.000000   0.000000)
  41:       850.16    0.000000  (  0.000000   0.000000   0.000000)
  42:       888.69    0.000000  (  0.000000   0.000000   0.000000)
  43:       903.73    0.000000  (  0.000000   0.000000   0.000000)
  44:       917.68    0.000000  (  0.000000   0.000000   0.000000)
  45:       933.75    0.000000  (  0.000000   0.000000   0.000000)
  46:       944.63    0.000000  (  0.000000   0.000000   0.000000)
  47:       952.54    0.000000  (  0.000000   0.000000   0.000000)
  48:       957.47    0.000000  (  0.000000   0.000000   0.000000)
  49:       979.10    0.000000  (  0.000000   0.000000   0.000000)
  50:      1001.25    0.000000  (  0.000000   0.000000   0.000000)
  51:      1021.48    0.000000  (  0.000000   0.000000   0.000000)
  52:      1058.75    0.000000  (  0.000000   0.000000   0.000000)
  53:      1072.54    0.000000  (  0.000000   0.000000   0.000000)
  54:      1081.51    0.000000  (  0.000000   0.000000   0.000000)
  55:      1106.11    0.000000  (  0.000000   0.000000   0.000000)
  56:      1117.76    0.000000  (  0.000000   0.000000   0.000000)
  57:      1131.27    0.000000  (  0.000000   0.000000   0.000000)
  58:      1141.90    0.000000  (  0.000000   0.000000   0.000000)
  59:      1180.39    0.000000  (  0.000000   0.000000   0.000000)
  60:      1191.14    0.000000  (  0.000000   0.000000   0.000000)
  61:      1194.90    0.000000  (  0.000000   0.000000   0.000000)
  62:      1211.00    0.000000  (  0.000000   0.000000   0.000000)
  63:      1218.81    0.000000  (  0.000000   0.000000   0.000000)
  64:      1242.32    0.000000  (  0.000000   0.000000   0.000000)
  65:      1265.37    0.000000  (  0.000000   0.000000   0.000000)
  66:      1269.81    0.000000  (  0.000000   0.000000   0.000000)
  67:      1279.99    0.000000  (  0.000000   0.000000   0.000000)
  68:      1281.48    0.000000  (  0.000000   0.000000   0.000000)
  69:      1282.83    0.000000  (  0.000000   0.000000   0.000000)
  70:      1292.62    0.000000  (  0.000000   0.000000   0.000000)
  71:      1306.36    0.000000  (  0.000000   0.000000   0.000000)
  72:      1339.47    0.000000  (  0.000000   0.000000   0.000000)
  73:      1341.51    0.000000  (  0.000000   0.000000   0.000000)
  74:      1371.65    0.000000  (  0.000000   0.000000   0.000000)
  75:      1406.91    0.000000  (  0.000000   0.000000   0.000000)
  76:      1423.60    0.000000  (  0.000000   0.000000   0.000000)
  77:      1430.50    0.000000  (  0.000000   0.000000   0.000000)
  78:      1444.65    0.000000  (  0.000000   0.000000   0.000000)
  79:      1449.85    0.000000  (  0.000000   0.000000   0.000000)
  80:      1459.39    0.000000  (  0.000000   0.000000   0.000000)
  81:      1481.88    0.000000  (  0.000000   0.000000   0.000000)
  82:      1494.49    0.000000  (  0.000000   0.000000   0.000000)
  83:      1501.77    0.000000  (  0.000000   0.000000   0.000000)
  84:      1506.75    0.000000  (  0.000000   0.000000   0.000000)
  85:      1510.41    0.000000  (  0.000000   0.000000   0.000000)
  86:      1566.72    0.000000  (  0.000000   0.000000   0.000000)
  87:      1572.64    0.000000  (  0.000000   0.000000   0.000000)
  88:      2078.21    0.000000  (  0.000000   0.000000   0.000000)
  89:      2238.69    0.000000  (  0.000000   0.000000   0.000000)
  90:      2935.75    0.000000  (  0.000000   0.000000   0.000000)
  91:      2945.31    0.000000  (  0.000000   0.000000   0.000000)
  92:      2961.93    0.000000  (  0.000000   0.000000   0.000000)
  93:      2971.58    0.000000  (  0.000000   0.000000   0.000000)
  94:      2974.57    0.000000  (  0.000000   0.000000   0.000000)
  95:      2977.59    0.000000  (  0.000000   0.000000   0.000000)
  96:      2982.00    0.000000  (  0.000000   0.000000   0.000000)
  97:      2998.90    0.000000  (  0.000000   0.000000   0.000000)
  98:      3009.28    0.000000  (  0.000000   0.000000   0.000000)
  99:      3035.16    0.000000  (  0.000000   0.000000   0.000000)
 100:      3043.43    0.000000  (  0.000000   0.000000   0.000000)
 101:      3051.75    0.000000  (  0.000000   0.000000   0.000000)
 102:      3056.88    0.000000  (  0.000000   0.000000   0.000000)
 103:      3067.90    0.000000  (  0.000000   0.000000   0.000000)
 104:      3092.43    0.000000  (  0.000000   0.000000   0.000000)
 105:      3330.35    0.000000  (  0.000000   0.000000   0.000000)
 106:      3594.23    0.000000  (  0.000000   0.000000   0.000000)
 107:      3609.09    0.000000  (  0.000000   0.000000   0.000000)

The first frequency considered to be a vibration is 7
The total number of vibrations considered is 101


--------------------------
THERMOCHEMISTRY AT 298.15K
--------------------------

Temperature         ... 298.15 K
Pressure            ... 1.00 atm
Total Mass          ... 215.29 AMU

Throughout the following assumptions are being made:
  (1) The electronic state is orbitally nondegenerate
  (2) There are no thermally accessible electronically excited states
  (3) Hindered rotations indicated by low frequency modes are not
      treated as such but are treated as vibrations and this may
      cause some error
  (4) All equations used are the standard statistical mechanics
      equations for an ideal gas
  (5) All vibrations are strictly harmonic

freq.      40.80  E(vib)   ...       0.54 
freq.      59.29  E(vib)   ...       0.51 
freq.      61.27  E(vib)   ...       0.51 
freq.      74.04  E(vib)   ...       0.49 
freq.      85.51  E(vib)   ...       0.48 
freq.      91.82  E(vib)   ...       0.47 
freq.     111.15  E(vib)   ...       0.45 
freq.     134.84  E(vib)   ...       0.42 
freq.     137.72  E(vib)   ...       0.42 
freq.     210.49  E(vib)   ...       0.34 
freq.     218.11  E(vib)   ...       0.33 
freq.     226.45  E(vib)   ...       0.33 
freq.     248.00  E(vib)   ...       0.31 
freq.     283.39  E(vib)   ...       0.28 
freq.     337.91  E(vib)   ...       0.24 
freq.     378.42  E(vib)   ...       0.21 
freq.     381.87  E(vib)   ...       0.21 
freq.     403.68  E(vib)   ...       0.19 
freq.     439.24  E(vib)   ...       0.17 
freq.     499.22  E(vib)   ...       0.14 
freq.     518.10  E(vib)   ...       0.13 
freq.     534.25  E(vib)   ...       0.13 
freq.     560.72  E(vib)   ...       0.11 
freq.     588.95  E(vib)   ...       0.10 
freq.     589.74  E(vib)   ...       0.10 
freq.     617.52  E(vib)   ...       0.09 
freq.     637.65  E(vib)   ...       0.09 
freq.     671.26  E(vib)   ...       0.08 
freq.     723.47  E(vib)   ...       0.06 
freq.     755.39  E(vib)   ...       0.06 
freq.     772.66  E(vib)   ...       0.05 
freq.     805.69  E(vib)   ...       0.05 
freq.     806.29  E(vib)   ...       0.05 
freq.     831.13  E(vib)   ...       0.04 
freq.     850.16  E(vib)   ...       0.04 
freq.     888.69  E(vib)   ...       0.04 
freq.     903.73  E(vib)   ...       0.03 
freq.     917.68  E(vib)   ...       0.03 
freq.     933.75  E(vib)   ...       0.03 
freq.     944.63  E(vib)   ...       0.03 
freq.     952.54  E(vib)   ...       0.03 
freq.     957.47  E(vib)   ...       0.03 
freq.     979.10  E(vib)   ...       0.03 
freq.    1001.25  E(vib)   ...       0.02 
freq.    1021.48  E(vib)   ...       0.02 
freq.    1058.75  E(vib)   ...       0.02 
freq.    1072.54  E(vib)   ...       0.02 
freq.    1081.51  E(vib)   ...       0.02 
freq.    1106.11  E(vib)   ...       0.02 
freq.    1117.76  E(vib)   ...       0.01 
freq.    1131.27  E(vib)   ...       0.01 
freq.    1141.90  E(vib)   ...       0.01 
freq.    1180.39  E(vib)   ...       0.01 
freq.    1191.14  E(vib)   ...       0.01 
freq.    1194.90  E(vib)   ...       0.01 
freq.    1211.00  E(vib)   ...       0.01 
freq.    1218.81  E(vib)   ...       0.01 
freq.    1242.32  E(vib)   ...       0.01 
freq.    1265.37  E(vib)   ...       0.01 
freq.    1269.81  E(vib)   ...       0.01 
freq.    1279.99  E(vib)   ...       0.01 
freq.    1281.48  E(vib)   ...       0.01 
freq.    1282.83  E(vib)   ...       0.01 
freq.    1292.62  E(vib)   ...       0.01 
freq.    1306.36  E(vib)   ...       0.01 
freq.    1339.47  E(vib)   ...       0.01 
freq.    1341.51  E(vib)   ...       0.01 
freq.    1371.65  E(vib)   ...       0.01 
freq.    1406.91  E(vib)   ...       0.00 
freq.    1423.60  E(vib)   ...       0.00 
freq.    1430.50  E(vib)   ...       0.00 
freq.    1444.65  E(vib)   ...       0.00 
freq.    1449.85  E(vib)   ...       0.00 
freq.    1459.39  E(vib)   ...       0.00 
freq.    1481.88  E(vib)   ...       0.00 
freq.    1494.49  E(vib)   ...       0.00 
freq.    1501.77  E(vib)   ...       0.00 
freq.    1506.75  E(vib)   ...       0.00 
freq.    1510.41  E(vib)   ...       0.00 
freq.    1566.72  E(vib)   ...       0.00 
freq.    1572.64  E(vib)   ...       0.00 
freq.    2078.21  E(vib)   ...       0.00 
freq.    2238.69  E(vib)   ...       0.00 
freq.    2935.75  E(vib)   ...       0.00 
freq.    2945.31  E(vib)   ...       0.00 
freq.    2961.93  E(vib)   ...       0.00 
freq.    2971.58  E(vib)   ...       0.00 
freq.    2974.57  E(vib)   ...       0.00 
freq.    2977.59  E(vib)   ...       0.00 
freq.    2982.00  E(vib)   ...       0.00 
freq.    2998.90  E(vib)   ...       0.00 
freq.    3009.28  E(vib)   ...       0.00 
freq.    3035.16  E(vib)   ...       0.00 
freq.    3043.43  E(vib)   ...       0.00 
freq.    3051.75  E(vib)   ...       0.00 
freq.    3056.88  E(vib)   ...       0.00 
freq.    3067.90  E(vib)   ...       0.00 
freq.    3092.43  E(vib)   ...       0.00 
freq.    3330.35  E(vib)   ...       0.00 
freq.    3594.23  E(vib)   ...       0.00 
freq.    3609.09  E(vib)   ...       0.00 

------------
INNER ENERGY
------------

The inner energy is: U= E(el) + E(ZPE) + E(vib) + E(rot) + E(trans)
    E(el)   - is the total energy from the electronic structure calculation
              = E(kin-el) + E(nuc-el) + E(el-el) + E(nuc-nuc)
    E(ZPE)  - the the zero temperature vibrational energy from the frequency calculation
    E(vib)  - the the finite temperature correction to E(ZPE) due to population
              of excited vibrational states
    E(rot)  - is the rotational thermal energy
    E(trans)- is the translational thermal energy

Summary of contributions to the inner energy U:
Electronic energy                ...    -49.35891711 Eh
Zero point energy                ...      0.29928423 Eh     187.80 kcal/mol
Thermal vibrational correction   ...      0.01401391 Eh       8.79 kcal/mol
Thermal rotational correction    ...      0.00141627 Eh       0.89 kcal/mol
Thermal translational correction ...      0.00141627 Eh       0.89 kcal/mol
-----------------------------------------------------------------------
Total thermal energy                    -49.04278642 Eh


Summary of corrections to the electronic energy:
(perhaps to be used in another calculation)
Total thermal correction                  0.01684646 Eh      10.57 kcal/mol
Non-thermal (ZPE) correction              0.29928423 Eh     187.80 kcal/mol
-----------------------------------------------------------------------
Total correction                          0.31613069 Eh     198.37 kcal/mol


--------
ENTHALPY
--------

The enthalpy is H = U + kB*T
                kB is Boltzmann's constant
Total free energy                 ...    -49.04278642 Eh 
Thermal Enthalpy correction       ...      0.00094421 Eh       0.59 kcal/mol
-----------------------------------------------------------------------
Total Enthalpy                    ...    -49.04184221 Eh


Note: Only C1 symmetry has been detected, increase convergence thresholds 
      if your molecule has a higher symmetry. Symmetry factor of 1.0 is   
      used for the rotational entropy correction. 
 

Note: Rotational entropy computed according to Herzberg 
Infrared and Raman Spectra, Chapter V,1, Van Nostrand Reinhold, 1945 
Point Group:  C1, Symmetry Number:   1  
Rotational constants in cm-1:     0.027523     0.009672     0.008057 

Vibrational entropy computed according to the QRRHO of S. Grimme
Chem.Eur.J. 2012 18 9955


-------
ENTROPY
-------

The entropy contributions are T*S = T*(S(el)+S(vib)+S(rot)+S(trans))
     S(el)   - electronic entropy
     S(vib)  - vibrational entropy
     S(rot)  - rotational entropy
     S(trans)- translational entropy
The entropies will be listed as mutliplied by the temperature to get
units of energy

Electronic entropy                ...      0.00000000 Eh      0.00 kcal/mol
Vibrational entropy               ...      0.02460837 Eh     15.44 kcal/mol
Rotational entropy                ...      0.01567275 Eh      9.83 kcal/mol
Translational entropy             ...      0.01995728 Eh     12.52 kcal/mol
-----------------------------------------------------------------------
Final entropy term                ...      0.06023840 Eh     37.80 kcal/mol

In case the symmetry of your molecule has not been determined correctly
or in case you have a reason to use a different symmetry number we print 
out the resulting rotational entropy values for sn=1,12 :
 --------------------------------------------------------
|  sn= 1 | S(rot)=       0.01567275 Eh      9.83 kcal/mol|
|  sn= 2 | S(rot)=       0.01501829 Eh      9.42 kcal/mol|
|  sn= 3 | S(rot)=       0.01463546 Eh      9.18 kcal/mol|
|  sn= 4 | S(rot)=       0.01436383 Eh      9.01 kcal/mol|
|  sn= 5 | S(rot)=       0.01415314 Eh      8.88 kcal/mol|
|  sn= 6 | S(rot)=       0.01398100 Eh      8.77 kcal/mol|
|  sn= 7 | S(rot)=       0.01383545 Eh      8.68 kcal/mol|
|  sn= 8 | S(rot)=       0.01370938 Eh      8.60 kcal/mol|
|  sn= 9 | S(rot)=       0.01359817 Eh      8.53 kcal/mol|
|  sn=10 | S(rot)=       0.01349869 Eh      8.47 kcal/mol|
|  sn=11 | S(rot)=       0.01340870 Eh      8.41 kcal/mol|
|  sn=12 | S(rot)=       0.01332654 Eh      8.36 kcal/mol|
 --------------------------------------------------------


-------------------
GIBBS FREE ENERGY
-------------------

The Gibbs free energy is G = H - T*S

Total enthalpy                    ...    -49.04184221 Eh 
Total entropy correction          ...     -0.06023840 Eh    -37.80 kcal/mol
-----------------------------------------------------------------------
Final Gibbs free energy         ...    -49.10208061 Eh

For completeness - the Gibbs free energy minus the electronic energy
G-E(el)                           ...      0.25683650 Eh    161.17 kcal/mol


Total Time for Numerical Frequencies  :       139.280 sec
Time for Reference State(s)           :         0.215 sec
Time for Displacements                :       127.965 sec

Timings for individual modules:

Sum of individual times         ...        0.320 sec (=   0.005 min)
XTB module                      ...        0.320 sec (=   0.005 min) 100.0 %
                             ****ORCA TERMINATED NORMALLY****
TOTAL RUN TIME: 0 days 0 hours 2 minutes 20 seconds 18 msec
(SLURM) EXECUTION TIME: 140.039774135 seconds.
