(SLURM) JOB ID:         799

                                 *****************
                                 * O   R   C   A *
                                 *****************

           --- An Ab Initio, DFT and Semiempirical electronic structure package ---

                  #######################################################
                  #                        -***-                        #
                  #          Department of theory and spectroscopy      #
                  #               Directorship: Frank Neese             #
                  #        Max Planck Institute fuer Kohlenforschung    #
                  #                Kaiser Wilhelm Platz 1               #
                  #                 D-45470 Muelheim/Ruhr               #
                  #                      Germany                        #
                  #                                                     #
                  #                  All rights reserved                #
                  #                        -***-                        #
                  #######################################################


                         Program Version 4.2.1 -  RELEASE  -


 With contributions from (in alphabetic order):
   Daniel Aravena         : Magnetic Suceptibility
   Michael Atanasov       : Ab Initio Ligand Field Theory (pilot matlab implementation)
   Alexander A. Auer      : GIAO ZORA, VPT2
   Ute Becker             : Parallelization
   Giovanni Bistoni       : ED, misc. LED, open-shell LED, HFLD
   Martin Brehm           : Molecular dynamics
   Dmytro Bykov           : SCF Hessian
   Vijay G. Chilkuri      : MRCI spin determinant printing, contributions to CSF-ICE
   Dipayan Datta          : RHF DLPNO-CCSD density
   Achintya Kumar Dutta   : EOM-CC, STEOM-CC
   Dmitry Ganyushin       : Spin-Orbit,Spin-Spin,Magnetic field MRCI
   Miquel Garcia          : C-PCM Hessian, Gaussian charge scheme
   Yang Guo               : DLPNO-NEVPT2, CIM, IAO-localization
   Andreas Hansen         : Spin unrestricted coupled pair/coupled cluster methods
   Benjamin Helmich-Paris : CASSCF linear response (MC-RPA)
   Lee Huntington         : MR-EOM, pCC
   Robert Izsak           : Overlap fitted RIJCOSX, COSX-SCS-MP3, EOM
   Christian Kollmar      : KDIIS, OOCD, Brueckner-CCSD(T), CCSD density
   Simone Kossmann        : Meta GGA functionals, TD-DFT gradient, OOMP2, MP2 Hessian
   Martin Krupicka        : AUTO-CI
   Lucas Lang             : DCDCAS
   Dagmar Lenk            : GEPOL surface, SMD
   Dimitrios Liakos       : Extrapolation schemes; Compound Job, initial MDCI parallelization
   Dimitrios Manganas     : Further ROCIS development; embedding schemes
   Dimitrios Pantazis     : SARC Basis sets
   Taras Petrenko         : DFT Hessian,TD-DFT gradient, ASA, ECA, R-Raman, ABS, FL, XAS/XES, NRVS
   Peter Pinski           : DLPNO-MP2, DLPNO-MP2 Gradient
   Christoph Reimann      : Effective Core Potentials
   Marius Retegan         : Local ZFS, SOC
   Christoph Riplinger    : Optimizer, TS searches, QM/MM, DLPNO-CCSD(T), (RO)-DLPNO pert. Triples
   Tobias Risthaus        : Range-separated hybrids, TD-DFT gradient, RPA, STAB
   Michael Roemelt        : Original ROCIS implementation
   Masaaki Saitow         : Open-shell DLPNO-CCSD energy and density
   Barbara Sandhoefer     : DKH picture change effects
   Avijit Sen             : IP-ROCIS
   Kantharuban Sivalingam : CASSCF convergence, NEVPT2, FIC-MRCI
   Bernardo de Souza      : ESD, SOC TD-DFT
   Georgi Stoychev        : AutoAux, RI-MP2 NMR
   Willem Van den Heuvel  : Paramagnetic NMR
   Boris Wezisla          : Elementary symmetry handling
   Frank Wennmohs         : Technical directorship


 We gratefully acknowledge several colleagues who have allowed us to
 interface, adapt or use parts of their codes:
   Stefan Grimme, W. Hujo, H. Kruse,             : VdW corrections, initial TS optimization,
                  C. Bannwarth                     DFT functionals, gCP, sTDA/sTD-DF
   Ed Valeev, F. Pavosevic, A. Kumar             : LibInt (2-el integral package), F12 methods
   Garnet Chan, S. Sharma, J. Yang, R. Olivares  : DMRG
   Ulf Ekstrom                                   : XCFun DFT Library
   Mihaly Kallay                                 : mrcc  (arbitrary order and MRCC methods)
   Andreas Klamt, Michael Diedenhofen            : otool_cosmo (COSMO solvation model)
   Jiri Pittner, Ondrej Demel                    : Mk-CCSD
   Frank Weinhold                                : gennbo (NPA and NBO analysis)
   Christopher J. Cramer and Donald G. Truhlar   : smd solvation model
   Lars Goerigk                                  : TD-DFT with DH, B97 family of functionals
   V. Asgeirsson, H. Jonsson                     : NEB implementation
   FAccTs GmbH                                   : IRC, NEB, NEB-TS, Multilevel, MM, QM/MM, CI optimization
   S Lehtola, MJT Oliveira, MAL Marques          : LibXC Library


 Your calculation uses the libint2 library for the computation of 2-el integrals
 For citations please refer to: http://libint.valeyev.net

 Your ORCA version has been built with support for libXC version: 4.2.3
 For citations please refer to: https://tddft.org/programs/libxc/

 This ORCA versions uses:
   CBLAS   interface :  Fast vector & matrix operations
   LAPACKE interface :  Fast linear algebra routines
   SCALAPACK package :  Parallel linear algebra routines




***************************************
The coordinates will be read from file: init.xyz
***************************************


Your calculation utilizes the SMD solvation module
Please cite in your paper:
A.V. Marenich, C.J. Cramer, D.G. Truhlar J. Phys. Chem. B, 113, (2009), 6378 

Your calculation utilizes the semiempirical GFN2-xTB method
Please cite in your paper:
C. Bannwarth, Ehlert S., S. Grimme,  J. Chem. Theory Comput., 15, (2019), 1652.
   

----- Orbital basis set information -----
Your calculation utilizes the basis: def2-SVP
   F. Weigend and R. Ahlrichs, Phys. Chem. Chem. Phys. 7, 3297 (2005).

================================================================================
                                        WARNINGS
                       Please study these warnings very carefully!
================================================================================

WARNING: Gradients needed for Numerical Frequencies
  ===> : Setting RunTyp to EnGrad

WARNING: The environment variable RSH_COMMAND is not set!
  ===> : All Displacements for the Numerical Hessian calculation
         will be started on localhost

WARNING: Found dipole moment calculation with XTB calculation
  ===> : Switching off dipole moment calculation


INFO   : the flag for use of LIBINT has been found!

================================================================================
                                       INPUT FILE
================================================================================
NAME = /tmp/slurm-scratch/freq.799/freq.inp
|  1> ! XTB2 NumFreq
|  2> %maxcore 1150
|  3> 
|  4> * xyzfile 0 1 init.xyz
|  5> 
|  6> %cpcm
|  7>  smd true
|  8>  smdsolvent "ch2cl2"
|  9> end
| 10> %pal nprocs 6 end
| 11> 
| 12>                          ****END OF INPUT****
================================================================================

                     *******************************
                     * Energy+Gradient Calculation *
                     *******************************

      -----------------------------------------------------------      
     |                   =====================                   |     
     |                           x T B                           |     
     |                   =====================                   |     
     |                         S. Grimme                         |     
     |          Mulliken Center for Theoretical Chemistry        |     
     |                    University of Bonn                     |     
      -----------------------------------------------------------      

   * xtb version 6.3.2 (30e43eb) compiled by 'schneider@apollo14' on 2020-08-08

   xtb is free software: you can redistribute it and/or modify it under
   the terms of the GNU Lesser General Public License as published by
   the Free Software Foundation, either version 3 of the License, or
   (at your option) any later version.
   
   xtb is distributed in the hope that it will be useful,
   but WITHOUT ANY WARRANTY; without even the implied warranty of
   MERCHANTABILITY or FITNESS FOR A PARTICULAR PURPOSE.  See the
   GNU Lesser General Public License for more details.
   
   Cite this work as:
   * S. Grimme, C. Bannwarth, P. Shushkov, J. Chem. Theory Comput., 2017,
     13, 1989-2009. DOI: 10.1021/acs.jctc.7b00118
   * C. Bannwarth, S. Ehlert and S. Grimme., J. Chem. Theory Comput., 2019,
     15, 1652-1671. DOI: 10.1021/acs.jctc.8b01176
   * P. Pracht, E. Caldeweyher, S. Ehlert, S. Grimme, ChemRxiv, 2019, preprint.
     DOI: 10.26434/chemrxiv.8326202.v1
   
   for GFN-FF:
   * S. Spicher and S. Grimme, Angew. Chem. Int. Ed., 2020,
     DOI: 10.1002/anie.202004239
   
   for DFT-D4:
   * E. Caldeweyher, C. Bannwarth and S. Grimme, J. Chem. Phys., 2017,
     147, 034112. DOI: 10.1063/1.4993215
   * E. Caldeweyher, S. Ehlert, A. Hansen, H. Neugebauer, S. Spicher,
     C. Bannwarth and S. Grimme, J. Chem. Phys., 2019, 150, 154122.
     DOI: 10.1063/1.5090222
   
   for sTDA-xTB:
   * S. Grimme and C. Bannwarth, J. Chem. Phys., 2016, 145, 054103.
     DOI: 10.1063/1.4959605
   
   in the mass-spec context:
   * V. Asgeirsson, C. Bauer and S. Grimme, Chem. Sci., 2017, 8, 4879.
     DOI: 10.1039/c7sc00601b
   * J. Koopman and S. Grimme, ACS Omega 2019, 4, 12, 15120-15133.
     DOI: 10.1021/acsomega.9b02011
   
   for metadynamics refer to:
   * S. Grimme, J. Chem. Theory Comput., 2019, 155, 2847-2862
     DOI: 10.1021/acs.jctc.9b00143
   
   with help from (in alphabetical order)
   C. Bannwarth, F. Bohle, G. Brandenburg, E. Caldeweyher, M. Checinski,
   S. Dohm, S. Ehlert, S. Ehrlich, F. März, H. Neugebauer, J. Pisarek,
   P. Pracht, P. Shushkov, and S. Spicher.
   
 * started run on 2021/03/25 at 15:56:31.160     

           -------------------------------------------------
          |                Calculation Setup                |
           -------------------------------------------------

          program call               : /opt/orca/otool_xtb /tmp/slurm-scratch/freq.799/freq_XTB.xyz --grad -c 0 -u 0 -P 6 --namespace /tmp/slurm-scratch/freq.799/freq --gbsa CH2Cl2
          hostname                   : apollo14
          calculation namespace      : /tmp/slurm-scratch/freq.799/freq
          coordinate file            : /tmp/slurm-scratch/freq.799/freq_XTB.xyz
          omp threads                :                     6
          number of atoms            :                    36
          number of electrons        :                    88
          charge                     :                     0
          spin                       :                   0.0
          first test random number   :      0.95174303475101

   ID    Z sym.   atoms
    1    6 C      1-7, 12, 14, 30, 33
    2    1 H      8-10, 13, 15-18, 20, 21, 23, 24, 26-29, 31, 32, 34-36
    3    7 N      11
    4    8 O      19, 22, 25

molecular fragmentation (1/2 indicates fragments):
111111111111211111212222222111111111
# atoms in fragment 1/2:    27     9
 fragment masses (1/2) :      161.24       54.05
CMA distance (Bohr)    :   7.012
constraining FC (au)   :  0.0500
########################################################################
[WARNING] Please study the warnings concerning your input carefully
-1- prog_main_parseArguments: Process number higher than OMP_NUM_THREADS, I hope you know what you are doing.
########################################################################

           -------------------------------------------------
          |                 G F N 2 - x T B                 |
           -------------------------------------------------

        Reference                      10.1021/acs.jctc.8b01176
      * Hamiltonian:
        H0-scaling (s, p, d)           1.850000    2.230000    2.230000
        zeta-weighting                 0.500000
      * Dispersion:
        s8                             2.700000
        a1                             0.520000
        a2                             5.000000
        s9                             5.000000
      * Repulsion:
        kExp                           1.500000    1.000000
        rExp                           1.000000
      * Coulomb:
        alpha                          2.000000
        third order                    shell-resolved
        anisotropic                    true
        a3                             3.000000
        a5                             4.000000
        cn-shift                       1.200000
        cn-exp                         4.000000
        max-rad                        5.000000

      * Solvation model:               GBSA
        Solvent                        CH2Cl2
        Parameter file                 internal GFN2-xTB/GBSA
        Dielectric constant                8.9300E+00
        Reference state                gsolv [1 M gas/solution]
        Free energy shift                  4.4408E-03 Eh       2.7867E+00 kcal/mol
        Temperature                        2.9815E+02 K
        Density                            1.3300E+00 kg/L
        Solvent mass                       8.4930E+01 g/mol
        Interaction kernel             Still
        Born radius scaling (c1)           1.4917E+00
        Born radii integrator          GBOBC
        Born offset                        0.0000E+00 a0       0.0000E+00 AA
        H-bond correction              false
        Ion screening                  false
        Surface tension                    1.0000E-05 Eh       1.5569E+01 dyn/cm
        Grid points                               230 per atom

          ...................................................
          :                      SETUP                      :
          :.................................................:
          :  # basis functions                  81          :
          :  # atomic orbitals                  81          :
          :  # shells                           51          :
          :  # electrons                        88          :
          :  max. iterations                   250          :
          :  Hamiltonian                  GFN2-xTB          :
          :  restarted?                      false          :
          :  GBSA solvation                   true          :
          :  PC potential                    false          :
          :  electronic temp.          300.0000000     K    :
          :  accuracy                    1.0000000          :
          :  -> integral cutoff          0.2500000E+02      :
          :  -> integral neglect         0.1000000E-07      :
          :  -> SCF convergence          0.1000000E-05 Eh   :
          :  -> wf. convergence          0.1000000E-03 e    :
          :  Broyden damping             0.4000000          :
          ...................................................

 iter      E             dE          RMSdq      gap      omega  full diag
   1    -49.9337764 -0.499338E+02  0.361E+00    3.25       0.0  T
   2    -49.9708668 -0.370904E-01  0.216E+00    3.32       1.0  T
   3    -49.9627643  0.810246E-02  0.827E-01    2.92       1.0  T
   4    -49.9750409 -0.122766E-01  0.333E-01    3.12       1.0  T
   5    -49.9771437 -0.210276E-02  0.703E-02    3.06       1.0  T
   6    -49.9771586 -0.148893E-04  0.338E-02    3.07       1.0  T
   7    -49.9771666 -0.802756E-05  0.162E-02    3.07       1.0  T
   8    -49.9771692 -0.260246E-05  0.442E-03    3.07       3.8  T
   9    -49.9771694 -0.234260E-06  0.169E-03    3.07       9.9  T
  10    -49.9771695 -0.679942E-08  0.961E-04    3.07      17.3  T
  11    -49.9771695 -0.113054E-07  0.302E-04    3.07      55.1  T

   *** convergence criteria satisfied after 11 iterations ***

         #    Occupation            Energy/Eh            Energy/eV
      -------------------------------------------------------------
         1        2.0000           -0.6767317             -18.4148
       ...           ...                  ...                  ...
        38        2.0000           -0.4338663             -11.8061
        39        2.0000           -0.4301499             -11.7050
        40        2.0000           -0.4274047             -11.6303
        41        2.0000           -0.4270625             -11.6210
        42        2.0000           -0.4131864             -11.2434
        43        2.0000           -0.4057013             -11.0397
        44        2.0000           -0.3957211             -10.7681 (HOMO)
        45                         -0.2829452              -7.6993 (LUMO)
        46                         -0.2360127              -6.4222
        47                         -0.2018342              -5.4922
        48                         -0.1010394              -2.7494
        49                          0.0021186               0.0576
       ...                                ...                  ...
        81                          0.6188539              16.8399
      -------------------------------------------------------------
                  HL-Gap            0.1127759 Eh            3.0688 eV
             Fermi-level           -0.3393331 Eh           -9.2337 eV

 SCC (total)                   0 d,  0 h,  0 min,  0.180 sec
 SCC setup                      ...        0 min,  0.003 sec (  1.842%)
 Dispersion                     ...        0 min,  0.002 sec (  1.378%)
 classical contributions        ...        0 min,  0.005 sec (  2.928%)
 integral evaluation            ...        0 min,  0.016 sec (  8.836%)
 iterations                     ...        0 min,  0.086 sec ( 47.597%)
 molecular gradient             ...        0 min,  0.065 sec ( 36.284%)
 printout                       ...        0 min,  0.002 sec (  1.113%)

         :::::::::::::::::::::::::::::::::::::::::::::::::::::
         ::                     SUMMARY                     ::
         :::::::::::::::::::::::::::::::::::::::::::::::::::::
         :: total energy             -49.363397845088 Eh    ::
         :: total w/o Gsasa/hb       -49.343799085012 Eh    ::
         :: gradient norm              0.056000296372 Eh/a0 ::
         :: HOMO-LUMO gap              3.068789286285 eV    ::
         ::.................................................::
         :: SCC energy               -49.977169463739 Eh    ::
         :: -> isotropic ES            0.117610292507 Eh    ::
         :: -> anisotropic ES         -0.006399618404 Eh    ::
         :: -> anisotropic XC          0.027592295833 Eh    ::
         :: -> dispersion             -0.027162616536 Eh    ::
         :: -> Gsolv                  -0.029405999875 Eh    ::
         ::    -> Gborn               -0.009807239799 Eh    ::
         ::    -> Gsasa               -0.024039589250 Eh    ::
         ::    -> Ghb                  0.000000000000 Eh    ::
         ::    -> Gshift               0.004440829173 Eh    ::
         :: repulsion energy           0.613588019965 Eh    ::
         :: add. restraining           0.000000000000 Eh    ::
         :: total charge               0.000000000000 e     ::
         :::::::::::::::::::::::::::::::::::::::::::::::::::::

           -------------------------------------------------
          |                Property Printout                |
           -------------------------------------------------

    * Orbital Energies and Occupations

         #    Occupation            Energy/Eh            Energy/eV
      -------------------------------------------------------------
         1        2.0000           -0.6767317             -18.4148
       ...           ...                  ...                  ...
        32        2.0000           -0.4647095             -12.6454
        33        2.0000           -0.4499097             -12.2427
        34        2.0000           -0.4441223             -12.0852
        35        2.0000           -0.4432304             -12.0609
        36        2.0000           -0.4405407             -11.9877
        37        2.0000           -0.4385682             -11.9340
        38        2.0000           -0.4338663             -11.8061
        39        2.0000           -0.4301499             -11.7050
        40        2.0000           -0.4274047             -11.6303
        41        2.0000           -0.4270625             -11.6210
        42        2.0000           -0.4131864             -11.2434
        43        2.0000           -0.4057013             -11.0397
        44        2.0000           -0.3957211             -10.7681 (HOMO)
        45                         -0.2829452              -7.6993 (LUMO)
        46                         -0.2360127              -6.4222
        47                         -0.2018342              -5.4922
        48                         -0.1010394              -2.7494
        49                          0.0021186               0.0576
        50                          0.0245079               0.6669
        51                          0.0755309               2.0553
        52                          0.0810311               2.2050
        53                          0.0857567               2.3336
        54                          0.1055172               2.8713
        55                          0.1068066               2.9064
       ...                                ...                  ...
        81                          0.6188539              16.8399
      -------------------------------------------------------------
                  HL-Gap            0.1127759 Eh            3.0688 eV
             Fermi-level           -0.3393331 Eh           -9.2337 eV

     #   Z          covCN         q      C6AA      α(0)
     1   6 C        2.963     0.006    27.876     8.660
     2   6 C        2.911    -0.026    28.648     8.777
     3   6 C        2.907    -0.028    28.708     8.786
     4   6 C        2.909    -0.028    28.690     8.783
     5   6 C        2.907    -0.029    28.718     8.787
     6   6 C        2.915    -0.027    28.682     8.782
     7   6 C        2.846     0.078    26.243     8.396
     8   1 H        0.925     0.061     2.193     2.316
     9   1 H        0.925     0.041     2.435     2.440
    10   1 H        0.925     0.046     2.371     2.408
    11   7 N        1.824    -0.257    27.541     7.776
    12   6 C        3.753     0.015    20.374     6.437
    13   1 H        0.798     0.318     0.671     1.287
    14   6 C        3.797    -0.058    21.619     6.621
    15   1 H        0.923     0.015     2.806     2.620
    16   1 H        0.923     0.049     2.338     2.391
    17   1 H        0.923     0.046     2.369     2.407
    18   1 H        0.923     0.035     2.511     2.478
    19   8 O        1.605    -0.630    25.928     6.872
    20   1 H        0.923     0.013     2.837     2.634
    21   1 H        0.804     0.280     0.785     1.391
    22   8 O        1.603    -0.625    25.789     6.854
    23   1 H        0.801     0.312     0.686     1.301
    24   1 H        0.804     0.288     0.759     1.369
    25   8 O        1.600    -0.622    25.727     6.845
    26   1 H        0.799     0.325     0.652     1.268
    27   1 H        0.804     0.288     0.759     1.368
    28   1 H        0.925     0.050     2.325     2.385
    29   1 H        0.925     0.044     2.394     2.420
    30   6 C        3.796    -0.052    21.520     6.606
    31   1 H        0.923     0.034     2.534     2.490
    32   1 H        0.923     0.031     2.574     2.509
    33   6 C        3.745    -0.101    22.499     6.766
    34   1 H        0.923     0.037     2.495     2.470
    35   1 H        0.923     0.037     2.495     2.470
    36   1 H        0.923     0.035     2.519     2.482

 Mol. C6AA /au·bohr⁶  :      10951.354484
 Mol. C8AA /au·bohr⁸  :     241478.140549
 Mol. α(0) /au        :        160.651666


Wiberg/Mayer (AO) data.
largest (>0.10) Wiberg bond orders for each atom

 ---------------------------------------------------------------------------
     #   Z sym  total        # sym  WBO       # sym  WBO       # sym  WBO
 ---------------------------------------------------------------------------
     1   6 C    3.988 --     6 C    1.373     2 C    1.364     7 C    1.091
     2   6 C    3.988 --     3 C    1.463     1 C    1.364     8 H    0.963
                             5 C    0.106
     3   6 C    3.990 --     2 C    1.463     4 C    1.420    28 H    0.969
                             6 C    0.105
     4   6 C    3.986 --     5 C    1.432     3 C    1.420    10 H    0.971
     5   6 C    3.990 --     6 C    1.453     4 C    1.432    29 H    0.970
                             2 C    0.106
     6   6 C    3.985 --     5 C    1.453     1 C    1.373     9 H    0.968
                             3 C    0.105
     7   6 C    3.965 --    11 N    1.820     1 C    1.091    20 H    0.942
     8   1 H    0.996 --     2 C    0.963
     9   1 H    0.998 --     6 C    0.968
    10   1 H    0.997 --     4 C    0.971
    11   7 N    3.135 --     7 C    1.820    12 C    1.016
    12   6 C    3.981 --    11 N    1.016    14 C    0.987    15 H    0.967
                            16 H    0.958
    13   1 H    0.899 --    25 O    0.813
    14   6 C    3.990 --    30 C    1.005    12 C    0.987    18 H    0.978
                            17 H    0.976
    15   1 H    1.000 --    12 C    0.967
    16   1 H    0.995 --    12 C    0.958
    17   1 H    0.998 --    14 C    0.976
    18   1 H    0.999 --    14 C    0.978
    19   8 O    1.800 --    21 H    0.914    23 H    0.858
    20   1 H    0.999 --     7 C    0.942
    21   1 H    0.922 --    19 O    0.914
    22   8 O    1.843 --    24 H    0.915    26 H    0.832
    23   1 H    0.903 --    19 O    0.858
    24   1 H    0.917 --    22 O    0.915
    25   8 O    1.859 --    27 H    0.914    13 H    0.813
    26   1 H    0.894 --    22 O    0.832
    27   1 H    0.917 --    25 O    0.914
    28   1 H    0.997 --     3 C    0.969
    29   1 H    0.998 --     5 C    0.970
    30   6 C    3.995 --    33 C    1.018    14 C    1.005    32 H    0.978
                            31 H    0.978
    31   1 H    0.999 --    30 C    0.978
    32   1 H    0.999 --    30 C    0.978
    33   6 C    3.995 --    30 C    1.018    36 H    0.988    34 H    0.988
                            35 H    0.987
    34   1 H    0.999 --    33 C    0.988
    35   1 H    0.998 --    33 C    0.987
    36   1 H    0.999 --    33 C    0.988
 ---------------------------------------------------------------------------

Topologies differ in total number of bonds
Writing topology from bond orders to xtbtopo.mol

molecular dipole:
                 x           y           z       tot (Debye)
 q only:       -0.978      -1.253       0.687
   full:       -1.118      -1.754       0.633       5.526
molecular quadrupole (traceless):
                xx          xy          yy          xz          yz          zz
 q only:        6.597      -4.638      -6.664       6.806       6.184       0.067
  q+dip:        6.559      -9.217      -6.975       8.231      11.592       0.416
   full:        5.495      -7.591      -6.235       7.438       8.867       0.741


           -------------------------------------------------
          | TOTAL ENERGY              -49.363397845088 Eh   |
          | GRADIENT NORM               0.056000296372 Eh/α |
          | HOMO-LUMO GAP               3.068789286285 eV   |
           -------------------------------------------------

------------------------------------------------------------------------
 * finished run on 2021/03/25 at 15:56:31.412     
------------------------------------------------------------------------
 total:
 * wall-time:     0 d,  0 h,  0 min,  0.253 sec
 *  cpu-time:     0 d,  0 h,  0 min,  2.163 sec
 * ratio c/w:     8.565 speedup
 SCF:
 * wall-time:     0 d,  0 h,  0 min,  0.186 sec
 *  cpu-time:     0 d,  0 h,  0 min,  1.630 sec
 * ratio c/w:     8.745 speedup


-------------------------   --------------------
FINAL SINGLE POINT ENERGY       -49.363397845090
-------------------------   --------------------


----------------------------------------------------------------------------
                           ORCA NUMERICAL FREQUENCIES
                              (6-process run)
----------------------------------------------------------------------------

Number of atoms                ... 36
Central differences            ... used
Number of displacements        ... 216
Numerical increment            ... 5.000e-03 bohr
IR-spectrum generation         ... on
Raman-spectrum generation      ... off
Surface Crossing Hessian       ... off
List of participating nodes    ...  /tmp/slurm-scratch/freq.799/freq.hostnames

The output will be reduced. Please look at the following files:
SCF program output             ... >/tmp/slurm-scratch/freq.799/freq.lastscf
Integral program output        ... >/tmp/slurm-scratch/freq.799/freq.lastint
Gradient program output        ... >/tmp/slurm-scratch/freq.799/freq.lastgrad
Dipole moment program output   ... >/tmp/slurm-scratch/freq.799/freq.lastmom
AutoCI program output          ... >/tmp/slurm-scratch/freq.799/freq.lastautoci


         <<< Energy and Gradient at the input geometry >>>

        <<< Energy and Gradient at displaced geometries >>>
             <<<Displacing   2/coordinate 1 (+)>>>
             <<<Displacing   1/coordinate 3 (+)>>>
             <<<Displacing   2/coordinate 2 (+)>>>
             <<<Displacing   1/coordinate 1 (+)>>>
             <<<Displacing   2/coordinate 3 (+)>>>
             <<<Displacing   1/coordinate 2 (+)>>>
             <<<Displacing   2/coordinate 3 (-)>>>
             <<<Displacing   1/coordinate 3 (-)>>>
             <<<Displacing   1/coordinate 2 (-)>>>
             <<<Displacing   1/coordinate 1 (-)>>>
             <<<Displacing   2/coordinate 2 (-)>>>
             <<<Displacing   2/coordinate 1 (-)>>>
             <<<Displacing   3/coordinate 1 (+)>>>
             <<<Displacing   4/coordinate 3 (+)>>>
             <<<Displacing   4/coordinate 2 (+)>>>
             <<<Displacing   3/coordinate 3 (+)>>>
             <<<Displacing   4/coordinate 1 (+)>>>
             <<<Displacing   3/coordinate 1 (-)>>>
             <<<Displacing   3/coordinate 2 (+)>>>
             <<<Displacing   4/coordinate 3 (-)>>>
             <<<Displacing   4/coordinate 2 (-)>>>
             <<<Displacing   4/coordinate 1 (-)>>>
             <<<Displacing   3/coordinate 3 (-)>>>
             <<<Displacing   3/coordinate 2 (-)>>>
             <<<Displacing   5/coordinate 1 (+)>>>
             <<<Displacing   5/coordinate 2 (+)>>>
             <<<Displacing   5/coordinate 3 (+)>>>
             <<<Displacing   5/coordinate 1 (-)>>>
             <<<Displacing   5/coordinate 2 (-)>>>
             <<<Displacing   6/coordinate 2 (+)>>>
             <<<Displacing   6/coordinate 1 (+)>>>
             <<<Displacing   6/coordinate 3 (+)>>>
             <<<Displacing   5/coordinate 3 (-)>>>
             <<<Displacing   6/coordinate 2 (-)>>>
             <<<Displacing   6/coordinate 1 (-)>>>
             <<<Displacing   6/coordinate 3 (-)>>>
             <<<Displacing   7/coordinate 2 (+)>>>
             <<<Displacing   7/coordinate 1 (+)>>>
             <<<Displacing   7/coordinate 2 (-)>>>
             <<<Displacing   8/coordinate 1 (+)>>>
             <<<Displacing   7/coordinate 1 (-)>>>
             <<<Displacing   8/coordinate 1 (-)>>>
             <<<Displacing   8/coordinate 3 (+)>>>
             <<<Displacing   8/coordinate 2 (+)>>>
             <<<Displacing   7/coordinate 3 (+)>>>
             <<<Displacing   7/coordinate 3 (-)>>>
             <<<Displacing   8/coordinate 2 (-)>>>
             <<<Displacing   8/coordinate 3 (-)>>>
             <<<Displacing   9/coordinate 1 (+)>>>
             <<<Displacing   9/coordinate 2 (+)>>>
             <<<Displacing   9/coordinate 1 (-)>>>
             <<<Displacing   9/coordinate 3 (+)>>>
             <<<Displacing   9/coordinate 2 (-)>>>
             <<<Displacing   9/coordinate 3 (-)>>>
             <<<Displacing  10/coordinate 1 (+)>>>
             <<<Displacing  10/coordinate 2 (+)>>>
             <<<Displacing  10/coordinate 2 (-)>>>
             <<<Displacing  10/coordinate 3 (+)>>>
             <<<Displacing  10/coordinate 1 (-)>>>
             <<<Displacing  10/coordinate 3 (-)>>>
             <<<Displacing  11/coordinate 1 (+)>>>
             <<<Displacing  11/coordinate 1 (-)>>>
             <<<Displacing  11/coordinate 2 (+)>>>
             <<<Displacing  11/coordinate 3 (+)>>>
             <<<Displacing  11/coordinate 2 (-)>>>
             <<<Displacing  11/coordinate 3 (-)>>>
             <<<Displacing  12/coordinate 1 (+)>>>
             <<<Displacing  12/coordinate 3 (+)>>>
             <<<Displacing  12/coordinate 1 (-)>>>
             <<<Displacing  12/coordinate 3 (-)>>>
             <<<Displacing  12/coordinate 2 (+)>>>
             <<<Displacing  12/coordinate 2 (-)>>>
             <<<Displacing  13/coordinate 1 (+)>>>
             <<<Displacing  13/coordinate 2 (+)>>>
             <<<Displacing  13/coordinate 1 (-)>>>
             <<<Displacing  13/coordinate 2 (-)>>>
             <<<Displacing  13/coordinate 3 (+)>>>
             <<<Displacing  13/coordinate 3 (-)>>>
             <<<Displacing  14/coordinate 1 (+)>>>
             <<<Displacing  14/coordinate 2 (+)>>>
             <<<Displacing  14/coordinate 1 (-)>>>
             <<<Displacing  14/coordinate 2 (-)>>>
             <<<Displacing  14/coordinate 3 (+)>>>
             <<<Displacing  14/coordinate 3 (-)>>>
             <<<Displacing  15/coordinate 1 (+)>>>
             <<<Displacing  15/coordinate 2 (+)>>>
             <<<Displacing  15/coordinate 1 (-)>>>
             <<<Displacing  15/coordinate 2 (-)>>>
             <<<Displacing  15/coordinate 3 (+)>>>
             <<<Displacing  16/coordinate 1 (+)>>>
             <<<Displacing  16/coordinate 2 (+)>>>
             <<<Displacing  15/coordinate 3 (-)>>>
             <<<Displacing  16/coordinate 1 (-)>>>
             <<<Displacing  16/coordinate 2 (-)>>>
             <<<Displacing  16/coordinate 3 (+)>>>
             <<<Displacing  16/coordinate 3 (-)>>>
             <<<Displacing  17/coordinate 1 (+)>>>
             <<<Displacing  17/coordinate 1 (-)>>>
             <<<Displacing  18/coordinate 2 (+)>>>
             <<<Displacing  18/coordinate 1 (+)>>>
             <<<Displacing  17/coordinate 2 (+)>>>
             <<<Displacing  17/coordinate 3 (+)>>>
             <<<Displacing  17/coordinate 2 (-)>>>
             <<<Displacing  18/coordinate 2 (-)>>>
             <<<Displacing  18/coordinate 1 (-)>>>
             <<<Displacing  17/coordinate 3 (-)>>>
             <<<Displacing  18/coordinate 3 (+)>>>
             <<<Displacing  18/coordinate 3 (-)>>>
             <<<Displacing  19/coordinate 1 (+)>>>
             <<<Displacing  19/coordinate 1 (-)>>>
             <<<Displacing  19/coordinate 3 (+)>>>
             <<<Displacing  20/coordinate 1 (+)>>>
             <<<Displacing  19/coordinate 3 (-)>>>
             <<<Displacing  20/coordinate 1 (-)>>>
             <<<Displacing  19/coordinate 2 (+)>>>
             <<<Displacing  20/coordinate 2 (+)>>>
             <<<Displacing  19/coordinate 2 (-)>>>
             <<<Displacing  20/coordinate 2 (-)>>>
             <<<Displacing  20/coordinate 3 (+)>>>
             <<<Displacing  20/coordinate 3 (-)>>>
             <<<Displacing  21/coordinate 1 (+)>>>
             <<<Displacing  21/coordinate 1 (-)>>>
             <<<Displacing  21/coordinate 2 (+)>>>
             <<<Displacing  21/coordinate 3 (+)>>>
             <<<Displacing  21/coordinate 2 (-)>>>
             <<<Displacing  21/coordinate 3 (-)>>>
             <<<Displacing  22/coordinate 1 (+)>>>
             <<<Displacing  22/coordinate 2 (+)>>>
             <<<Displacing  22/coordinate 1 (-)>>>
             <<<Displacing  22/coordinate 2 (-)>>>
             <<<Displacing  22/coordinate 3 (+)>>>
             <<<Displacing  22/coordinate 3 (-)>>>
             <<<Displacing  23/coordinate 1 (+)>>>
             <<<Displacing  23/coordinate 1 (-)>>>
             <<<Displacing  23/coordinate 2 (+)>>>
             <<<Displacing  23/coordinate 3 (+)>>>
             <<<Displacing  23/coordinate 2 (-)>>>
             <<<Displacing  23/coordinate 3 (-)>>>
             <<<Displacing  24/coordinate 1 (+)>>>
             <<<Displacing  24/coordinate 2 (+)>>>
             <<<Displacing  24/coordinate 1 (-)>>>
             <<<Displacing  24/coordinate 2 (-)>>>
             <<<Displacing  24/coordinate 3 (+)>>>
             <<<Displacing  24/coordinate 3 (-)>>>
             <<<Displacing  25/coordinate 2 (+)>>>
             <<<Displacing  25/coordinate 1 (+)>>>
             <<<Displacing  25/coordinate 3 (+)>>>
             <<<Displacing  25/coordinate 2 (-)>>>
             <<<Displacing  25/coordinate 3 (-)>>>
             <<<Displacing  25/coordinate 1 (-)>>>
             <<<Displacing  26/coordinate 1 (+)>>>
             <<<Displacing  26/coordinate 2 (+)>>>
             <<<Displacing  26/coordinate 1 (-)>>>
             <<<Displacing  26/coordinate 2 (-)>>>
             <<<Displacing  26/coordinate 3 (+)>>>
             <<<Displacing  26/coordinate 3 (-)>>>
             <<<Displacing  27/coordinate 1 (+)>>>
             <<<Displacing  27/coordinate 2 (+)>>>
             <<<Displacing  27/coordinate 1 (-)>>>
             <<<Displacing  27/coordinate 2 (-)>>>
             <<<Displacing  27/coordinate 3 (+)>>>
             <<<Displacing  27/coordinate 3 (-)>>>
             <<<Displacing  28/coordinate 1 (+)>>>
             <<<Displacing  28/coordinate 1 (-)>>>
             <<<Displacing  28/coordinate 2 (+)>>>
             <<<Displacing  28/coordinate 2 (-)>>>
             <<<Displacing  28/coordinate 3 (+)>>>
             <<<Displacing  28/coordinate 3 (-)>>>
             <<<Displacing  29/coordinate 2 (+)>>>
             <<<Displacing  29/coordinate 1 (+)>>>
             <<<Displacing  29/coordinate 2 (-)>>>
             <<<Displacing  29/coordinate 1 (-)>>>
             <<<Displacing  29/coordinate 3 (+)>>>
             <<<Displacing  29/coordinate 3 (-)>>>
             <<<Displacing  30/coordinate 2 (+)>>>
             <<<Displacing  30/coordinate 2 (-)>>>
             <<<Displacing  30/coordinate 1 (+)>>>
             <<<Displacing  30/coordinate 1 (-)>>>
             <<<Displacing  30/coordinate 3 (+)>>>
             <<<Displacing  30/coordinate 3 (-)>>>
             <<<Displacing  31/coordinate 2 (+)>>>
             <<<Displacing  31/coordinate 2 (-)>>>
             <<<Displacing  31/coordinate 1 (+)>>>
             <<<Displacing  31/coordinate 1 (-)>>>
             <<<Displacing  31/coordinate 3 (+)>>>
             <<<Displacing  31/coordinate 3 (-)>>>
             <<<Displacing  32/coordinate 2 (+)>>>
             <<<Displacing  32/coordinate 1 (+)>>>
             <<<Displacing  32/coordinate 1 (-)>>>
             <<<Displacing  32/coordinate 2 (-)>>>
             <<<Displacing  32/coordinate 3 (+)>>>
             <<<Displacing  32/coordinate 3 (-)>>>
             <<<Displacing  33/coordinate 1 (+)>>>
             <<<Displacing  33/coordinate 1 (-)>>>
             <<<Displacing  33/coordinate 3 (+)>>>
             <<<Displacing  33/coordinate 3 (-)>>>
             <<<Displacing  33/coordinate 2 (+)>>>
             <<<Displacing  33/coordinate 2 (-)>>>
             <<<Displacing  34/coordinate 2 (+)>>>
             <<<Displacing  34/coordinate 1 (+)>>>
             <<<Displacing  34/coordinate 2 (-)>>>
             <<<Displacing  34/coordinate 1 (-)>>>
             <<<Displacing  34/coordinate 3 (+)>>>
             <<<Displacing  34/coordinate 3 (-)>>>
             <<<Displacing  35/coordinate 1 (+)>>>
             <<<Displacing  35/coordinate 2 (+)>>>
             <<<Displacing  35/coordinate 1 (-)>>>
             <<<Displacing  35/coordinate 2 (-)>>>
             <<<Displacing  35/coordinate 3 (+)>>>
             <<<Displacing  35/coordinate 3 (-)>>>
             <<<Displacing  36/coordinate 1 (+)>>>
             <<<Displacing  36/coordinate 1 (-)>>>
             <<<Displacing  36/coordinate 2 (+)>>>
             <<<Displacing  36/coordinate 2 (-)>>>
             <<<Displacing  36/coordinate 3 (+)>>>
             <<<Displacing  36/coordinate 3 (-)>>>

-----------------------
VIBRATIONAL FREQUENCIES
-----------------------

Scaling factor for frequencies =  1.000000000 (already applied!)

   0:         0.00 cm**-1
   1:         0.00 cm**-1
   2:         0.00 cm**-1
   3:         0.00 cm**-1
   4:         0.00 cm**-1
   5:         0.00 cm**-1
   6:        38.02 cm**-1
   7:        47.42 cm**-1
   8:        62.03 cm**-1
   9:        72.88 cm**-1
  10:        78.32 cm**-1
  11:        90.89 cm**-1
  12:       101.98 cm**-1
  13:       114.99 cm**-1
  14:       144.77 cm**-1
  15:       154.66 cm**-1
  16:       163.54 cm**-1
  17:       177.39 cm**-1
  18:       189.26 cm**-1
  19:       198.02 cm**-1
  20:       251.81 cm**-1
  21:       261.68 cm**-1
  22:       290.61 cm**-1
  23:       304.03 cm**-1
  24:       348.20 cm**-1
  25:       399.25 cm**-1
  26:       403.87 cm**-1
  27:       409.09 cm**-1
  28:       430.28 cm**-1
  29:       478.26 cm**-1
  30:       481.50 cm**-1
  31:       495.97 cm**-1
  32:       514.66 cm**-1
  33:       561.46 cm**-1
  34:       589.37 cm**-1
  35:       608.79 cm**-1
  36:       618.77 cm**-1
  37:       625.56 cm**-1
  38:       677.14 cm**-1
  39:       715.18 cm**-1
  40:       781.82 cm**-1
  41:       795.22 cm**-1
  42:       814.21 cm**-1
  43:       836.48 cm**-1
  44:       844.63 cm**-1
  45:       865.51 cm**-1
  46:       896.93 cm**-1
  47:       921.75 cm**-1
  48:       933.25 cm**-1
  49:       943.91 cm**-1
  50:       950.83 cm**-1
  51:       956.71 cm**-1
  52:       963.82 cm**-1
  53:       974.46 cm**-1
  54:      1007.40 cm**-1
  55:      1041.81 cm**-1
  56:      1054.54 cm**-1
  57:      1075.96 cm**-1
  58:      1109.94 cm**-1
  59:      1119.07 cm**-1
  60:      1145.57 cm**-1
  61:      1182.68 cm**-1
  62:      1187.63 cm**-1
  63:      1208.43 cm**-1
  64:      1215.38 cm**-1
  65:      1245.09 cm**-1
  66:      1260.27 cm**-1
  67:      1272.11 cm**-1
  68:      1279.61 cm**-1
  69:      1282.42 cm**-1
  70:      1329.52 cm**-1
  71:      1356.55 cm**-1
  72:      1369.02 cm**-1
  73:      1407.92 cm**-1
  74:      1433.72 cm**-1
  75:      1438.07 cm**-1
  76:      1470.87 cm**-1
  77:      1501.15 cm**-1
  78:      1506.84 cm**-1
  79:      1511.25 cm**-1
  80:      1514.70 cm**-1
  81:      1522.88 cm**-1
  82:      1532.37 cm**-1
  83:      1555.53 cm**-1
  84:      1561.71 cm**-1
  85:      1583.94 cm**-1
  86:      1600.92 cm**-1
  87:      2671.96 cm**-1
  88:      2816.26 cm**-1
  89:      2833.84 cm**-1
  90:      2873.80 cm**-1
  91:      2881.19 cm**-1
  92:      2889.87 cm**-1
  93:      2898.51 cm**-1
  94:      2906.41 cm**-1
  95:      2913.68 cm**-1
  96:      2918.79 cm**-1
  97:      2930.42 cm**-1
  98:      2957.65 cm**-1
  99:      2984.25 cm**-1
 100:      2991.87 cm**-1
 101:      2998.28 cm**-1
 102:      3006.74 cm**-1
 103:      3031.88 cm**-1
 104:      3104.09 cm**-1
 105:      3427.69 cm**-1
 106:      3434.64 cm**-1
 107:      3445.84 cm**-1


------------
NORMAL MODES
------------

These modes are the cartesian displacements weighted by the diagonal matrix
M(i,i)=1/sqrt(m[i]) where m[i] is the mass of the displaced atom
Thus, these vectors are normalized but *not* orthogonal

                  0          1          2          3          4          5    
      0       0.000000   0.000000   0.000000   0.000000   0.000000   0.000000
      1       0.000000   0.000000   0.000000   0.000000   0.000000   0.000000
      2       0.000000   0.000000   0.000000   0.000000   0.000000   0.000000
      3       0.000000   0.000000   0.000000   0.000000   0.000000   0.000000
      4       0.000000   0.000000   0.000000   0.000000   0.000000   0.000000
      5       0.000000   0.000000   0.000000   0.000000   0.000000   0.000000
      6       0.000000   0.000000   0.000000   0.000000   0.000000   0.000000
      7       0.000000   0.000000   0.000000   0.000000   0.000000   0.000000
      8       0.000000   0.000000   0.000000   0.000000   0.000000   0.000000
      9       0.000000   0.000000   0.000000   0.000000   0.000000   0.000000
     10       0.000000   0.000000   0.000000   0.000000   0.000000   0.000000
     11       0.000000   0.000000   0.000000   0.000000   0.000000   0.000000
     12       0.000000   0.000000   0.000000   0.000000   0.000000   0.000000
     13       0.000000   0.000000   0.000000   0.000000   0.000000   0.000000
     14       0.000000   0.000000   0.000000   0.000000   0.000000   0.000000
     15       0.000000   0.000000   0.000000   0.000000   0.000000   0.000000
     16       0.000000   0.000000   0.000000   0.000000   0.000000   0.000000
     17       0.000000   0.000000   0.000000   0.000000   0.000000   0.000000
     18       0.000000   0.000000   0.000000   0.000000   0.000000   0.000000
     19       0.000000   0.000000   0.000000   0.000000   0.000000   0.000000
     20       0.000000   0.000000   0.000000   0.000000   0.000000   0.000000
     21       0.000000   0.000000   0.000000   0.000000   0.000000   0.000000
     22       0.000000   0.000000   0.000000   0.000000   0.000000   0.000000
     23       0.000000   0.000000   0.000000   0.000000   0.000000   0.000000
     24       0.000000   0.000000   0.000000   0.000000   0.000000   0.000000
     25       0.000000   0.000000   0.000000   0.000000   0.000000   0.000000
     26       0.000000   0.000000   0.000000   0.000000   0.000000   0.000000
     27       0.000000   0.000000   0.000000   0.000000   0.000000   0.000000
     28       0.000000   0.000000   0.000000   0.000000   0.000000   0.000000
     29       0.000000   0.000000   0.000000   0.000000   0.000000   0.000000
     30       0.000000   0.000000   0.000000   0.000000   0.000000   0.000000
     31       0.000000   0.000000   0.000000   0.000000   0.000000   0.000000
     32       0.000000   0.000000   0.000000   0.000000   0.000000   0.000000
     33       0.000000   0.000000   0.000000   0.000000   0.000000   0.000000
     34       0.000000   0.000000   0.000000   0.000000   0.000000   0.000000
     35       0.000000   0.000000   0.000000   0.000000   0.000000   0.000000
     36       0.000000   0.000000   0.000000   0.000000   0.000000   0.000000
     37       0.000000   0.000000   0.000000   0.000000   0.000000   0.000000
     38       0.000000   0.000000   0.000000   0.000000   0.000000   0.000000
     39       0.000000   0.000000   0.000000   0.000000   0.000000   0.000000
     40       0.000000   0.000000   0.000000   0.000000   0.000000   0.000000
     41       0.000000   0.000000   0.000000   0.000000   0.000000   0.000000
     42       0.000000   0.000000   0.000000   0.000000   0.000000   0.000000
     43       0.000000   0.000000   0.000000   0.000000   0.000000   0.000000
     44       0.000000   0.000000   0.000000   0.000000   0.000000   0.000000
     45       0.000000   0.000000   0.000000   0.000000   0.000000   0.000000
     46       0.000000   0.000000   0.000000   0.000000   0.000000   0.000000
     47       0.000000   0.000000   0.000000   0.000000   0.000000   0.000000
     48       0.000000   0.000000   0.000000   0.000000   0.000000   0.000000
     49       0.000000   0.000000   0.000000   0.000000   0.000000   0.000000
     50       0.000000   0.000000   0.000000   0.000000   0.000000   0.000000
     51       0.000000   0.000000   0.000000   0.000000   0.000000   0.000000
     52       0.000000   0.000000   0.000000   0.000000   0.000000   0.000000
     53       0.000000   0.000000   0.000000   0.000000   0.000000   0.000000
     54       0.000000   0.000000   0.000000   0.000000   0.000000   0.000000
     55       0.000000   0.000000   0.000000   0.000000   0.000000   0.000000
     56       0.000000   0.000000   0.000000   0.000000   0.000000   0.000000
     57       0.000000   0.000000   0.000000   0.000000   0.000000   0.000000
     58       0.000000   0.000000   0.000000   0.000000   0.000000   0.000000
     59       0.000000   0.000000   0.000000   0.000000   0.000000   0.000000
     60       0.000000   0.000000   0.000000   0.000000   0.000000   0.000000
     61       0.000000   0.000000   0.000000   0.000000   0.000000   0.000000
     62       0.000000   0.000000   0.000000   0.000000   0.000000   0.000000
     63       0.000000   0.000000   0.000000   0.000000   0.000000   0.000000
     64       0.000000   0.000000   0.000000   0.000000   0.000000   0.000000
     65       0.000000   0.000000   0.000000   0.000000   0.000000   0.000000
     66       0.000000   0.000000   0.000000   0.000000   0.000000   0.000000
     67       0.000000   0.000000   0.000000   0.000000   0.000000   0.000000
     68       0.000000   0.000000   0.000000   0.000000   0.000000   0.000000
     69       0.000000   0.000000   0.000000   0.000000   0.000000   0.000000
     70       0.000000   0.000000   0.000000   0.000000   0.000000   0.000000
     71       0.000000   0.000000   0.000000   0.000000   0.000000   0.000000
     72       0.000000   0.000000   0.000000   0.000000   0.000000   0.000000
     73       0.000000   0.000000   0.000000   0.000000   0.000000   0.000000
     74       0.000000   0.000000   0.000000   0.000000   0.000000   0.000000
     75       0.000000   0.000000   0.000000   0.000000   0.000000   0.000000
     76       0.000000   0.000000   0.000000   0.000000   0.000000   0.000000
     77       0.000000   0.000000   0.000000   0.000000   0.000000   0.000000
     78       0.000000   0.000000   0.000000   0.000000   0.000000   0.000000
     79       0.000000   0.000000   0.000000   0.000000   0.000000   0.000000
     80       0.000000   0.000000   0.000000   0.000000   0.000000   0.000000
     81       0.000000   0.000000   0.000000   0.000000   0.000000   0.000000
     82       0.000000   0.000000   0.000000   0.000000   0.000000   0.000000
     83       0.000000   0.000000   0.000000   0.000000   0.000000   0.000000
     84       0.000000   0.000000   0.000000   0.000000   0.000000   0.000000
     85       0.000000   0.000000   0.000000   0.000000   0.000000   0.000000
     86       0.000000   0.000000   0.000000   0.000000   0.000000   0.000000
     87       0.000000   0.000000   0.000000   0.000000   0.000000   0.000000
     88       0.000000   0.000000   0.000000   0.000000   0.000000   0.000000
     89       0.000000   0.000000   0.000000   0.000000   0.000000   0.000000
     90       0.000000   0.000000   0.000000   0.000000   0.000000   0.000000
     91       0.000000   0.000000   0.000000   0.000000   0.000000   0.000000
     92       0.000000   0.000000   0.000000   0.000000   0.000000   0.000000
     93       0.000000   0.000000   0.000000   0.000000   0.000000   0.000000
     94       0.000000   0.000000   0.000000   0.000000   0.000000   0.000000
     95       0.000000   0.000000   0.000000   0.000000   0.000000   0.000000
     96       0.000000   0.000000   0.000000   0.000000   0.000000   0.000000
     97       0.000000   0.000000   0.000000   0.000000   0.000000   0.000000
     98       0.000000   0.000000   0.000000   0.000000   0.000000   0.000000
     99       0.000000   0.000000   0.000000   0.000000   0.000000   0.000000
    100       0.000000   0.000000   0.000000   0.000000   0.000000   0.000000
    101       0.000000   0.000000   0.000000   0.000000   0.000000   0.000000
    102       0.000000   0.000000   0.000000   0.000000   0.000000   0.000000
    103       0.000000   0.000000   0.000000   0.000000   0.000000   0.000000
    104       0.000000   0.000000   0.000000   0.000000   0.000000   0.000000
    105       0.000000   0.000000   0.000000   0.000000   0.000000   0.000000
    106       0.000000   0.000000   0.000000   0.000000   0.000000   0.000000
    107       0.000000   0.000000   0.000000   0.000000   0.000000   0.000000
                  6          7          8          9         10         11    
      0       0.059168   0.049165   0.047769  -0.031722  -0.015485   0.002373
      1       0.010936  -0.102074   0.014405  -0.032621   0.029392   0.006961
      2       0.052161   0.021560  -0.008313   0.068560  -0.021016   0.021539
      3       0.059716   0.060277   0.041501  -0.008063   0.009101   0.038397
      4       0.011113  -0.083891   0.030638  -0.023944   0.001464   0.016410
      5       0.052803   0.009230  -0.026550   0.071322   0.016344   0.029720
      6       0.058205   0.062653   0.037318   0.015909   0.018716   0.081201
      7       0.001260  -0.098796   0.053005  -0.006315  -0.082396   0.052080
      8       0.060179   0.015183  -0.034435   0.038697   0.052865  -0.027485
      9       0.055911   0.053425   0.040223   0.016442   0.002799   0.090053
     10      -0.006707  -0.130898   0.061527  -0.000243  -0.139115   0.078289
     11       0.065658   0.031808  -0.025312   0.008137   0.051116  -0.092288
     12       0.054895   0.041615   0.047896  -0.005573  -0.023697   0.056460
     13      -0.007465  -0.147923   0.051110  -0.010485  -0.116873   0.073395
     14       0.066127   0.043480  -0.011821   0.007976   0.016595  -0.105007
     15       0.056357   0.039098   0.051959  -0.028338  -0.034088   0.014360
     16       0.000658  -0.135289   0.028839  -0.024821  -0.035917   0.040900
     17       0.059832   0.038936  -0.003189   0.037116  -0.018750  -0.048551
     18       0.064668   0.040829   0.049880  -0.046238  -0.027993  -0.035810
     19       0.028180  -0.084496  -0.017006  -0.035591   0.116104  -0.025267
     20       0.038539   0.019339   0.005525   0.081190  -0.054190   0.068446
     21       0.062561   0.067043   0.040615  -0.008880   0.022016   0.032710
     22       0.021358  -0.058186   0.027438  -0.028110   0.047215  -0.002778
     23       0.044258  -0.008506  -0.035628   0.098909   0.010472   0.081006
     24       0.055603   0.029995   0.058156  -0.043161  -0.055704  -0.009327
     25       0.000053  -0.148540   0.020353  -0.030372  -0.020575   0.037863
     26       0.060114   0.047032   0.007952   0.034970  -0.044040  -0.056972
     27       0.054508   0.055499   0.036403   0.033916   0.011285   0.119495
     28      -0.012677  -0.139904   0.076464   0.011585  -0.195959   0.100297
     29       0.069976   0.034951  -0.029983  -0.014282   0.074910  -0.131783
     30       0.066842   0.055789   0.036780  -0.054437  -0.021637  -0.054676
     31       0.032812  -0.050346  -0.046373  -0.047076   0.149779  -0.052978
     32       0.037485   0.010755   0.014994   0.094185  -0.029291   0.098747
     33       0.075645   0.036221   0.034807  -0.027427  -0.034548  -0.038012
     34       0.057065  -0.037584  -0.050682  -0.018670   0.178632  -0.048892
     35       0.016017   0.017504   0.020336   0.053800  -0.037447   0.079628
     36      -0.072127   0.079391  -0.143640  -0.037579  -0.150023   0.037228
     37      -0.052644   0.003103  -0.165138  -0.054731   0.092870   0.018346
     38       0.078039  -0.085440   0.000439   0.243847   0.070414   0.119297
     39       0.047231   0.012858  -0.015545  -0.057509   0.045583  -0.071815
     40       0.090138   0.020281   0.047761  -0.034073   0.047548  -0.052967
     41      -0.016013   0.024512   0.006570  -0.032353   0.009194  -0.001380
     42       0.066927   0.008481   0.007465  -0.011204  -0.010988  -0.024341
     43       0.045154  -0.066854  -0.099316  -0.005301   0.248278  -0.046168
     44       0.024895   0.031102   0.066171   0.051014  -0.121618   0.090822
     45       0.111908   0.065546   0.095785   0.006908  -0.129586  -0.003113
     46       0.067165  -0.039981  -0.066061   0.005778   0.210074  -0.039216
     47       0.013779   0.005228  -0.016296   0.066083   0.027133   0.076583
     48       0.059346   0.045817   0.035134  -0.083949  -0.017513  -0.095306
     49       0.101209   0.045303   0.089214  -0.048888  -0.005927  -0.062590
     50      -0.020229   0.021208  -0.003100  -0.038041   0.023951  -0.012136
     51       0.011255  -0.015474  -0.079453  -0.098184   0.148075  -0.118553
     52       0.076258   0.014664   0.031609  -0.057785   0.077485  -0.074930
     53      -0.017676   0.028543   0.011932  -0.042343   0.004720  -0.007815
     54      -0.253762  -0.165536   0.122228   0.138448   0.067003  -0.063120
     55      -0.256961   0.261715   0.103538   0.244576  -0.034414  -0.223098
     56      -0.265220   0.054466   0.219458  -0.238184   0.078549   0.242412
     57       0.068980   0.017077   0.063694  -0.037711  -0.046466  -0.033088
     58       0.038732  -0.103963  -0.010948  -0.018395   0.136726  -0.016391
     59       0.025987   0.030495   0.006995   0.061038  -0.100019   0.056544
     60      -0.241520  -0.199691   0.113241   0.175132   0.020723  -0.164085
     61      -0.239870   0.259087   0.096761   0.246716  -0.029005  -0.218934
     62      -0.254617   0.060001   0.216603  -0.245158   0.093833   0.270169
     63      -0.137943  -0.183832  -0.089765   0.059662  -0.007517  -0.006471
     64      -0.061581   0.249458  -0.273383   0.002928  -0.015579   0.185386
     65      -0.049823  -0.155401  -0.152535  -0.123710  -0.250870  -0.177109
     66      -0.230563  -0.171986   0.076843   0.122243   0.056241  -0.041322
     67      -0.201616   0.264127  -0.006338   0.186235  -0.041139  -0.124914
     68      -0.216409   0.008901   0.129764  -0.226154   0.002530   0.161431
     69      -0.150878  -0.201063  -0.089536  -0.004510  -0.005975  -0.004046
     70      -0.066220   0.219179  -0.279698  -0.015848  -0.034128   0.137672
     71      -0.050580  -0.184063  -0.159611  -0.123705  -0.272255  -0.232021
     72      -0.116921   0.057021  -0.191904  -0.010644  -0.169513   0.065036
     73      -0.071565  -0.004703  -0.181967  -0.049411   0.080866   0.027379
     74       0.077282  -0.125576  -0.018694   0.289147   0.078717   0.122560
     75      -0.149650  -0.126077  -0.110768   0.045127  -0.055355  -0.002179
     76      -0.057654   0.191722  -0.257590   0.001679   0.020490   0.172362
     77      -0.016471  -0.167648  -0.119798  -0.012252  -0.163629  -0.111855
     78      -0.096601   0.054428  -0.168608   0.018692  -0.131893   0.079178
     79      -0.088219   0.003436  -0.185343  -0.049067   0.081251   0.046362
     80       0.093147  -0.126827   0.000691   0.313858   0.110725   0.136300
     81       0.058695   0.071184   0.031633   0.032060   0.039258   0.106281
     82       0.001004  -0.085837   0.062913   0.001908  -0.100694   0.057524
     83       0.060563   0.007509  -0.046647   0.038862   0.080708  -0.020236
     84       0.052923   0.035356   0.050313  -0.004452  -0.035825   0.061748
     85      -0.014197  -0.169752   0.059610  -0.007199  -0.158933   0.092727
     86       0.070604   0.054937  -0.007490  -0.015148   0.016330  -0.155103
     87       0.048959  -0.015883  -0.052006   0.002694   0.075900  -0.009999
     88       0.125439   0.049908   0.111331  -0.000925  -0.051652  -0.019065
     89      -0.037516   0.031212  -0.000219  -0.103000   0.043551  -0.075340
     90       0.073096   0.000937  -0.010899   0.036825   0.000221   0.032271
     91       0.140914   0.058416   0.133279   0.022651  -0.088658   0.004598
     92      -0.029627   0.034356   0.008639  -0.090262   0.030840  -0.065308
     93       0.039345  -0.043280  -0.095550   0.033288   0.127613   0.021108
     94       0.121225   0.033846   0.085895   0.019246  -0.018707  -0.001496
     95      -0.041583   0.025521  -0.009275  -0.100211   0.050268  -0.068167
     96       0.030994  -0.028863  -0.083891  -0.023617   0.135829  -0.043922
     97       0.143621   0.087245   0.176156  -0.027817  -0.140883  -0.041316
     98      -0.059670   0.040883  -0.004705  -0.191232   0.085435  -0.175564
     99       0.036605  -0.008535  -0.052396  -0.052469   0.100271  -0.074482
    100       0.149901   0.104363   0.204482  -0.046517  -0.177730  -0.058495
    101      -0.062593   0.038905  -0.010518  -0.196983   0.099432  -0.185685
    102       0.034299  -0.042375  -0.099062   0.017825   0.140923   0.003197
    103       0.157177   0.096704   0.199130  -0.008149  -0.181767  -0.018464
    104      -0.069618   0.046068  -0.005628  -0.233844   0.103932  -0.224297
    105       0.009984  -0.044473  -0.121899  -0.053949   0.207157  -0.083724
    106       0.136236   0.086219   0.169376  -0.047543  -0.124460  -0.062761
    107      -0.061347   0.044477  -0.000630  -0.203483   0.081805  -0.186857
                 12         13         14         15         16         17    
      0      -0.004854  -0.001758   0.036211  -0.040059  -0.072954   0.027069
      1       0.011811  -0.005979   0.100519  -0.163011  -0.001804  -0.022301
      2       0.054442  -0.042908  -0.059295   0.084510   0.058520  -0.019675
      3       0.102898   0.030024   0.035964  -0.055971  -0.022253  -0.005217
      4       0.123807   0.155868   0.070737  -0.143312   0.016935  -0.009379
      5      -0.000810  -0.180076  -0.030536   0.054560   0.065522  -0.047460
      6       0.173474   0.018241   0.015539  -0.031867   0.033098  -0.037827
      7       0.103123   0.178684  -0.026562  -0.001451   0.030295   0.015977
      8      -0.053134  -0.182178   0.042607  -0.047142   0.008679  -0.033929
      9       0.138604  -0.023400  -0.002126   0.002107   0.031323  -0.036543
     10      -0.021659   0.032130  -0.087847   0.115607   0.022620   0.020781
     11      -0.055618  -0.040154   0.086593  -0.126982  -0.053282   0.010591
     12       0.033715  -0.059139   0.005829   0.006238  -0.026137  -0.005222
     13      -0.126872  -0.139339  -0.035588   0.063188  -0.013097   0.004295
     14      -0.005928   0.107728   0.040328  -0.075126  -0.046713   0.041613
     15      -0.037787  -0.047551   0.026104  -0.019180  -0.079327   0.027349
     16      -0.109815  -0.154172   0.062258  -0.085144  -0.026169  -0.015962
     17       0.050812   0.105423  -0.033121   0.031556   0.012347   0.021384
     18      -0.067621   0.016264   0.038617  -0.040026  -0.071031   0.028586
     19       0.022252  -0.019441   0.098978  -0.153184   0.021890  -0.014590
     20       0.101700  -0.049804  -0.062673   0.085589   0.047537  -0.022667
     21       0.130821   0.063016   0.048220  -0.080165  -0.018743  -0.007538
     22       0.223411   0.262675   0.113854  -0.223336   0.029007  -0.019275
     23      -0.006571  -0.273502  -0.058531   0.085930   0.113541  -0.082078
     24      -0.115729  -0.069210   0.031224  -0.020007  -0.122336   0.051302
     25      -0.187918  -0.273927   0.090801  -0.111988  -0.046450  -0.024929
     26       0.087626   0.209785  -0.058323   0.057087   0.011071   0.041731
     27       0.189795  -0.029491  -0.020668   0.025183   0.071827  -0.057938
     28      -0.034770   0.048698  -0.166594   0.234029   0.040548   0.036740
     29      -0.095244  -0.043681   0.147270  -0.213617  -0.100441   0.021433
     30      -0.065839   0.031562  -0.024772   0.043150  -0.037608   0.009540
     31       0.038121  -0.004102  -0.018862  -0.003369   0.066736  -0.020368
     32       0.109463  -0.087621   0.006518  -0.015003  -0.012807   0.044080
     33      -0.052434   0.033566   0.009127   0.063244  -0.011142  -0.029334
     34       0.040246  -0.023159  -0.102648   0.034994   0.096078   0.037724
     35       0.092385  -0.075408   0.027167  -0.050052  -0.048907   0.040291
     36      -0.106096  -0.016348  -0.122997  -0.191779   0.139842   0.008937
     37       0.084385  -0.043741   0.069686   0.149969  -0.039529  -0.013125
     38      -0.113425   0.122539   0.003584   0.011898  -0.006014  -0.003537
     39      -0.061746   0.041669   0.076515   0.125942   0.126912   0.027684
     40      -0.006828  -0.008123  -0.244083  -0.063720  -0.161665  -0.075025
     41       0.022621  -0.041423   0.040821  -0.022936  -0.006708   0.056144
     42      -0.029360   0.030919   0.079878   0.086479   0.064687  -0.027146
     43       0.060367  -0.033228  -0.032462   0.093571   0.244522   0.109298
     44       0.087058  -0.062242  -0.000793  -0.117360  -0.193745  -0.072391
     45      -0.045808   0.027414  -0.092587   0.000717  -0.179226  -0.111047
     46       0.051382  -0.037909  -0.120710   0.072003   0.160835   0.097095
     47       0.100847  -0.087726   0.042032   0.009562   0.074628   0.126597
     48      -0.121143   0.057694   0.097480   0.135107   0.119145   0.083867
     49      -0.033085   0.005787  -0.332503  -0.121355  -0.309626  -0.180008
     50      -0.001309  -0.045173   0.201431   0.077540   0.215631   0.278681
     51      -0.077362   0.054443   0.147459   0.199605   0.290639   0.095628
     52      -0.006263   0.006805  -0.351191  -0.113709  -0.280944  -0.237822
     53       0.028319  -0.030523  -0.092370  -0.097751  -0.182816  -0.131280
     54      -0.005980  -0.020530   0.050133   0.103454  -0.123180   0.025392
     55       0.043732  -0.014451  -0.019666  -0.038091   0.050009  -0.016854
     56      -0.014001   0.052226  -0.026443  -0.011563   0.030961  -0.010707
     57      -0.103179   0.011279   0.093656  -0.098479  -0.081388   0.030354
     58       0.000382  -0.046613   0.157043  -0.220170   0.007828   0.019916
     59       0.106633  -0.012208  -0.110743   0.141346   0.062524  -0.072253
     60       0.032262  -0.026735   0.052065   0.102571  -0.125826   0.023700
     61       0.040254  -0.014482  -0.019696  -0.050360   0.057764  -0.017007
     62      -0.025715   0.054038  -0.027009  -0.020163   0.037210  -0.010249
     63      -0.030614  -0.022757   0.003422  -0.020081   0.034245  -0.001990
     64      -0.079080   0.064223   0.070193   0.100279  -0.134350   0.014965
     65       0.129126   0.051321   0.013751   0.044607  -0.051963  -0.015275
     66      -0.013000  -0.014495   0.058030   0.114317  -0.138863   0.027661
     67       0.008732   0.000453  -0.007761  -0.027632   0.031206  -0.013056
     68       0.017467   0.053281  -0.017505  -0.002766   0.014980  -0.011317
     69       0.005187  -0.042103   0.009409  -0.008677   0.040072  -0.004227
     70      -0.039033   0.046923   0.083697   0.125108  -0.154182   0.016457
     71       0.162697   0.038193   0.026964   0.068818  -0.076407  -0.012760
     72      -0.119696  -0.002357  -0.110167  -0.221719   0.151316   0.004995
     73       0.086043  -0.049050   0.066443   0.117901  -0.020304  -0.013634
     74      -0.191048   0.213446  -0.004126  -0.003735   0.001688  -0.026240
     75      -0.043397  -0.017813  -0.012134  -0.049933   0.040383   0.001178
     76      -0.053389   0.056419   0.093766   0.143741  -0.155878   0.013688
     77       0.051125   0.093158   0.016899   0.048228  -0.051016  -0.017672
     78      -0.149322   0.001545  -0.126519  -0.225042   0.169738  -0.005019
     79       0.113934  -0.095336   0.069103   0.101793  -0.002771  -0.004922
     80      -0.213555   0.212306  -0.017695  -0.007553   0.018825  -0.034082
     81       0.251380   0.038745   0.011105  -0.032776   0.076150  -0.061686
     82       0.181695   0.299725  -0.055832   0.023730   0.050021   0.027989
     83      -0.089842  -0.287886   0.068589  -0.071810   0.011003  -0.057281
     84       0.008037  -0.090515  -0.005009   0.028338  -0.029941  -0.003671
     85      -0.216196  -0.248675  -0.073523   0.139983  -0.025788   0.009461
     86      -0.012353   0.213912   0.062936  -0.117754  -0.087809   0.077869
     87       0.033848   0.007580  -0.004628   0.064705   0.032513  -0.076286
     88      -0.029215  -0.026529  -0.075882   0.004344  -0.016126   0.174770
     89      -0.045866  -0.001358   0.006007  -0.004592  -0.009822  -0.004041
     90       0.045781   0.005159   0.125614   0.094887   0.073926  -0.215597
     91      -0.026418  -0.045820  -0.010969   0.024642   0.049738   0.361359
     92      -0.047087  -0.020216   0.028280   0.006127   0.043538   0.233093
     93       0.102827  -0.019546  -0.116988  -0.004543  -0.064438  -0.085809
     94       0.007149  -0.054420  -0.144470  -0.032919  -0.041462   0.353940
     95      -0.025796   0.011300  -0.011976  -0.022927  -0.075492  -0.284732
     96       0.024487   0.009136  -0.118015   0.042969  -0.004252   0.036420
     97      -0.103167   0.020028   0.118353   0.105583   0.094345  -0.080913
     98      -0.145510   0.051715  -0.045488   0.047442   0.020587  -0.017755
     99      -0.033602   0.037405  -0.035715   0.105059   0.067774  -0.013836
    100      -0.142911   0.047721   0.206562   0.157768   0.145587  -0.236535
    101      -0.153895   0.043069  -0.082215   0.041767   0.028140   0.159952
    102       0.086483  -0.019457  -0.140643  -0.006836  -0.055916   0.028102
    103      -0.100498   0.008598   0.189290   0.119207   0.137046  -0.005828
    104      -0.194584   0.079943  -0.067036   0.078248   0.036934  -0.052540
    105       0.013774   0.010483  -0.257724   0.014940  -0.051376   0.175676
    106      -0.117896   0.037114   0.098369   0.113493   0.081816  -0.185574
    107      -0.158260   0.069817  -0.025295   0.064525   0.021137  -0.172721
                 18         19         20         21         22         23    
      0      -0.078082   0.004972   0.058648   0.053815  -0.021523   0.033703
      1       0.080804   0.011173  -0.038527  -0.033433   0.022989  -0.013347
      2       0.077442   0.012771   0.012751  -0.007934  -0.031424  -0.013123
      3       0.015407   0.018845   0.047080   0.034477  -0.040999   0.061932
      4       0.084214   0.010241  -0.045250  -0.045335   0.072069   0.090601
      5       0.122839   0.019621   0.018321  -0.005564  -0.096065  -0.099648
      6       0.097224   0.026912   0.024656   0.004598  -0.054846   0.009704
      7       0.016251  -0.003835   0.015974   0.002582   0.008484   0.012945
      8       0.093962   0.023142   0.008971  -0.003749  -0.062429  -0.006936
      9       0.084038   0.025616   0.038717   0.015594  -0.088423  -0.022458
     10      -0.031746  -0.007147   0.067695   0.045860  -0.114782  -0.091855
     11       0.017517   0.017689   0.034329   0.024586  -0.007386   0.123078
     12      -0.004450   0.017015   0.051066   0.036038  -0.048559   0.034886
     13      -0.019034   0.004268   0.030155   0.018559  -0.032329   0.062719
     14      -0.037439   0.003249   0.076501   0.059930  -0.067755   0.002120
     15      -0.085606   0.007387   0.073205   0.063827  -0.025137   0.069842
     16       0.039414   0.013744  -0.011144  -0.015364   0.043123   0.098191
     17       0.007929   0.006649   0.068626   0.044695  -0.118566  -0.058892
     18      -0.059292   0.006476   0.050098   0.026715  -0.031480  -0.081515
     19       0.045313  -0.026118   0.030641  -0.004083  -0.031806  -0.202236
     20       0.066762   0.022430  -0.050141  -0.023721   0.068263   0.155496
     21       0.031303   0.019352   0.040706   0.025030  -0.031624   0.077112
     22       0.143996   0.014747  -0.063863  -0.078670   0.095239   0.142783
     23       0.189275   0.028381   0.006097  -0.007350  -0.143316  -0.153927
     24      -0.148057   0.004376   0.113491   0.100777  -0.046199   0.113224
     25       0.040233   0.017276  -0.020123  -0.022443   0.080220   0.150630
     26      -0.023516   0.001209   0.095747   0.068776  -0.162701  -0.088584
     27       0.134969   0.029012   0.027064  -0.000770  -0.111180  -0.078473
     28      -0.077449  -0.017486   0.120448   0.083631  -0.217616  -0.230415
     29      -0.004139   0.020242   0.015331   0.018400   0.071517   0.250927
     30      -0.037568   0.017925  -0.039591   0.010462  -0.107656   0.057265
     31       0.002366  -0.042884  -0.076267  -0.004930  -0.137055   0.035466
     32      -0.081082  -0.059576   0.111242   0.000314   0.258843  -0.054425
     33       0.060851   0.083495  -0.054662  -0.003990   0.064457  -0.044423
     34      -0.081320  -0.164647   0.138509  -0.002230  -0.025647   0.089639
     35      -0.113400  -0.046556  -0.050272  -0.024687   0.101079  -0.032634
     36       0.030987  -0.139240  -0.054754   0.108176  -0.023876   0.026650
     37      -0.111745   0.198377  -0.060993   0.265298   0.007931   0.013178
     38      -0.056846   0.028620   0.031663   0.061935   0.076253  -0.029215
     39       0.023390  -0.002397  -0.054493  -0.032239   0.021546  -0.009061
     40      -0.021430  -0.010435  -0.017679  -0.027897   0.006646  -0.012643
     41      -0.135695  -0.078344  -0.176751  -0.079897  -0.085772  -0.030493
     42       0.103825   0.092047  -0.039114   0.006196   0.120683  -0.069586
     43      -0.115224  -0.263482   0.271736   0.010964  -0.001589   0.143377
     44      -0.003363   0.122812  -0.244438  -0.032551   0.126090  -0.148008
     45       0.121740   0.195047  -0.064262   0.013799   0.193329  -0.100262
     46      -0.132983  -0.259514   0.320700   0.016237   0.030342   0.167308
     47      -0.184230  -0.179830   0.135120  -0.012411   0.110254   0.066373
     48       0.101570   0.086250  -0.117163  -0.036970  -0.009016  -0.041076
     49       0.003012   0.059099  -0.080286  -0.033632   0.011853  -0.068779
     50      -0.087315  -0.089365  -0.144777  -0.074639  -0.124773   0.022955
     51      -0.003173  -0.095086  -0.002401  -0.036901  -0.073559   0.057319
     52      -0.059727  -0.029256  -0.019437  -0.030865  -0.007820  -0.031760
     53      -0.163853  -0.064869  -0.193589  -0.080326  -0.065867  -0.071090
     54       0.123730  -0.174732  -0.033039   0.107053   0.007985  -0.003151
     55      -0.048310   0.064088   0.007958  -0.028375  -0.003061   0.002047
     56      -0.022357   0.033209   0.004300  -0.014441  -0.001541   0.000046
     57      -0.013881   0.018457   0.141402   0.024499   0.016848  -0.255844
     58       0.007525  -0.072771   0.207178   0.008796   0.096646  -0.474503
     59       0.156155   0.098410  -0.248779  -0.045946  -0.085639   0.435497
     60       0.125560  -0.184323  -0.037517   0.132605   0.016457  -0.008360
     61      -0.051086   0.069203   0.013352  -0.027959   0.000671  -0.010271
     62      -0.024113   0.037940   0.009474  -0.018629  -0.000454  -0.009349
     63      -0.096588   0.179868   0.086322  -0.290241  -0.031752   0.004386
     64       0.090604  -0.090710   0.036074  -0.145437  -0.019161   0.001678
     65       0.019421  -0.033445   0.003173  -0.016597  -0.003100   0.001040
     66       0.133893  -0.185467  -0.026849   0.086189   0.006381  -0.004792
     67      -0.040539   0.065815   0.028881  -0.099006  -0.010344  -0.001773
     68      -0.019731   0.028121   0.011831  -0.036097   0.000997  -0.001313
     69      -0.132804   0.243934   0.107277  -0.351111  -0.037438   0.009936
     70       0.092851  -0.090719   0.040916  -0.146319  -0.017053  -0.001216
     71       0.034801  -0.056416   0.000441   0.007095   0.001774  -0.004175
     72       0.015341  -0.092356  -0.046126   0.154391   0.033307  -0.011897
     73      -0.111977   0.198374  -0.054571   0.283704   0.035756  -0.006522
     74      -0.030136   0.053317  -0.033740   0.055967  -0.002500   0.009841
     75      -0.064937   0.121072   0.082845  -0.285106  -0.026692   0.000384
     76       0.064160  -0.034979   0.048315  -0.176603  -0.025027   0.005684
     77       0.009389  -0.011600  -0.003224  -0.014148  -0.010225   0.004807
     78       0.002591  -0.069876  -0.084649   0.248663   0.010986  -0.006651
     79      -0.149533   0.223094  -0.027729   0.375015   0.122913  -0.054574
     80      -0.045197   0.075846  -0.064862   0.148757  -0.012908   0.009501
     81       0.161148   0.031389  -0.008884  -0.031295  -0.028409  -0.020714
     82       0.009585  -0.009687   0.029619   0.006679   0.018623   0.004496
     83       0.132111   0.031239  -0.020358  -0.025406  -0.059643  -0.013716
     84      -0.016232   0.016377   0.054267   0.038666  -0.049240   0.044072
     85      -0.059335   0.001649   0.040230   0.026732  -0.033565   0.093677
     86      -0.109243  -0.008771   0.095875   0.087048  -0.049119  -0.005400
     87      -0.108703  -0.094953  -0.102216  -0.078048   0.093700  -0.031425
     88       0.059965   0.066434  -0.099939  -0.048231   0.035222  -0.030681
     89      -0.074797  -0.050140  -0.106349  -0.047663  -0.119869  -0.014488
     90      -0.260247  -0.216901  -0.151148  -0.106302   0.053693  -0.037904
     91       0.118320   0.126609  -0.170708  -0.065524   0.018026  -0.042309
     92       0.036491   0.052722  -0.161141  -0.055543  -0.121127  -0.023998
     93      -0.161366  -0.118236  -0.154550  -0.106778   0.064277  -0.042036
     94       0.128117   0.141901  -0.162651  -0.065972   0.014612  -0.041932
     95      -0.234110  -0.189641  -0.066381  -0.051677  -0.116928  -0.008596
     96       0.017768   0.006627  -0.066834  -0.065078   0.187212  -0.036194
     97      -0.047913  -0.060993  -0.013217  -0.028948   0.109453  -0.017588
     98       0.108267   0.054476   0.095136   0.025281   0.123543   0.003489
     99       0.051161   0.010464  -0.000989  -0.041530   0.299657  -0.041267
    100      -0.105303  -0.133625   0.056359  -0.013812   0.172273  -0.004040
    101       0.235535   0.169784   0.067213   0.030005   0.162300  -0.023254
    102      -0.082810  -0.051588  -0.156350  -0.098333   0.023074  -0.030018
    103      -0.047679  -0.046949  -0.092224  -0.044174   0.040287  -0.042125
    104       0.185542   0.091483   0.207466   0.059202   0.287952   0.012302
    105       0.178777   0.136712  -0.009546  -0.041623   0.309722  -0.039390
    106      -0.067749  -0.095787   0.065520  -0.013541   0.179873   0.003999
    107       0.038599  -0.022050   0.163112   0.034873   0.163651   0.027840
                 24         25         26         27         28         29    
      0       0.003111   0.073704   0.053826   0.000611   0.051369  -0.000227
      1      -0.002351  -0.000504  -0.009871   0.002931  -0.000717  -0.011050
      2      -0.000282  -0.057829  -0.037199  -0.005063   0.046370  -0.000174
      3       0.001402   0.053443  -0.011211   0.000205  -0.055951   0.008180
      4      -0.000632   0.031035  -0.174615  -0.005399   0.003224  -0.001380
      5      -0.003162  -0.111100   0.076135   0.005021  -0.028982  -0.006779
      6      -0.002219  -0.064021   0.017763   0.002536  -0.078683   0.001623
      7       0.001624  -0.139301   0.101409   0.005709   0.007095   0.002670
      8      -0.001480   0.077897  -0.108048  -0.001046  -0.042339  -0.002645
      9      -0.002160  -0.012105  -0.005383   0.003154  -0.094119   0.000654
     10       0.002295   0.054470   0.028883   0.007550  -0.058796   0.000921
     11       0.002570  -0.025131  -0.003567   0.001627  -0.078712   0.009969
     12       0.001035   0.048093  -0.015455  -0.000805  -0.002475   0.001115
     13       0.002700   0.096274  -0.120852  -0.004696  -0.037266   0.008184
     14       0.003542  -0.042556   0.131357   0.010281  -0.061879   0.003151
     15       0.004081   0.037063   0.092852   0.002902   0.030884   0.004084
     16      -0.000259  -0.153904   0.092650   0.004829  -0.047827  -0.001908
     17       0.001738   0.096490  -0.097241  -0.001530  -0.062640   0.003306
     18      -0.003356  -0.070185  -0.075083  -0.004431   0.034516  -0.015349
     19      -0.000506   0.080044   0.048450  -0.001077   0.085412   0.004312
     20       0.003892   0.030657   0.039883  -0.002200   0.114903   0.001514
     21       0.001065   0.071799  -0.070538  -0.003247  -0.066604   0.008978
     22      -0.001822   0.091466  -0.373590  -0.017276  -0.045939   0.000739
     23      -0.006405  -0.230058   0.177818   0.014946  -0.109939  -0.011751
     24       0.006890   0.029754   0.163893   0.005529  -0.023305   0.012556
     25      -0.000261  -0.300971   0.231473   0.003931  -0.036557  -0.000396
     26       0.003120   0.234604  -0.195431   0.000683  -0.095593   0.005926
[...]
     75      -0.011493  -0.020960  -0.103143  -0.012158  -0.016791  -0.003166
     76      -0.010975  -0.019771  -0.114555  -0.006560  -0.043706  -0.007340
     77      -0.001826  -0.003199  -0.017372  -0.000210   0.015887   0.002135
     78      -0.000522  -0.002268  -0.003348   0.654215   0.081888  -0.004834
     79      -0.000500  -0.002376  -0.002497   0.044594   0.005124  -0.000431
     80       0.000596   0.004587   0.002188  -0.741065  -0.092144   0.005651
     81       0.140936  -0.049752   0.000846  -0.000014   0.000349   0.000408
     82      -0.271478   0.095400  -0.000315  -0.000114  -0.000780  -0.001173
     83      -0.283723   0.099665  -0.000397  -0.000152  -0.000959  -0.000830
     84      -0.591086   0.015195   0.010072  -0.000007   0.000451  -0.000775
     85       0.170284  -0.004495  -0.002640  -0.000040  -0.000157   0.000070
     86       0.000426  -0.000125  -0.000204  -0.000028  -0.000054   0.000081
     87       0.000017  -0.000024  -0.000012  -0.000005   0.000001   0.000003
     88       0.000008   0.000037   0.000024   0.000000  -0.000000  -0.000005
     89      -0.000030   0.000060  -0.000002   0.000008   0.000014   0.000004
     90       0.000032  -0.000069   0.000048  -0.000026  -0.000036  -0.000019
     91      -0.000240   0.000257  -0.000164   0.000104   0.000046   0.000037
     92       0.000191  -0.000191   0.000116  -0.000073  -0.000078  -0.000060
     93      -0.000184   0.000477   0.000064   0.000139   0.000023  -0.000016
     94       0.000176  -0.000714  -0.000084  -0.000303  -0.000078   0.000021
     95       0.000101  -0.000482  -0.000076  -0.000249  -0.000075  -0.000004
     96      -0.000003   0.000004  -0.000009  -0.000016   0.000001   0.000002
     97       0.000001   0.000027   0.000027   0.000013   0.000002  -0.000005
     98      -0.000005   0.000005   0.000008   0.000024   0.000006   0.000005
     99      -0.000017   0.000025   0.000095   0.000197   0.000028  -0.000008
    100      -0.000041   0.000025  -0.000104  -0.000133  -0.000025   0.000001
    101      -0.000031  -0.000010  -0.000063  -0.000160  -0.000021   0.000000
    102       0.000119  -0.000159  -0.000084   0.000023  -0.000053  -0.000008
    103       0.000090  -0.000120  -0.000071  -0.000010  -0.000038  -0.000002
    104       0.000183  -0.000216  -0.000093  -0.000050  -0.000047  -0.000007
    105      -0.000040   0.000058  -0.000003   0.000031   0.000004  -0.000002
    106      -0.000015  -0.000194  -0.000027   0.000048   0.000022   0.000034
    107      -0.000026   0.000164   0.000033  -0.000064  -0.000023  -0.000040


-----------
IR SPECTRUM  
-----------

 Mode    freq (cm**-1)   T**2         TX         TY         TZ
-------------------------------------------------------------------
   6:        38.02    0.000000  (  0.000000   0.000000   0.000000)
   7:        47.42    0.000000  (  0.000000   0.000000   0.000000)
   8:        62.03    0.000000  (  0.000000   0.000000   0.000000)
   9:        72.88    0.000000  (  0.000000   0.000000   0.000000)
  10:        78.32    0.000000  (  0.000000   0.000000   0.000000)
  11:        90.89    0.000000  (  0.000000   0.000000   0.000000)
  12:       101.98    0.000000  (  0.000000   0.000000   0.000000)
  13:       114.99    0.000000  (  0.000000   0.000000   0.000000)
  14:       144.77    0.000000  (  0.000000   0.000000   0.000000)
  15:       154.66    0.000000  (  0.000000   0.000000   0.000000)
  16:       163.54    0.000000  (  0.000000   0.000000   0.000000)
  17:       177.39    0.000000  (  0.000000   0.000000   0.000000)
  18:       189.26    0.000000  (  0.000000   0.000000   0.000000)
  19:       198.02    0.000000  (  0.000000   0.000000   0.000000)
  20:       251.81    0.000000  (  0.000000   0.000000   0.000000)
  21:       261.68    0.000000  (  0.000000   0.000000   0.000000)
  22:       290.61    0.000000  (  0.000000   0.000000   0.000000)
  23:       304.03    0.000000  (  0.000000   0.000000   0.000000)
  24:       348.20    0.000000  (  0.000000   0.000000   0.000000)
  25:       399.25    0.000000  (  0.000000   0.000000   0.000000)
  26:       403.87    0.000000  (  0.000000   0.000000   0.000000)
  27:       409.09    0.000000  (  0.000000   0.000000   0.000000)
  28:       430.28    0.000000  (  0.000000   0.000000   0.000000)
  29:       478.26    0.000000  (  0.000000   0.000000   0.000000)
  30:       481.50    0.000000  (  0.000000   0.000000   0.000000)
  31:       495.97    0.000000  (  0.000000   0.000000   0.000000)
  32:       514.66    0.000000  (  0.000000   0.000000   0.000000)
  33:       561.46    0.000000  (  0.000000   0.000000   0.000000)
  34:       589.37    0.000000  (  0.000000   0.000000   0.000000)
  35:       608.79    0.000000  (  0.000000   0.000000   0.000000)
  36:       618.77    0.000000  (  0.000000   0.000000   0.000000)
  37:       625.56    0.000000  (  0.000000   0.000000   0.000000)
  38:       677.14    0.000000  (  0.000000   0.000000   0.000000)
  39:       715.18    0.000000  (  0.000000   0.000000   0.000000)
  40:       781.82    0.000000  (  0.000000   0.000000   0.000000)
  41:       795.22    0.000000  (  0.000000   0.000000   0.000000)
  42:       814.21    0.000000  (  0.000000   0.000000   0.000000)
  43:       836.48    0.000000  (  0.000000   0.000000   0.000000)
  44:       844.63    0.000000  (  0.000000   0.000000   0.000000)
  45:       865.51    0.000000  (  0.000000   0.000000   0.000000)
  46:       896.93    0.000000  (  0.000000   0.000000   0.000000)
  47:       921.75    0.000000  (  0.000000   0.000000   0.000000)
  48:       933.25    0.000000  (  0.000000   0.000000   0.000000)
  49:       943.91    0.000000  (  0.000000   0.000000   0.000000)
  50:       950.83    0.000000  (  0.000000   0.000000   0.000000)
  51:       956.71    0.000000  (  0.000000   0.000000   0.000000)
  52:       963.82    0.000000  (  0.000000   0.000000   0.000000)
  53:       974.46    0.000000  (  0.000000   0.000000   0.000000)
  54:      1007.40    0.000000  (  0.000000   0.000000   0.000000)
  55:      1041.81    0.000000  (  0.000000   0.000000   0.000000)
  56:      1054.54    0.000000  (  0.000000   0.000000   0.000000)
  57:      1075.96    0.000000  (  0.000000   0.000000   0.000000)
  58:      1109.94    0.000000  (  0.000000   0.000000   0.000000)
  59:      1119.07    0.000000  (  0.000000   0.000000   0.000000)
  60:      1145.57    0.000000  (  0.000000   0.000000   0.000000)
  61:      1182.68    0.000000  (  0.000000   0.000000   0.000000)
  62:      1187.63    0.000000  (  0.000000   0.000000   0.000000)
  63:      1208.43    0.000000  (  0.000000   0.000000   0.000000)
  64:      1215.38    0.000000  (  0.000000   0.000000   0.000000)
  65:      1245.09    0.000000  (  0.000000   0.000000   0.000000)
  66:      1260.27    0.000000  (  0.000000   0.000000   0.000000)
  67:      1272.11    0.000000  (  0.000000   0.000000   0.000000)
  68:      1279.61    0.000000  (  0.000000   0.000000   0.000000)
  69:      1282.42    0.000000  (  0.000000   0.000000   0.000000)
  70:      1329.52    0.000000  (  0.000000   0.000000   0.000000)
  71:      1356.55    0.000000  (  0.000000   0.000000   0.000000)
  72:      1369.02    0.000000  (  0.000000   0.000000   0.000000)
  73:      1407.92    0.000000  (  0.000000   0.000000   0.000000)
  74:      1433.72    0.000000  (  0.000000   0.000000   0.000000)
  75:      1438.07    0.000000  (  0.000000   0.000000   0.000000)
  76:      1470.87    0.000000  (  0.000000   0.000000   0.000000)
  77:      1501.15    0.000000  (  0.000000   0.000000   0.000000)
  78:      1506.84    0.000000  (  0.000000   0.000000   0.000000)
  79:      1511.25    0.000000  (  0.000000   0.000000   0.000000)
  80:      1514.70    0.000000  (  0.000000   0.000000   0.000000)
  81:      1522.88    0.000000  (  0.000000   0.000000   0.000000)
  82:      1532.37    0.000000  (  0.000000   0.000000   0.000000)
  83:      1555.53    0.000000  (  0.000000   0.000000   0.000000)
  84:      1561.71    0.000000  (  0.000000   0.000000   0.000000)
  85:      1583.94    0.000000  (  0.000000   0.000000   0.000000)
  86:      1600.92    0.000000  (  0.000000   0.000000   0.000000)
  87:      2671.96    0.000000  (  0.000000   0.000000   0.000000)
  88:      2816.26    0.000000  (  0.000000   0.000000   0.000000)
  89:      2833.84    0.000000  (  0.000000   0.000000   0.000000)
  90:      2873.80    0.000000  (  0.000000   0.000000   0.000000)
  91:      2881.19    0.000000  (  0.000000   0.000000   0.000000)
  92:      2889.87    0.000000  (  0.000000   0.000000   0.000000)
  93:      2898.51    0.000000  (  0.000000   0.000000   0.000000)
  94:      2906.41    0.000000  (  0.000000   0.000000   0.000000)
  95:      2913.68    0.000000  (  0.000000   0.000000   0.000000)
  96:      2918.79    0.000000  (  0.000000   0.000000   0.000000)
  97:      2930.42    0.000000  (  0.000000   0.000000   0.000000)
  98:      2957.65    0.000000  (  0.000000   0.000000   0.000000)
  99:      2984.25    0.000000  (  0.000000   0.000000   0.000000)
 100:      2991.87    0.000000  (  0.000000   0.000000   0.000000)
 101:      2998.28    0.000000  (  0.000000   0.000000   0.000000)
 102:      3006.74    0.000000  (  0.000000   0.000000   0.000000)
 103:      3031.88    0.000000  (  0.000000   0.000000   0.000000)
 104:      3104.09    0.000000  (  0.000000   0.000000   0.000000)
 105:      3427.69    0.000000  (  0.000000   0.000000   0.000000)
 106:      3434.64    0.000000  (  0.000000   0.000000   0.000000)
 107:      3445.84    0.000000  (  0.000000   0.000000   0.000000)

The first frequency considered to be a vibration is 6
The total number of vibrations considered is 102


--------------------------
THERMOCHEMISTRY AT 298.15K
--------------------------

Temperature         ... 298.15 K
Pressure            ... 1.00 atm
Total Mass          ... 215.29 AMU

Throughout the following assumptions are being made:
  (1) The electronic state is orbitally nondegenerate
  (2) There are no thermally accessible electronically excited states
  (3) Hindered rotations indicated by low frequency modes are not
      treated as such but are treated as vibrations and this may
      cause some error
  (4) All equations used are the standard statistical mechanics
      equations for an ideal gas
  (5) All vibrations are strictly harmonic

freq.      38.02  E(vib)   ...       0.54 
freq.      47.42  E(vib)   ...       0.53 
freq.      62.03  E(vib)   ...       0.51 
freq.      72.88  E(vib)   ...       0.49 
freq.      78.32  E(vib)   ...       0.49 
freq.      90.89  E(vib)   ...       0.47 
freq.     101.98  E(vib)   ...       0.46 
freq.     114.99  E(vib)   ...       0.44 
freq.     144.77  E(vib)   ...       0.41 
freq.     154.66  E(vib)   ...       0.40 
freq.     163.54  E(vib)   ...       0.39 
freq.     177.39  E(vib)   ...       0.37 
freq.     189.26  E(vib)   ...       0.36 
freq.     198.02  E(vib)   ...       0.35 
freq.     251.81  E(vib)   ...       0.30 
freq.     261.68  E(vib)   ...       0.30 
freq.     290.61  E(vib)   ...       0.27 
freq.     304.03  E(vib)   ...       0.26 
freq.     348.20  E(vib)   ...       0.23 
freq.     399.25  E(vib)   ...       0.19 
freq.     403.87  E(vib)   ...       0.19 
freq.     409.09  E(vib)   ...       0.19 
freq.     430.28  E(vib)   ...       0.18 
freq.     478.26  E(vib)   ...       0.15 
freq.     481.50  E(vib)   ...       0.15 
freq.     495.97  E(vib)   ...       0.14 
freq.     514.66  E(vib)   ...       0.13 
freq.     561.46  E(vib)   ...       0.11 
freq.     589.37  E(vib)   ...       0.10 
freq.     608.79  E(vib)   ...       0.10 
freq.     618.77  E(vib)   ...       0.09 
freq.     625.56  E(vib)   ...       0.09 
freq.     677.14  E(vib)   ...       0.08 
freq.     715.18  E(vib)   ...       0.07 
freq.     781.82  E(vib)   ...       0.05 
freq.     795.22  E(vib)   ...       0.05 
freq.     814.21  E(vib)   ...       0.05 
freq.     836.48  E(vib)   ...       0.04 
freq.     844.63  E(vib)   ...       0.04 
freq.     865.51  E(vib)   ...       0.04 
freq.     896.93  E(vib)   ...       0.03 
freq.     921.75  E(vib)   ...       0.03 
freq.     933.25  E(vib)   ...       0.03 
freq.     943.91  E(vib)   ...       0.03 
freq.     950.83  E(vib)   ...       0.03 
freq.     956.71  E(vib)   ...       0.03 
freq.     963.82  E(vib)   ...       0.03 
freq.     974.46  E(vib)   ...       0.03 
freq.    1007.40  E(vib)   ...       0.02 
freq.    1041.81  E(vib)   ...       0.02 
freq.    1054.54  E(vib)   ...       0.02 
freq.    1075.96  E(vib)   ...       0.02 
freq.    1109.94  E(vib)   ...       0.02 
freq.    1119.07  E(vib)   ...       0.01 
freq.    1145.57  E(vib)   ...       0.01 
freq.    1182.68  E(vib)   ...       0.01 
freq.    1187.63  E(vib)   ...       0.01 
freq.    1208.43  E(vib)   ...       0.01 
freq.    1215.38  E(vib)   ...       0.01 
freq.    1245.09  E(vib)   ...       0.01 
freq.    1260.27  E(vib)   ...       0.01 
freq.    1272.11  E(vib)   ...       0.01 
freq.    1279.61  E(vib)   ...       0.01 
freq.    1282.42  E(vib)   ...       0.01 
freq.    1329.52  E(vib)   ...       0.01 
freq.    1356.55  E(vib)   ...       0.01 
freq.    1369.02  E(vib)   ...       0.01 
freq.    1407.92  E(vib)   ...       0.00 
freq.    1433.72  E(vib)   ...       0.00 
freq.    1438.07  E(vib)   ...       0.00 
freq.    1470.87  E(vib)   ...       0.00 
freq.    1501.15  E(vib)   ...       0.00 
freq.    1506.84  E(vib)   ...       0.00 
freq.    1511.25  E(vib)   ...       0.00 
freq.    1514.70  E(vib)   ...       0.00 
freq.    1522.88  E(vib)   ...       0.00 
freq.    1532.37  E(vib)   ...       0.00 
freq.    1555.53  E(vib)   ...       0.00 
freq.    1561.71  E(vib)   ...       0.00 
freq.    1583.94  E(vib)   ...       0.00 
freq.    1600.92  E(vib)   ...       0.00 
freq.    2671.96  E(vib)   ...       0.00 
freq.    2816.26  E(vib)   ...       0.00 
freq.    2833.84  E(vib)   ...       0.00 
freq.    2873.80  E(vib)   ...       0.00 
freq.    2881.19  E(vib)   ...       0.00 
freq.    2889.87  E(vib)   ...       0.00 
freq.    2898.51  E(vib)   ...       0.00 
freq.    2906.41  E(vib)   ...       0.00 
freq.    2913.68  E(vib)   ...       0.00 
freq.    2918.79  E(vib)   ...       0.00 
freq.    2930.42  E(vib)   ...       0.00 
freq.    2957.65  E(vib)   ...       0.00 
freq.    2984.25  E(vib)   ...       0.00 
freq.    2991.87  E(vib)   ...       0.00 
freq.    2998.28  E(vib)   ...       0.00 
freq.    3006.74  E(vib)   ...       0.00 
freq.    3031.88  E(vib)   ...       0.00 
freq.    3104.09  E(vib)   ...       0.00 
freq.    3427.69  E(vib)   ...       0.00 
freq.    3434.64  E(vib)   ...       0.00 
freq.    3445.84  E(vib)   ...       0.00 

------------
INNER ENERGY
------------

The inner energy is: U= E(el) + E(ZPE) + E(vib) + E(rot) + E(trans)
    E(el)   - is the total energy from the electronic structure calculation
              = E(kin-el) + E(nuc-el) + E(el-el) + E(nuc-nuc)
    E(ZPE)  - the the zero temperature vibrational energy from the frequency calculation
    E(vib)  - the the finite temperature correction to E(ZPE) due to population
              of excited vibrational states
    E(rot)  - is the rotational thermal energy
    E(trans)- is the translational thermal energy

Summary of contributions to the inner energy U:
Electronic energy                ...    -49.36339785 Eh
Zero point energy                ...      0.29703142 Eh     186.39 kcal/mol
Thermal vibrational correction   ...      0.01644400 Eh      10.32 kcal/mol
Thermal rotational correction    ...      0.00141627 Eh       0.89 kcal/mol
Thermal translational correction ...      0.00141627 Eh       0.89 kcal/mol
-----------------------------------------------------------------------
Total thermal energy                    -49.04708988 Eh


Summary of corrections to the electronic energy:
(perhaps to be used in another calculation)
Total thermal correction                  0.01927654 Eh      12.10 kcal/mol
Non-thermal (ZPE) correction              0.29703142 Eh     186.39 kcal/mol
-----------------------------------------------------------------------
Total correction                          0.31630797 Eh     198.49 kcal/mol


--------
ENTHALPY
--------

The enthalpy is H = U + kB*T
                kB is Boltzmann's constant
Total free energy                 ...    -49.04708988 Eh 
Thermal Enthalpy correction       ...      0.00094421 Eh       0.59 kcal/mol
-----------------------------------------------------------------------
Total Enthalpy                    ...    -49.04614567 Eh


Note: Only C1 symmetry has been detected, increase convergence thresholds 
      if your molecule has a higher symmetry. Symmetry factor of 1.0 is   
      used for the rotational entropy correction. 
 

Note: Rotational entropy computed according to Herzberg 
Infrared and Raman Spectra, Chapter V,1, Van Nostrand Reinhold, 1945 
Point Group:  C1, Symmetry Number:   1  
Rotational constants in cm-1:     0.025332     0.007867     0.006706 

Vibrational entropy computed according to the QRRHO of S. Grimme
Chem.Eur.J. 2012 18 9955


-------
ENTROPY
-------

The entropy contributions are T*S = T*(S(el)+S(vib)+S(rot)+S(trans))
     S(el)   - electronic entropy
     S(vib)  - vibrational entropy
     S(rot)  - rotational entropy
     S(trans)- translational entropy
The entropies will be listed as mutliplied by the temperature to get
units of energy

Electronic entropy                ...      0.00000000 Eh      0.00 kcal/mol
Vibrational entropy               ...      0.02917959 Eh     18.31 kcal/mol
Rotational entropy                ...      0.01589608 Eh      9.97 kcal/mol
Translational entropy             ...      0.01995728 Eh     12.52 kcal/mol
-----------------------------------------------------------------------
Final entropy term                ...      0.06503295 Eh     40.81 kcal/mol

In case the symmetry of your molecule has not been determined correctly
or in case you have a reason to use a different symmetry number we print 
out the resulting rotational entropy values for sn=1,12 :
 --------------------------------------------------------
|  sn= 1 | S(rot)=       0.01589608 Eh      9.97 kcal/mol|
|  sn= 2 | S(rot)=       0.01524162 Eh      9.56 kcal/mol|
|  sn= 3 | S(rot)=       0.01485879 Eh      9.32 kcal/mol|
|  sn= 4 | S(rot)=       0.01458717 Eh      9.15 kcal/mol|
|  sn= 5 | S(rot)=       0.01437648 Eh      9.02 kcal/mol|
|  sn= 6 | S(rot)=       0.01420434 Eh      8.91 kcal/mol|
|  sn= 7 | S(rot)=       0.01405879 Eh      8.82 kcal/mol|
|  sn= 8 | S(rot)=       0.01393271 Eh      8.74 kcal/mol|
|  sn= 9 | S(rot)=       0.01382150 Eh      8.67 kcal/mol|
|  sn=10 | S(rot)=       0.01372202 Eh      8.61 kcal/mol|
|  sn=11 | S(rot)=       0.01363203 Eh      8.55 kcal/mol|
|  sn=12 | S(rot)=       0.01354988 Eh      8.50 kcal/mol|
 --------------------------------------------------------


-------------------
GIBBS FREE ENERGY
-------------------

The Gibbs free energy is G = H - T*S

Total enthalpy                    ...    -49.04614567 Eh 
Total entropy correction          ...     -0.06503295 Eh    -40.81 kcal/mol
-----------------------------------------------------------------------
Final Gibbs free energy         ...    -49.11117862 Eh

For completeness - the Gibbs free energy minus the electronic energy
G-E(el)                           ...      0.25221922 Eh    158.27 kcal/mol


Total Time for Numerical Frequencies  :       140.065 sec
Time for Reference State(s)           :         0.311 sec
Time for Displacements                :       131.758 sec

Timings for individual modules:

Sum of individual times         ...        0.576 sec (=   0.010 min)
XTB module                      ...        0.576 sec (=   0.010 min) 100.0 %
                             ****ORCA TERMINATED NORMALLY****
TOTAL RUN TIME: 0 days 0 hours 2 minutes 21 seconds 374 msec
(SLURM) EXECUTION TIME: 142.121494587 seconds.
