
                                 *****************
                                 * O   R   C   A *
                                 *****************

           --- An Ab Initio, DFT and Semiempirical electronic structure package ---

                  #######################################################
                  #                        -***-                        #
                  #          Department of theory and spectroscopy      #
                  #               Directorship: Frank Neese             #
                  #        Max Planck Institute fuer Kohlenforschung    #
                  #                Kaiser Wilhelm Platz 1               #
                  #                 D-45470 Muelheim/Ruhr               #
                  #                      Germany                        #
                  #                                                     #
                  #                  All rights reserved                #
                  #                        -***-                        #
                  #######################################################


                         Program Version 4.2.1 -  RELEASE  -


 With contributions from (in alphabetic order):
   Daniel Aravena         : Magnetic Suceptibility
   Michael Atanasov       : Ab Initio Ligand Field Theory (pilot matlab implementation)
   Alexander A. Auer      : GIAO ZORA, VPT2
   Ute Becker             : Parallelization
   Giovanni Bistoni       : ED, misc. LED, open-shell LED, HFLD
   Martin Brehm           : Molecular dynamics
   Dmytro Bykov           : SCF Hessian
   Vijay G. Chilkuri      : MRCI spin determinant printing, contributions to CSF-ICE
   Dipayan Datta          : RHF DLPNO-CCSD density
   Achintya Kumar Dutta   : EOM-CC, STEOM-CC
   Dmitry Ganyushin       : Spin-Orbit,Spin-Spin,Magnetic field MRCI
   Miquel Garcia          : C-PCM Hessian, Gaussian charge scheme
   Yang Guo               : DLPNO-NEVPT2, CIM, IAO-localization
   Andreas Hansen         : Spin unrestricted coupled pair/coupled cluster methods
   Benjamin Helmich-Paris : CASSCF linear response (MC-RPA)
   Lee Huntington         : MR-EOM, pCC
   Robert Izsak           : Overlap fitted RIJCOSX, COSX-SCS-MP3, EOM
   Christian Kollmar      : KDIIS, OOCD, Brueckner-CCSD(T), CCSD density
   Simone Kossmann        : Meta GGA functionals, TD-DFT gradient, OOMP2, MP2 Hessian
   Martin Krupicka        : AUTO-CI
   Lucas Lang             : DCDCAS
   Dagmar Lenk            : GEPOL surface, SMD
   Dimitrios Liakos       : Extrapolation schemes; Compound Job, initial MDCI parallelization
   Dimitrios Manganas     : Further ROCIS development; embedding schemes
   Dimitrios Pantazis     : SARC Basis sets
   Taras Petrenko         : DFT Hessian,TD-DFT gradient, ASA, ECA, R-Raman, ABS, FL, XAS/XES, NRVS
   Peter Pinski           : DLPNO-MP2, DLPNO-MP2 Gradient
   Christoph Reimann      : Effective Core Potentials
   Marius Retegan         : Local ZFS, SOC
   Christoph Riplinger    : Optimizer, TS searches, QM/MM, DLPNO-CCSD(T), (RO)-DLPNO pert. Triples
   Tobias Risthaus        : Range-separated hybrids, TD-DFT gradient, RPA, STAB
   Michael Roemelt        : Original ROCIS implementation
   Masaaki Saitow         : Open-shell DLPNO-CCSD energy and density
   Barbara Sandhoefer     : DKH picture change effects
   Avijit Sen             : IP-ROCIS
   Kantharuban Sivalingam : CASSCF convergence, NEVPT2, FIC-MRCI
   Bernardo de Souza      : ESD, SOC TD-DFT
   Georgi Stoychev        : AutoAux, RI-MP2 NMR
   Willem Van den Heuvel  : Paramagnetic NMR
   Boris Wezisla          : Elementary symmetry handling
   Frank Wennmohs         : Technical directorship


 We gratefully acknowledge several colleagues who have allowed us to
 interface, adapt or use parts of their codes:
   Stefan Grimme, W. Hujo, H. Kruse,             : VdW corrections, initial TS optimization,
                  C. Bannwarth                     DFT functionals, gCP, sTDA/sTD-DF
   Ed Valeev, F. Pavosevic, A. Kumar             : LibInt (2-el integral package), F12 methods
   Garnet Chan, S. Sharma, J. Yang, R. Olivares  : DMRG
   Ulf Ekstrom                                   : XCFun DFT Library
   Mihaly Kallay                                 : mrcc  (arbitrary order and MRCC methods)
   Andreas Klamt, Michael Diedenhofen            : otool_cosmo (COSMO solvation model)
   Jiri Pittner, Ondrej Demel                    : Mk-CCSD
   Frank Weinhold                                : gennbo (NPA and NBO analysis)
   Christopher J. Cramer and Donald G. Truhlar   : smd solvation model
   Lars Goerigk                                  : TD-DFT with DH, B97 family of functionals
   V. Asgeirsson, H. Jonsson                     : NEB implementation
   FAccTs GmbH                                   : IRC, NEB, NEB-TS, Multilevel, MM, QM/MM, CI optimization
   S Lehtola, MJT Oliveira, MAL Marques          : LibXC Library


 Your calculation uses the libint2 library for the computation of 2-el integrals
 For citations please refer to: http://libint.valeyev.net

 Your ORCA version has been built with support for libXC version: 4.2.3
 For citations please refer to: https://tddft.org/programs/libxc/

 This ORCA versions uses:
   CBLAS   interface :  Fast vector & matrix operations
   LAPACKE interface :  Fast linear algebra routines
   SCALAPACK package :  Parallel linear algebra routines




***************************************
The coordinates will be read from file: init.xyz
***************************************


Your calculation utilizes the SMD solvation module
Please cite in your paper:
A.V. Marenich, C.J. Cramer, D.G. Truhlar J. Phys. Chem. B, 113, (2009), 6378 

Your calculation utilizes the semiempirical GFN2-xTB method
Please cite in your paper:
C. Bannwarth, Ehlert S., S. Grimme,  J. Chem. Theory Comput., 15, (2019), 1652.
   

----- Orbital basis set information -----
Your calculation utilizes the basis: def2-SVP
   F. Weigend and R. Ahlrichs, Phys. Chem. Chem. Phys. 7, 3297 (2005).

================================================================================
                                        WARNINGS
                       Please study these warnings very carefully!
================================================================================

WARNING: Gradients needed for Numerical Frequencies
  ===> : Setting RunTyp to EnGrad

WARNING: The environment variable RSH_COMMAND is not set!
  ===> : All Displacements for the Numerical Hessian calculation
         will be started on localhost

WARNING: Found dipole moment calculation with XTB calculation
  ===> : Switching off dipole moment calculation


INFO   : the flag for use of LIBINT has been found!

================================================================================
                                       INPUT FILE
================================================================================
NAME = freq.inp
|  1> ! XTB2 NumFreq
|  2> %maxcore 1150
|  3> 
|  4> * xyzfile 0 1 init.xyz
|  5> 
|  6> %cpcm
|  7>  smd true
|  8>  smdsolvent "ch2cl2"
|  9> end
| 10> 
| 11> %pal
| 12>  nprocs 6
| 13> end
| 14> 
| 15>                          ****END OF INPUT****
================================================================================

                     *******************************
                     * Energy+Gradient Calculation *
                     *******************************

      -----------------------------------------------------------      
     |                   =====================                   |     
     |                           x T B                           |     
     |                   =====================                   |     
     |                         S. Grimme                         |     
     |          Mulliken Center for Theoretical Chemistry        |     
     |                    University of Bonn                     |     
      -----------------------------------------------------------      

   * xtb version 6.3.2 (30e43eb) compiled by 'schneider@apollo14' on 2020-08-08

   xtb is free software: you can redistribute it and/or modify it under
   the terms of the GNU Lesser General Public License as published by
   the Free Software Foundation, either version 3 of the License, or
   (at your option) any later version.
   
   xtb is distributed in the hope that it will be useful,
   but WITHOUT ANY WARRANTY; without even the implied warranty of
   MERCHANTABILITY or FITNESS FOR A PARTICULAR PURPOSE.  See the
   GNU Lesser General Public License for more details.
   
   Cite this work as:
   * S. Grimme, C. Bannwarth, P. Shushkov, J. Chem. Theory Comput., 2017,
     13, 1989-2009. DOI: 10.1021/acs.jctc.7b00118
   * C. Bannwarth, S. Ehlert and S. Grimme., J. Chem. Theory Comput., 2019,
     15, 1652-1671. DOI: 10.1021/acs.jctc.8b01176
   * P. Pracht, E. Caldeweyher, S. Ehlert, S. Grimme, ChemRxiv, 2019, preprint.
     DOI: 10.26434/chemrxiv.8326202.v1
   
   for GFN-FF:
   * S. Spicher and S. Grimme, Angew. Chem. Int. Ed., 2020,
     DOI: 10.1002/anie.202004239
   
   for DFT-D4:
   * E. Caldeweyher, C. Bannwarth and S. Grimme, J. Chem. Phys., 2017,
     147, 034112. DOI: 10.1063/1.4993215
   * E. Caldeweyher, S. Ehlert, A. Hansen, H. Neugebauer, S. Spicher,
     C. Bannwarth and S. Grimme, J. Chem. Phys., 2019, 150, 154122.
     DOI: 10.1063/1.5090222
   
   for sTDA-xTB:
   * S. Grimme and C. Bannwarth, J. Chem. Phys., 2016, 145, 054103.
     DOI: 10.1063/1.4959605
   
   in the mass-spec context:
   * V. Asgeirsson, C. Bauer and S. Grimme, Chem. Sci., 2017, 8, 4879.
     DOI: 10.1039/c7sc00601b
   * J. Koopman and S. Grimme, ACS Omega 2019, 4, 12, 15120-15133.
     DOI: 10.1021/acsomega.9b02011
   
   for metadynamics refer to:
   * S. Grimme, J. Chem. Theory Comput., 2019, 155, 2847-2862
     DOI: 10.1021/acs.jctc.9b00143
   
   with help from (in alphabetical order)
   C. Bannwarth, F. Bohle, G. Brandenburg, E. Caldeweyher, M. Checinski,
   S. Dohm, S. Ehlert, S. Ehrlich, F. März, H. Neugebauer, J. Pisarek,
   P. Pracht, P. Shushkov, and S. Spicher.
   
 * started run on 2020/12/17 at 11:38:46.228     

           -------------------------------------------------
          |                Calculation Setup                |
           -------------------------------------------------

          program call               : /opt/orca/otool_xtb freq_XTB.xyz --grad -c 0 -u 0 -P 6 --namespace freq --gbsa CH2Cl2
          calculation namespace      : freq
          coordinate file            : freq_XTB.xyz
          omp threads                :                     6
          number of atoms            :                    30
          number of electrons        :                    72
          charge                     :                     0
          spin                       :                   0.0
          first test random number   :      0.73097156224831

   ID    Z sym.   atoms
    1    6 C      1-6, 11, 16, 19, 24, 27
    2    1 H      7-9, 12-15, 17, 20-23, 25, 26, 28-30
    3    7 N      10
    4    8 O      18

molecular fragmentation (1/2 indicates fragments):
111111111111112112111111111111
# atoms in fragment 1/2:    28     2
 fragment masses (1/2) :      162.25       17.01
CMA distance (Bohr)    :   3.818
constraining FC (au)   :  0.0500
########################################################################
[WARNING] Please study the warnings concerning your input carefully
-1- prog_main_parseArguments: Process number higher than OMP_NUM_THREADS, I hope you know what you are doing.
########################################################################

           -------------------------------------------------
          |                 G F N 2 - x T B                 |
           -------------------------------------------------

        Reference                      10.1021/acs.jctc.8b01176
      * Hamiltonian:
        H0-scaling (s, p, d)           1.850000    2.230000    2.230000
        zeta-weighting                 0.500000
      * Dispersion:
        s8                             2.700000
        a1                             0.520000
        a2                             5.000000
        s9                             5.000000
      * Repulsion:
        kExp                           1.500000    1.000000
        rExp                           1.000000
      * Coulomb:
        alpha                          2.000000
        third order                    shell-resolved
        anisotropic                    true
        a3                             3.000000
        a5                             4.000000
        cn-shift                       1.200000
        cn-exp                         4.000000
        max-rad                        5.000000

      * Solvation model:               GBSA
        Solvent                        CH2Cl2
        Parameter file                 internal GFN2-xTB/GBSA
        Dielectric constant                8.9300E+00
        Reference state                gsolv [1 M gas/solution]
        Free energy shift                  4.4408E-03 Eh       2.7867E+00 kcal/mol
        Temperature                        2.9815E+02 K
        Density                            1.3300E+00 kg/L
        Solvent mass                       8.4930E+01 g/mol
        Interaction kernel             Still
        Born radius scaling (c1)           1.4917E+00
        Born radii integrator          GBOBC
        Born offset                        0.0000E+00 a0       0.0000E+00 AA
        H-bond correction              false
        Ion screening                  false
        Surface tension                    1.0000E-05 Eh       1.5569E+01 dyn/cm
        Grid points                               230 per atom

          ...................................................
          :                      SETUP                      :
          :.................................................:
          :  # basis functions                  69          :
          :  # atomic orbitals                  69          :
          :  # shells                           43          :
          :  # electrons                        72          :
          :  max. iterations                   250          :
          :  Hamiltonian                  GFN2-xTB          :
          :  restarted?                      false          :
          :  GBSA solvation                   true          :
          :  PC potential                    false          :
          :  electronic temp.          300.0000000     K    :
          :  accuracy                    1.0000000          :
          :  -> integral cutoff          0.2500000E+02      :
          :  -> integral neglect         0.1000000E-07      :
          :  -> SCF convergence          0.1000000E-05 Eh   :
          :  -> wf. convergence          0.1000000E-03 e    :
          :  Broyden damping             0.4000000          :
          ...................................................

 iter      E             dE          RMSdq      gap      omega  full diag
   1    -39.5618130 -0.395618E+02  0.424E+00    3.18       0.0  T
   2    -39.6698118 -0.107999E+00  0.255E+00    1.46       1.0  T
   3    -39.2569087  0.412903E+00  0.376E+00    0.18       1.0  T
   4    -39.6636588 -0.406750E+00  0.160E+00    2.12       1.0  T
   5    -39.6747598 -0.111010E-01  0.836E-01    1.63       1.0  T
   6    -39.6805860 -0.582616E-02  0.624E-01    1.31       1.0  T
   7    -39.6866377 -0.605172E-02  0.346E-01    1.02       1.0  T
   8    -39.6896506 -0.301288E-02  0.574E-02    0.80       1.0  T
   9    -39.6896484  0.217484E-05  0.278E-02    0.79       1.0  T
  10    -39.6896589 -0.105391E-04  0.901E-03    0.80       2.0  T
  11    -39.6896601 -0.114068E-05  0.408E-03    0.80       4.5  T
  12    -39.6896597  0.392949E-06  0.451E-03    0.80       4.0  T
  13    -39.6896602 -0.500600E-06  0.148E-03    0.80      12.4  T
  14    -39.6896602 -0.478650E-07  0.238E-04    0.80      76.8  T
  15    -39.6896602  0.141375E-08  0.251E-04    0.80      72.7  T

   *** convergence criteria satisfied after 15 iterations ***

         #    Occupation            Energy/Eh            Energy/eV
      -------------------------------------------------------------
         1        2.0000           -0.6818451             -18.5539
       ...           ...                  ...                  ...
        30        2.0000           -0.4369106             -11.8889
        31        2.0000           -0.4328414             -11.7782
        32        2.0000           -0.4254958             -11.5783
        33        2.0000           -0.4140785             -11.2676
        34        2.0000           -0.4115683             -11.1993
        35        2.0000           -0.3358085              -9.1378
        36        2.0000           -0.3328009              -9.0560 (HOMO)
        37        0.0000           -0.3033913              -8.2557 (LUMO)
        38                         -0.2359044              -6.4193
        39                         -0.2089910              -5.6869
        40                         -0.1023737              -2.7857
        41                         -0.0285358              -0.7765
       ...                                ...                  ...
        69                          0.6202247              16.8772
      -------------------------------------------------------------
                  HL-Gap            0.0294096 Eh            0.8003 eV
             Fermi-level           -0.3180765 Eh           -8.6553 eV

 SCC (total)                   0 d,  0 h,  0 min,  0.105 sec
 SCC setup                      ...        0 min,  0.003 sec (  3.152%)
 Dispersion                     ...        0 min,  0.002 sec (  1.834%)
 classical contributions        ...        0 min,  0.002 sec (  1.454%)
 integral evaluation            ...        0 min,  0.013 sec ( 12.793%)
 iterations                     ...        0 min,  0.059 sec ( 56.469%)
 molecular gradient             ...        0 min,  0.023 sec ( 22.082%)
 printout                       ...        0 min,  0.002 sec (  2.190%)

         :::::::::::::::::::::::::::::::::::::::::::::::::::::
         ::                     SUMMARY                     ::
         :::::::::::::::::::::::::::::::::::::::::::::::::::::
         :: total energy             -39.127369130159 Eh    ::
         :: total w/o Gsasa/hb       -39.111167428990 Eh    ::
         :: gradient norm              0.041010743518 Eh/a0 ::
         :: HOMO-LUMO gap              0.800277025444 eV    ::
         ::.................................................::
         :: SCC energy               -39.689660242046 Eh    ::
         :: -> isotropic ES            0.130575382018 Eh    ::
         :: -> anisotropic ES         -0.011941626736 Eh    ::
         :: -> anisotropic XC          0.024807101797 Eh    ::
         :: -> dispersion             -0.023249941548 Eh    ::
         :: -> Gsolv                  -0.041593940492 Eh    ::
         ::    -> Gborn               -0.025392239322 Eh    ::
         ::    -> Gsasa               -0.020642530343 Eh    ::
         ::    -> Ghb                  0.000000000000 Eh    ::
         ::    -> Gshift               0.004440829173 Eh    ::
         :: repulsion energy           0.562353930983 Eh    ::
         :: add. restraining           0.000000000000 Eh    ::
         :: total charge               0.000000000002 e     ::
         :::::::::::::::::::::::::::::::::::::::::::::::::::::

           -------------------------------------------------
          |                Property Printout                |
           -------------------------------------------------

    * Orbital Energies and Occupations

         #    Occupation            Energy/Eh            Energy/eV
      -------------------------------------------------------------
         1        2.0000           -0.6818451             -18.5539
       ...           ...                  ...                  ...
        24        2.0000           -0.4739057             -12.8956
        25        2.0000           -0.4723693             -12.8538
        26        2.0000           -0.4511400             -12.2761
        27        2.0000           -0.4497339             -12.2379
        28        2.0000           -0.4408997             -11.9975
        29        2.0000           -0.4386680             -11.9368
        30        2.0000           -0.4369106             -11.8889
        31        2.0000           -0.4328414             -11.7782
        32        2.0000           -0.4254958             -11.5783
        33        2.0000           -0.4140785             -11.2676
        34        2.0000           -0.4115683             -11.1993
        35        2.0000           -0.3358085              -9.1378
        36        2.0000           -0.3328009              -9.0560 (HOMO)
        37        0.0000           -0.3033913              -8.2557 (LUMO)
        38                         -0.2359044              -6.4193
        39                         -0.2089910              -5.6869
        40                         -0.1023737              -2.7857
        41                         -0.0285358              -0.7765
        42                          0.0498183               1.3556
        43                          0.0767729               2.0891
        44                          0.0889780               2.4212
        45                          0.1049893               2.8569
        46                          0.1104520               3.0056
        47                          0.1152021               3.1348
       ...                                ...                  ...
        69                          0.6202247              16.8772
      -------------------------------------------------------------
                  HL-Gap            0.0294096 Eh            0.8003 eV
             Fermi-level           -0.3180765 Eh           -8.6553 eV

     #   Z          covCN         q      C6AA      α(0)
     1   6 C        2.906    -0.025    28.630     8.774
     2   6 C        2.916    -0.027    28.667     8.780
     3   6 C        2.963     0.025    27.443     8.593
     4   6 C        2.910    -0.018    28.448     8.746
     5   6 C        2.907    -0.026    28.642     8.775
     6   6 C        2.909    -0.022    28.559     8.763
     7   1 H        0.925     0.050     2.320     2.382
     8   1 H        0.925     0.046     2.373     2.409
     9   1 H        0.925     0.050     2.322     2.383
    10   7 N        2.680    -0.038    21.982     6.963
    11   6 C        3.737    -0.014    20.916     6.526
    12   1 H        0.924     0.075     2.032     2.229
    13   1 H        0.923     0.081     1.969     2.194
    14   1 H        0.859     0.231     0.959     1.534
    15   1 H        0.803     0.137     1.509     1.929
    16   6 C        2.833     0.079    26.224     8.392
    17   1 H        0.924     0.086     1.923     2.168
    18   8 O        0.803    -0.862    33.580     7.768
    19   6 C        3.798    -0.060    21.652     6.626
    20   1 H        0.924     0.054     2.268     2.355
    21   1 H        0.923     0.044     2.392     2.419
    22   1 H        0.925     0.050     2.317     2.380
    23   1 H        0.925     0.048     2.347     2.396
    24   6 C        3.796    -0.055    21.561     6.612
    25   1 H        0.923     0.042     2.421     2.433
    26   1 H        0.923     0.039     2.456     2.451
    27   6 C        3.746    -0.101    22.505     6.767
    28   1 H        0.923     0.040     2.447     2.446
    29   1 H        0.923     0.035     2.512     2.479
    30   1 H        0.923     0.033     2.539     2.492

 Mol. C6AA /au·bohr⁶  :       8280.827655
 Mol. C8AA /au·bohr⁸  :     188093.739070
 Mol. α(0) /au        :        141.163509


Wiberg/Mayer (AO) data.
largest (>0.10) Wiberg bond orders for each atom

 ---------------------------------------------------------------------------
     #   Z sym  total        # sym  WBO       # sym  WBO       # sym  WBO
 ---------------------------------------------------------------------------
     1   6 C    3.990 --     2 C    1.462     6 C    1.429    22 H    0.969
                             4 C    0.100
     2   6 C    3.985 --     1 C    1.462     3 C    1.339     7 H    0.968
     3   6 C    3.985 --     2 C    1.339     4 C    1.327    16 C    1.155
     4   6 C    3.990 --     5 C    1.484     3 C    1.327     8 H    0.965
                             1 C    0.100
     5   6 C    3.990 --     4 C    1.484     6 C    1.407    23 H    0.970
     6   6 C    3.987 --     1 C    1.429     5 C    1.407     9 H    0.970
     7   1 H    0.997 --     2 C    0.968
     8   1 H    0.998 --     4 C    0.965
     9   1 H    0.997 --     6 C    0.970
    10   7 N    3.624 --    16 C    1.530    11 C    0.982    14 H    0.884
                            18 O    0.108
    11   6 C    3.950 --    19 C    0.991    10 N    0.982    12 H    0.968
                            13 H    0.958
    12   1 H    0.994 --    11 C    0.968
    13   1 H    0.991 --    11 C    0.958
    14   1 H    0.946 --    10 N    0.884
    15   1 H    0.981 --    18 O    0.977
    16   6 C    3.945 --    10 N    1.530     3 C    1.155    17 H    0.950
                            18 O    0.198
    17   1 H    0.992 --    16 C    0.950
    18   8 O    1.462 --    15 H    0.977    16 C    0.198    10 N    0.108
    19   6 C    3.986 --    24 C    1.003    11 C    0.991    21 H    0.975
                            20 H    0.974
    20   1 H    0.997 --    19 C    0.974
    21   1 H    0.998 --    19 C    0.975
    22   1 H    0.997 --     1 C    0.969
    23   1 H    0.997 --     5 C    0.970
    24   6 C    3.994 --    27 C    1.018    19 C    1.003    26 H    0.978
                            25 H    0.977
    25   1 H    0.998 --    24 C    0.977
    26   1 H    0.998 --    24 C    0.978
    27   6 C    3.994 --    24 C    1.018    30 H    0.988    29 H    0.988
                            28 H    0.986
    28   1 H    0.998 --    27 C    0.986
    29   1 H    0.999 --    27 C    0.988
    30   1 H    0.999 --    27 C    0.988
 ---------------------------------------------------------------------------

Topologies differ in total number of bonds
Writing topology from bond orders to xtbtopo.mol

molecular dipole:
                 x           y           z       tot (Debye)
 q only:       -0.176       1.633      -2.314
   full:       -0.024       1.362      -1.980       6.109
molecular quadrupole (traceless):
                xx          xy          yy          xz          yz          zz
 q only:        9.429      -3.249      -4.198       6.400      -3.267      -5.231
  q+dip:        7.696      -3.858      -0.647       7.338       0.780      -7.049
   full:        6.773      -3.512      -1.706       6.721      -1.716      -5.067


           -------------------------------------------------
          | TOTAL ENERGY              -39.127369130159 Eh   |
          | GRADIENT NORM               0.041010743518 Eh/α |
          | HOMO-LUMO GAP               0.800277025444 eV   |
           -------------------------------------------------

------------------------------------------------------------------------
 * finished run on 2020/12/17 at 11:38:46.386     
------------------------------------------------------------------------
 total:
 * wall-time:     0 d,  0 h,  0 min,  0.158 sec
 *  cpu-time:     0 d,  0 h,  0 min,  1.600 sec
 * ratio c/w:    10.124 speedup
 SCF:
 * wall-time:     0 d,  0 h,  0 min,  0.109 sec
 *  cpu-time:     0 d,  0 h,  0 min,  1.119 sec
 * ratio c/w:    10.309 speedup


-------------------------   --------------------
FINAL SINGLE POINT ENERGY       -39.127369130160
-------------------------   --------------------


----------------------------------------------------------------------------
                           ORCA NUMERICAL FREQUENCIES
                              (6-process run)
----------------------------------------------------------------------------

Number of atoms                ... 30
Central differences            ... used
Number of displacements        ... 180
Numerical increment            ... 5.000e-03 bohr
IR-spectrum generation         ... on
Raman-spectrum generation      ... off
Surface Crossing Hessian       ... off
List of participating nodes    ...  freq.hostnames

The output will be reduced. Please look at the following files:
SCF program output             ... >freq.lastscf
Integral program output        ... >freq.lastint
Gradient program output        ... >freq.lastgrad
Dipole moment program output   ... >freq.lastmom
AutoCI program output          ... >freq.lastautoci


         <<< Energy and Gradient at the input geometry >>>

        <<< Energy and Gradient at displaced geometries >>>
             <<<Displacing   2/coordinate 3 (+)>>>
             <<<Displacing   1/coordinate 3 (+)>>>
             <<<Displacing   1/coordinate 2 (+)>>>
             <<<Displacing   1/coordinate 3 (-)>>>
             <<<Displacing   2/coordinate 3 (-)>>>
             <<<Displacing   1/coordinate 1 (+)>>>
             <<<Displacing   1/coordinate 2 (-)>>>
             <<<Displacing   2/coordinate 2 (+)>>>
             <<<Displacing   1/coordinate 1 (-)>>>
             <<<Displacing   2/coordinate 1 (+)>>>
             <<<Displacing   2/coordinate 2 (-)>>>
             <<<Displacing   2/coordinate 1 (-)>>>
             <<<Displacing   3/coordinate 2 (+)>>>
             <<<Displacing   3/coordinate 1 (+)>>>
             <<<Displacing   3/coordinate 2 (-)>>>
             <<<Displacing   4/coordinate 2 (+)>>>
             <<<Displacing   3/coordinate 1 (-)>>>
             <<<Displacing   3/coordinate 3 (+)>>>
             <<<Displacing   4/coordinate 2 (-)>>>
             <<<Displacing   4/coordinate 3 (+)>>>
             <<<Displacing   3/coordinate 3 (-)>>>
             <<<Displacing   4/coordinate 3 (-)>>>
             <<<Displacing   4/coordinate 1 (+)>>>
             <<<Displacing   4/coordinate 1 (-)>>>
             <<<Displacing   5/coordinate 2 (+)>>>
             <<<Displacing   5/coordinate 1 (+)>>>
             <<<Displacing   5/coordinate 2 (-)>>>
             <<<Displacing   5/coordinate 1 (-)>>>
             <<<Displacing   5/coordinate 3 (+)>>>
             <<<Displacing   6/coordinate 1 (+)>>>
             <<<Displacing   6/coordinate 2 (+)>>>
             <<<Displacing   5/coordinate 3 (-)>>>
             <<<Displacing   6/coordinate 1 (-)>>>
             <<<Displacing   6/coordinate 2 (-)>>>
             <<<Displacing   6/coordinate 3 (+)>>>
             <<<Displacing   6/coordinate 3 (-)>>>
             <<<Displacing   7/coordinate 1 (+)>>>
             <<<Displacing   7/coordinate 1 (-)>>>
             <<<Displacing   7/coordinate 2 (+)>>>
             <<<Displacing   7/coordinate 2 (-)>>>
             <<<Displacing   8/coordinate 1 (+)>>>
             <<<Displacing   8/coordinate 1 (-)>>>
             <<<Displacing   7/coordinate 3 (+)>>>
             <<<Displacing   7/coordinate 3 (-)>>>
             <<<Displacing   8/coordinate 2 (+)>>>
             <<<Displacing   8/coordinate 3 (+)>>>
             <<<Displacing   8/coordinate 2 (-)>>>
             <<<Displacing   8/coordinate 3 (-)>>>
             <<<Displacing   9/coordinate 1 (+)>>>
             <<<Displacing   9/coordinate 1 (-)>>>
             <<<Displacing   9/coordinate 2 (+)>>>
             <<<Displacing   9/coordinate 3 (+)>>>
             <<<Displacing   9/coordinate 2 (-)>>>
             <<<Displacing   9/coordinate 3 (-)>>>
             <<<Displacing  10/coordinate 1 (+)>>>
             <<<Displacing  10/coordinate 1 (-)>>>
             <<<Displacing  10/coordinate 3 (+)>>>
             <<<Displacing  10/coordinate 3 (-)>>>
             <<<Displacing  10/coordinate 2 (+)>>>
             <<<Displacing  10/coordinate 2 (-)>>>
             <<<Displacing  11/coordinate 1 (+)>>>
             <<<Displacing  11/coordinate 1 (-)>>>
             <<<Displacing  11/coordinate 2 (+)>>>
             <<<Displacing  12/coordinate 1 (+)>>>
             <<<Displacing  11/coordinate 2 (-)>>>
             <<<Displacing  11/coordinate 3 (+)>>>
             <<<Displacing  12/coordinate 1 (-)>>>
             <<<Displacing  11/coordinate 3 (-)>>>
             <<<Displacing  12/coordinate 2 (+)>>>
             <<<Displacing  12/coordinate 2 (-)>>>
             <<<Displacing  12/coordinate 3 (+)>>>
             <<<Displacing  12/coordinate 3 (-)>>>
             <<<Displacing  13/coordinate 1 (+)>>>
             <<<Displacing  13/coordinate 1 (-)>>>
             <<<Displacing  14/coordinate 1 (+)>>>
             <<<Displacing  13/coordinate 2 (+)>>>
             <<<Displacing  13/coordinate 3 (+)>>>
             <<<Displacing  14/coordinate 1 (-)>>>
             <<<Displacing  13/coordinate 2 (-)>>>
             <<<Displacing  13/coordinate 3 (-)>>>
             <<<Displacing  14/coordinate 2 (+)>>>
             <<<Displacing  14/coordinate 2 (-)>>>
             <<<Displacing  14/coordinate 3 (+)>>>
             <<<Displacing  14/coordinate 3 (-)>>>
             <<<Displacing  15/coordinate 3 (+)>>>
             <<<Displacing  15/coordinate 3 (-)>>>
             <<<Displacing  15/coordinate 1 (+)>>>
             <<<Displacing  15/coordinate 2 (+)>>>
             <<<Displacing  15/coordinate 1 (-)>>>
             <<<Displacing  16/coordinate 1 (+)>>>
             <<<Displacing  15/coordinate 2 (-)>>>
             <<<Displacing  16/coordinate 1 (-)>>>
             <<<Displacing  16/coordinate 2 (+)>>>
             <<<Displacing  16/coordinate 2 (-)>>>
             <<<Displacing  16/coordinate 3 (+)>>>
             <<<Displacing  16/coordinate 3 (-)>>>
             <<<Displacing  17/coordinate 3 (+)>>>
             <<<Displacing  17/coordinate 2 (+)>>>
             <<<Displacing  17/coordinate 3 (-)>>>
             <<<Displacing  17/coordinate 2 (-)>>>
             <<<Displacing  17/coordinate 1 (+)>>>
             <<<Displacing  18/coordinate 1 (+)>>>
             <<<Displacing  17/coordinate 1 (-)>>>
             <<<Displacing  18/coordinate 1 (-)>>>
             <<<Displacing  18/coordinate 2 (+)>>>
             <<<Displacing  18/coordinate 2 (-)>>>
             <<<Displacing  18/coordinate 3 (+)>>>
             <<<Displacing  18/coordinate 3 (-)>>>
             <<<Displacing  19/coordinate 1 (+)>>>
             <<<Displacing  19/coordinate 2 (+)>>>
             <<<Displacing  19/coordinate 1 (-)>>>
             <<<Displacing  19/coordinate 2 (-)>>>
             <<<Displacing  20/coordinate 1 (+)>>>
             <<<Displacing  19/coordinate 3 (+)>>>
             <<<Displacing  20/coordinate 1 (-)>>>
             <<<Displacing  19/coordinate 3 (-)>>>
             <<<Displacing  20/coordinate 2 (+)>>>
             <<<Displacing  20/coordinate 2 (-)>>>
             <<<Displacing  20/coordinate 3 (+)>>>
             <<<Displacing  20/coordinate 3 (-)>>>
             <<<Displacing  21/coordinate 3 (+)>>>
             <<<Displacing  21/coordinate 2 (+)>>>
             <<<Displacing  21/coordinate 1 (+)>>>
             <<<Displacing  21/coordinate 2 (-)>>>
             <<<Displacing  21/coordinate 1 (-)>>>
             <<<Displacing  21/coordinate 3 (-)>>>
             <<<Displacing  22/coordinate 1 (+)>>>
             <<<Displacing  22/coordinate 1 (-)>>>
             <<<Displacing  22/coordinate 2 (+)>>>
             <<<Displacing  22/coordinate 2 (-)>>>
             <<<Displacing  22/coordinate 3 (+)>>>
             <<<Displacing  22/coordinate 3 (-)>>>
             <<<Displacing  23/coordinate 1 (+)>>>
             <<<Displacing  23/coordinate 2 (+)>>>
             <<<Displacing  23/coordinate 3 (+)>>>
             <<<Displacing  23/coordinate 1 (-)>>>
             <<<Displacing  23/coordinate 3 (-)>>>
             <<<Displacing  23/coordinate 2 (-)>>>
             <<<Displacing  24/coordinate 1 (+)>>>
             <<<Displacing  24/coordinate 1 (-)>>>
             <<<Displacing  24/coordinate 2 (+)>>>
             <<<Displacing  24/coordinate 2 (-)>>>
             <<<Displacing  24/coordinate 3 (+)>>>
             <<<Displacing  24/coordinate 3 (-)>>>
             <<<Displacing  25/coordinate 1 (+)>>>
             <<<Displacing  25/coordinate 2 (+)>>>
             <<<Displacing  25/coordinate 3 (+)>>>
             <<<Displacing  25/coordinate 1 (-)>>>
             <<<Displacing  25/coordinate 3 (-)>>>
             <<<Displacing  25/coordinate 2 (-)>>>
             <<<Displacing  26/coordinate 1 (+)>>>
             <<<Displacing  26/coordinate 1 (-)>>>
             <<<Displacing  26/coordinate 2 (+)>>>
             <<<Displacing  26/coordinate 2 (-)>>>
             <<<Displacing  26/coordinate 3 (+)>>>
             <<<Displacing  26/coordinate 3 (-)>>>
             <<<Displacing  27/coordinate 3 (+)>>>
             <<<Displacing  27/coordinate 1 (+)>>>
             <<<Displacing  27/coordinate 3 (-)>>>
             <<<Displacing  27/coordinate 1 (-)>>>
             <<<Displacing  27/coordinate 2 (+)>>>
             <<<Displacing  27/coordinate 2 (-)>>>
             <<<Displacing  28/coordinate 1 (+)>>>
             <<<Displacing  28/coordinate 1 (-)>>>
             <<<Displacing  28/coordinate 2 (+)>>>
             <<<Displacing  28/coordinate 2 (-)>>>
             <<<Displacing  28/coordinate 3 (+)>>>
             <<<Displacing  28/coordinate 3 (-)>>>
             <<<Displacing  29/coordinate 1 (+)>>>
             <<<Displacing  29/coordinate 1 (-)>>>
             <<<Displacing  29/coordinate 3 (+)>>>
             <<<Displacing  29/coordinate 2 (+)>>>
             <<<Displacing  29/coordinate 3 (-)>>>
             <<<Displacing  29/coordinate 2 (-)>>>
             <<<Displacing  30/coordinate 1 (+)>>>
             <<<Displacing  30/coordinate 1 (-)>>>
             <<<Displacing  30/coordinate 2 (+)>>>
             <<<Displacing  30/coordinate 2 (-)>>>
             <<<Displacing  30/coordinate 3 (+)>>>
             <<<Displacing  30/coordinate 3 (-)>>>

-----------------------
VIBRATIONAL FREQUENCIES
-----------------------

Scaling factor for frequencies =  1.000000000 (already applied!)

   0:         0.00 cm**-1
   1:         0.00 cm**-1
   2:         0.00 cm**-1
   3:         0.00 cm**-1
   4:         0.00 cm**-1
   5:         0.00 cm**-1
   6:      -271.38 cm**-1 ***imaginary mode***
   7:        68.85 cm**-1
   8:        81.61 cm**-1
   9:        96.51 cm**-1
  10:       117.70 cm**-1
  11:       146.96 cm**-1
  12:       155.76 cm**-1
  13:       171.15 cm**-1
  14:       183.57 cm**-1
  15:       212.63 cm**-1
  16:       262.64 cm**-1
  17:       276.30 cm**-1
  18:       351.10 cm**-1
  19:       387.38 cm**-1
  20:       402.24 cm**-1
  21:       416.82 cm**-1
  22:       456.02 cm**-1
  23:       496.51 cm**-1
  24:       509.61 cm**-1
  25:       586.46 cm**-1
  26:       598.09 cm**-1
  27:       613.13 cm**-1
  28:       655.06 cm**-1
  29:       670.72 cm**-1
  30:       780.06 cm**-1
  31:       795.32 cm**-1
  32:       831.95 cm**-1
  33:       859.05 cm**-1
  34:       878.44 cm**-1
  35:       903.14 cm**-1
  36:       921.93 cm**-1
  37:       941.15 cm**-1
  38:       947.53 cm**-1
  39:       952.61 cm**-1
  40:       956.62 cm**-1
  41:       971.00 cm**-1
  42:      1014.69 cm**-1
  43:      1039.69 cm**-1
  44:      1055.90 cm**-1
  45:      1076.06 cm**-1
  46:      1111.05 cm**-1
  47:      1120.62 cm**-1
  48:      1128.97 cm**-1
  49:      1182.73 cm**-1
  50:      1185.15 cm**-1
  51:      1207.01 cm**-1
  52:      1213.71 cm**-1
  53:      1248.28 cm**-1
  54:      1258.05 cm**-1
  55:      1264.86 cm**-1
  56:      1276.47 cm**-1
  57:      1283.52 cm**-1
  58:      1297.44 cm**-1
  59:      1331.09 cm**-1
  60:      1336.18 cm**-1
  61:      1367.79 cm**-1
  62:      1404.33 cm**-1
  63:      1434.59 cm**-1
  64:      1435.00 cm**-1
  65:      1462.28 cm**-1
  66:      1505.09 cm**-1
  67:      1506.41 cm**-1
  68:      1510.56 cm**-1
  69:      1515.54 cm**-1
  70:      1518.17 cm**-1
  71:      1521.79 cm**-1
  72:      1565.26 cm**-1
  73:      2872.68 cm**-1
  74:      2892.65 cm**-1
  75:      2896.29 cm**-1
  76:      2903.12 cm**-1
  77:      2915.55 cm**-1
  78:      2919.58 cm**-1
  79:      2932.30 cm**-1
  80:      2935.81 cm**-1
  81:      2942.14 cm**-1
  82:      2970.82 cm**-1
  83:      2986.37 cm**-1
  84:      2990.83 cm**-1
  85:      2996.45 cm**-1
  86:      3004.22 cm**-1
  87:      3012.03 cm**-1
  88:      3134.63 cm**-1
  89:      3430.28 cm**-1


------------
NORMAL MODES
------------

These modes are the cartesian displacements weighted by the diagonal matrix
M(i,i)=1/sqrt(m[i]) where m[i] is the mass of the displaced atom
Thus, these vectors are normalized but *not* orthogonal

                  0          1          2          3          4          5    
      0       0.000000   0.000000   0.000000   0.000000   0.000000   0.000000
      1       0.000000   0.000000   0.000000   0.000000   0.000000   0.000000
      2       0.000000   0.000000   0.000000   0.000000   0.000000   0.000000
      3       0.000000   0.000000   0.000000   0.000000   0.000000   0.000000
      4       0.000000   0.000000   0.000000   0.000000   0.000000   0.000000
      5       0.000000   0.000000   0.000000   0.000000   0.000000   0.000000
      6       0.000000   0.000000   0.000000   0.000000   0.000000   0.000000
      7       0.000000   0.000000   0.000000   0.000000   0.000000   0.000000
      8       0.000000   0.000000   0.000000   0.000000   0.000000   0.000000
      9       0.000000   0.000000   0.000000   0.000000   0.000000   0.000000
     10       0.000000   0.000000   0.000000   0.000000   0.000000   0.000000
     11       0.000000   0.000000   0.000000   0.000000   0.000000   0.000000
     12       0.000000   0.000000   0.000000   0.000000   0.000000   0.000000
     13       0.000000   0.000000   0.000000   0.000000   0.000000   0.000000
     14       0.000000   0.000000   0.000000   0.000000   0.000000   0.000000
     15       0.000000   0.000000   0.000000   0.000000   0.000000   0.000000
     16       0.000000   0.000000   0.000000   0.000000   0.000000   0.000000
     17       0.000000   0.000000   0.000000   0.000000   0.000000   0.000000
     18       0.000000   0.000000   0.000000   0.000000   0.000000   0.000000
     19       0.000000   0.000000   0.000000   0.000000   0.000000   0.000000
     20       0.000000   0.000000   0.000000   0.000000   0.000000   0.000000
     21       0.000000   0.000000   0.000000   0.000000   0.000000   0.000000
     22       0.000000   0.000000   0.000000   0.000000   0.000000   0.000000
     23       0.000000   0.000000   0.000000   0.000000   0.000000   0.000000
     24       0.000000   0.000000   0.000000   0.000000   0.000000   0.000000
     25       0.000000   0.000000   0.000000   0.000000   0.000000   0.000000
     26       0.000000   0.000000   0.000000   0.000000   0.000000   0.000000
     27       0.000000   0.000000   0.000000   0.000000   0.000000   0.000000
     28       0.000000   0.000000   0.000000   0.000000   0.000000   0.000000
     29       0.000000   0.000000   0.000000   0.000000   0.000000   0.000000
     30       0.000000   0.000000   0.000000   0.000000   0.000000   0.000000
     31       0.000000   0.000000   0.000000   0.000000   0.000000   0.000000
     32       0.000000   0.000000   0.000000   0.000000   0.000000   0.000000
     33       0.000000   0.000000   0.000000   0.000000   0.000000   0.000000
     34       0.000000   0.000000   0.000000   0.000000   0.000000   0.000000
     35       0.000000   0.000000   0.000000   0.000000   0.000000   0.000000
     36       0.000000   0.000000   0.000000   0.000000   0.000000   0.000000
     37       0.000000   0.000000   0.000000   0.000000   0.000000   0.000000
     38       0.000000   0.000000   0.000000   0.000000   0.000000   0.000000
     39       0.000000   0.000000   0.000000   0.000000   0.000000   0.000000
     40       0.000000   0.000000   0.000000   0.000000   0.000000   0.000000
     41       0.000000   0.000000   0.000000   0.000000   0.000000   0.000000
     42       0.000000   0.000000   0.000000   0.000000   0.000000   0.000000
     43       0.000000   0.000000   0.000000   0.000000   0.000000   0.000000
     44       0.000000   0.000000   0.000000   0.000000   0.000000   0.000000
     45       0.000000   0.000000   0.000000   0.000000   0.000000   0.000000
     46       0.000000   0.000000   0.000000   0.000000   0.000000   0.000000
     47       0.000000   0.000000   0.000000   0.000000   0.000000   0.000000
     48       0.000000   0.000000   0.000000   0.000000   0.000000   0.000000
     49       0.000000   0.000000   0.000000   0.000000   0.000000   0.000000
     50       0.000000   0.000000   0.000000   0.000000   0.000000   0.000000
     51       0.000000   0.000000   0.000000   0.000000   0.000000   0.000000
     52       0.000000   0.000000   0.000000   0.000000   0.000000   0.000000
     53       0.000000   0.000000   0.000000   0.000000   0.000000   0.000000
     54       0.000000   0.000000   0.000000   0.000000   0.000000   0.000000
     55       0.000000   0.000000   0.000000   0.000000   0.000000   0.000000
     56       0.000000   0.000000   0.000000   0.000000   0.000000   0.000000
     57       0.000000   0.000000   0.000000   0.000000   0.000000   0.000000
     58       0.000000   0.000000   0.000000   0.000000   0.000000   0.000000
     59       0.000000   0.000000   0.000000   0.000000   0.000000   0.000000
     60       0.000000   0.000000   0.000000   0.000000   0.000000   0.000000
     61       0.000000   0.000000   0.000000   0.000000   0.000000   0.000000
     62       0.000000   0.000000   0.000000   0.000000   0.000000   0.000000
     63       0.000000   0.000000   0.000000   0.000000   0.000000   0.000000
     64       0.000000   0.000000   0.000000   0.000000   0.000000   0.000000
     65       0.000000   0.000000   0.000000   0.000000   0.000000   0.000000
     66       0.000000   0.000000   0.000000   0.000000   0.000000   0.000000
     67       0.000000   0.000000   0.000000   0.000000   0.000000   0.000000
     68       0.000000   0.000000   0.000000   0.000000   0.000000   0.000000
     69       0.000000   0.000000   0.000000   0.000000   0.000000   0.000000
     70       0.000000   0.000000   0.000000   0.000000   0.000000   0.000000
     71       0.000000   0.000000   0.000000   0.000000   0.000000   0.000000
     72       0.000000   0.000000   0.000000   0.000000   0.000000   0.000000
     73       0.000000   0.000000   0.000000   0.000000   0.000000   0.000000
     74       0.000000   0.000000   0.000000   0.000000   0.000000   0.000000
     75       0.000000   0.000000   0.000000   0.000000   0.000000   0.000000
     76       0.000000   0.000000   0.000000   0.000000   0.000000   0.000000
     77       0.000000   0.000000   0.000000   0.000000   0.000000   0.000000
     78       0.000000   0.000000   0.000000   0.000000   0.000000   0.000000
     79       0.000000   0.000000   0.000000   0.000000   0.000000   0.000000
     80       0.000000   0.000000   0.000000   0.000000   0.000000   0.000000
     81       0.000000   0.000000   0.000000   0.000000   0.000000   0.000000
     82       0.000000   0.000000   0.000000   0.000000   0.000000   0.000000
     83       0.000000   0.000000   0.000000   0.000000   0.000000   0.000000
     84       0.000000   0.000000   0.000000   0.000000   0.000000   0.000000
     85       0.000000   0.000000   0.000000   0.000000   0.000000   0.000000
     86       0.000000   0.000000   0.000000   0.000000   0.000000   0.000000
     87       0.000000   0.000000   0.000000   0.000000   0.000000   0.000000
     88       0.000000   0.000000   0.000000   0.000000   0.000000   0.000000
     89       0.000000   0.000000   0.000000   0.000000   0.000000   0.000000
                  6          7          8          9         10         11    
      0       0.004892   0.073068   0.015853  -0.061221  -0.034646  -0.025020
      1       0.002983  -0.042398  -0.105880  -0.082201  -0.086414   0.004343
      2       0.005099  -0.091276   0.045901   0.132481   0.158343  -0.032469
      3       0.012094   0.078188   0.035440  -0.047355  -0.031256  -0.018227
      4       0.030910  -0.007625  -0.009387  -0.018301  -0.076080   0.035284
      5      -0.018274  -0.035301  -0.010287   0.014547   0.132310  -0.009609
      6       0.000683   0.028487  -0.004222  -0.033828  -0.003915  -0.045676
      7       0.049602   0.012553   0.054115   0.027629   0.008478   0.036690
      8      -0.029395   0.009124  -0.048354  -0.071194  -0.040245   0.026721
      9      -0.018235  -0.025404  -0.062513  -0.035936   0.018294  -0.085591
     10       0.015441   0.001100   0.009239   0.021653   0.093654   0.007388
     11       0.012750  -0.017984  -0.015577  -0.059976  -0.185880   0.042407
     12      -0.019813  -0.028792  -0.080284  -0.051879   0.019297  -0.095237
     13      -0.003751  -0.030719  -0.085324  -0.044287   0.097241  -0.025658
     14       0.021530  -0.080110   0.037570   0.063782  -0.180528   0.029806
     15      -0.008658   0.020175  -0.041792  -0.065489  -0.008872  -0.065228
     16      -0.006907  -0.054447  -0.141143  -0.097493   0.004588  -0.025230
     17       0.010920  -0.113691   0.065741   0.163509  -0.007297  -0.009338
     18       0.022482   0.118067   0.077672  -0.047103  -0.052644   0.006416
     19       0.042491   0.002172   0.016643  -0.013253  -0.139661   0.053196
     20      -0.032855  -0.019105  -0.025594   0.004881   0.242956  -0.024961
     21      -0.029408  -0.061542  -0.088198  -0.029316   0.039087  -0.103224
     22       0.033652   0.018800   0.051015   0.067451   0.169138   0.003148
     23       0.001497   0.004647  -0.042064  -0.135027  -0.324278   0.073154
     24      -0.010160   0.016298  -0.054874  -0.076373  -0.008494  -0.069501
     25      -0.015348  -0.080466  -0.208091  -0.147158   0.007878  -0.049734
     26       0.007565  -0.155645   0.100500   0.253663  -0.001786  -0.020553
     27       0.022257  -0.006311   0.004244  -0.039235   0.022535  -0.014451
     28      -0.025570   0.036293   0.140588  -0.008318  -0.092567   0.090807
     29       0.123830   0.175475  -0.069185   0.000188   0.016538  -0.032194
     30       0.024023   0.001846  -0.003840  -0.047553   0.018326  -0.013161
     31      -0.019751   0.061898   0.110270  -0.026137  -0.132495   0.061220
     32       0.018906   0.150550  -0.024635   0.007930  -0.068472  -0.096470
     33      -0.002395   0.001931  -0.038557  -0.055206  -0.013040  -0.052263
     34      -0.007784   0.043308   0.090397  -0.013596  -0.116210   0.037109
     35      -0.033308   0.231569   0.050187  -0.045878  -0.146836  -0.007233
     36       0.078626   0.047062  -0.025173  -0.063090   0.058513   0.044349
     37      -0.066736   0.151500   0.163910  -0.079295  -0.211040   0.140015
     38       0.006878   0.123280  -0.024772   0.019480  -0.071457  -0.124327
     39       0.018485  -0.016440  -0.002373  -0.009138   0.052756   0.022305
     40      -0.026779   0.036162   0.140457  -0.001589  -0.081245   0.097293
     41       0.675657   0.220813  -0.051529   0.182635   0.119103  -0.347502
     42      -0.186148   0.115356  -0.186098   0.469799  -0.025107   0.382638
     43      -0.391925   0.127804   0.158687   0.201556   0.111237  -0.074152
     44      -0.097390   0.183019   0.043842  -0.214453   0.204164   0.174719
     45       0.024633   0.034651   0.017184  -0.030872  -0.003059  -0.024920
     46       0.141413   0.049988   0.142184   0.047849   0.001428   0.063941
     47      -0.162408   0.071409  -0.103258  -0.103971  -0.085643   0.012810
     48       0.059606   0.073864   0.049528  -0.020895  -0.028985  -0.037317
     49       0.227806   0.073033   0.162298   0.073611   0.021651   0.042670
     50      -0.421601   0.030908  -0.145211  -0.177214  -0.183674   0.066739
     51      -0.025068   0.107278  -0.156347   0.423204  -0.023125   0.202778
     52      -0.132970   0.122778   0.187022   0.148842   0.113028  -0.201947
     53      -0.011146   0.185849   0.041669  -0.218601   0.203821   0.229372
     54      -0.001813  -0.061544   0.080708  -0.031941  -0.002089  -0.010785
     55      -0.000158  -0.006489  -0.006374   0.012854  -0.075959  -0.050395
     56       0.008160   0.027501  -0.049688   0.058495  -0.038148  -0.198035
     57      -0.017480  -0.173089   0.125246  -0.048418   0.031278   0.024036
     58       0.004721  -0.024611  -0.050139   0.087057  -0.086652  -0.194342
     59       0.015151   0.074495  -0.065311   0.061112  -0.050781  -0.203188
     60      -0.004664   0.007516   0.137128  -0.010355  -0.075603  -0.050758
     61      -0.002753   0.006669   0.017183  -0.003953  -0.082335  -0.011777
     62       0.015843  -0.005974  -0.122339   0.120276  -0.028597  -0.336751
     63       0.012190   0.108681   0.045821  -0.069630  -0.052583   0.002138
     64      -0.006276  -0.058752  -0.150236  -0.118139  -0.155267  -0.000730
     65       0.008462  -0.117082   0.070860   0.200111   0.289214  -0.063709
     66      -0.030155  -0.068799  -0.122804  -0.050789   0.039422  -0.120795
     67      -0.012929  -0.038179  -0.113263  -0.053314   0.167394  -0.047164
     68       0.030678  -0.100467   0.055240   0.081751  -0.299648   0.049712
     69      -0.000081  -0.079349   0.048976  -0.043282   0.028796   0.004336
     70       0.004106  -0.061615  -0.111687  -0.016722   0.022300  -0.006415
     71      -0.005851  -0.113226   0.048143   0.021381  -0.002946  -0.063220
     72       0.005136   0.023073  -0.000602  -0.024552  -0.004147  -0.109597
     73      -0.001788  -0.056844  -0.096911  -0.049507   0.029952  -0.028640
     74      -0.007286  -0.151415   0.065676   0.016189   0.008936  -0.019241
     75      -0.000063  -0.147057  -0.008447  -0.066490   0.106610   0.066842
     76       0.005630  -0.068840  -0.127361  -0.009442   0.030462   0.004053
     77      -0.011376  -0.098891   0.093172  -0.007135  -0.019094  -0.089552
     78      -0.002528  -0.141349   0.158944  -0.047586  -0.000235   0.095983
     79       0.008834  -0.109085  -0.213913  -0.007291   0.099308   0.048962
     80      -0.003501  -0.217059   0.062704   0.026785   0.037797   0.075258
     81      -0.002011  -0.142035   0.132850  -0.048369   0.016481   0.091787
     82       0.009650  -0.116734  -0.283119  -0.011290   0.147837   0.043687
     83      -0.006062  -0.276227   0.125716   0.011653   0.042135   0.151555
     84      -0.003018  -0.110118   0.216078  -0.041900  -0.055528   0.069662
     85       0.007753  -0.097908  -0.202958  -0.011468   0.090223   0.031674
     86       0.000465  -0.255399   0.025422   0.041561   0.068633   0.135108
     87      -0.003516  -0.215976   0.205787  -0.058665   0.018263   0.193997
     88       0.012542  -0.143840  -0.225889   0.009473   0.112646   0.108251
     89      -0.003360  -0.190517   0.047785   0.029601   0.030984   0.039741
                 12         13         14         15         16         17    
      0      -0.049410  -0.009107   0.009015   0.028412   0.102508   0.102357
      1       0.011775  -0.023082  -0.015216  -0.011212  -0.017115  -0.039759
      2       0.041136  -0.021196   0.034543  -0.011642  -0.020476   0.017695
      3      -0.047505  -0.008945   0.008379   0.048618   0.111293   0.088130
      4      -0.008933  -0.006151  -0.023663   0.097934   0.072135  -0.050527
      5      -0.059383   0.076743   0.009669  -0.082618  -0.076334   0.121141
      6       0.001103  -0.042236   0.018616   0.008640   0.045366   0.029576
      7      -0.029167   0.019753  -0.014202   0.122006   0.085038   0.025575
      8      -0.109896   0.095172  -0.025286  -0.060753  -0.014048   0.062252
      9       0.058665  -0.098807   0.041443  -0.041941   0.040491   0.034391
     10      -0.020154   0.018358   0.005598   0.107066   0.110099  -0.017242
     11      -0.079479   0.048487  -0.045151  -0.075433  -0.069673   0.136808
     12       0.061742  -0.103687   0.044663  -0.069255   0.023563   0.043252
     13       0.005537   0.000202   0.014918  -0.013883   0.005338  -0.005947
     14       0.014615  -0.042721  -0.023644   0.018053   0.001673   0.023421
     15       0.005462  -0.058577   0.028856  -0.039512   0.057719   0.106392
     16       0.014890  -0.011817   0.001027  -0.091136  -0.092885   0.028138
     17       0.081214  -0.088003   0.018890   0.089418   0.093963  -0.117271
     18      -0.090347   0.021976  -0.002662   0.094032   0.168812   0.130111
     19      -0.014219  -0.013090  -0.034459   0.138639   0.115791  -0.065731
     20      -0.088195   0.118698   0.022021  -0.125329  -0.111432   0.193093
     21       0.102410  -0.134509   0.055179  -0.061303   0.030326   0.024661
     22      -0.034256   0.036670   0.010857   0.150541   0.154431  -0.055785
     23      -0.118847   0.071591  -0.072095  -0.111661  -0.121688   0.203037
     24       0.005823  -0.057691   0.029012  -0.060916   0.036227   0.118682
     25       0.026153  -0.016439   0.004454  -0.195669  -0.195155   0.080717
     26       0.156303  -0.164654   0.037224   0.193580   0.205839  -0.269479
     27      -0.035495   0.034991  -0.018805   0.048320   0.005608  -0.000047
     28       0.012536  -0.009285   0.034876   0.047058  -0.026386   0.125360
     29      -0.099345  -0.002463  -0.003527  -0.063347   0.066185  -0.129582
     30      -0.029708   0.034549  -0.017774   0.012971  -0.024616  -0.085744
     31       0.058892  -0.070430   0.065473  -0.097228  -0.083031  -0.060826
     32       0.003870  -0.108999   0.039484   0.077997  -0.139800  -0.098488
     33       0.039680  -0.002574   0.009148  -0.051025  -0.068207  -0.195631
     34       0.079707  -0.010958   0.063606  -0.106679  -0.033194  -0.041573
     35      -0.072454  -0.376622   0.052987   0.100885  -0.369047  -0.216388
     36      -0.136291   0.037431  -0.042618  -0.056255   0.107608  -0.094807
     37      -0.014045  -0.347767   0.081875  -0.104409  -0.305060  -0.222793
     38       0.047765  -0.073432   0.044989   0.100510  -0.152509  -0.073239
     39      -0.051185   0.067059  -0.039852   0.136658   0.036748   0.063770
     40       0.010221  -0.002471   0.029260   0.060806  -0.021434   0.135282
     41      -0.356302   0.079164  -0.075906  -0.372080   0.006421  -0.288754
     42       0.124104   0.032737  -0.021839  -0.026001  -0.037552   0.069133
     43      -0.049558   0.000227  -0.044017  -0.030418  -0.029227   0.020176
     44       0.138595  -0.006574  -0.008838   0.012977   0.013773  -0.023883
     45       0.010696  -0.034632   0.017226  -0.005080  -0.007856   0.021493
     46      -0.028068   0.025323  -0.005037   0.042918  -0.020949   0.115675
     47      -0.133465   0.074240  -0.009021   0.054394   0.121164  -0.127891
     48       0.023484  -0.070913   0.041297  -0.082199  -0.051474   0.041907
     49      -0.033821   0.018336  -0.007126  -0.034754  -0.056033   0.134575
     50      -0.104082   0.059321   0.023265   0.236019   0.203153  -0.173579
     51       0.022563   0.021680  -0.023434  -0.047310  -0.022896   0.013392
     52      -0.126351  -0.012751  -0.040037  -0.069748  -0.029903  -0.008741
     53       0.164850  -0.007588  -0.003740  -0.003485  -0.001215   0.002902
     54       0.027083   0.090011  -0.017920   0.078367  -0.131200  -0.037747
     55       0.165919   0.123612   0.066202  -0.135907   0.085684  -0.045023
     56       0.154552   0.109634   0.042721   0.112768  -0.062592   0.024385
     57       0.034154   0.067391  -0.129426   0.064031  -0.106244   0.022433
     58       0.321565   0.412494   0.222985  -0.101757   0.152658   0.019155
     59       0.141725   0.102313   0.079571   0.114402  -0.074707  -0.004762
     60       0.080014   0.182161   0.145980   0.091577  -0.177616  -0.033923
     61       0.124971   0.048425   0.039310  -0.140599   0.053300  -0.059966
     62       0.303563   0.384153   0.164700   0.138341   0.036451   0.079898
     63      -0.090674   0.029786  -0.006096   0.063577   0.123911   0.112299
     64       0.021271  -0.042198  -0.020609  -0.046709  -0.033631  -0.047891
     65       0.085252  -0.047521   0.064344  -0.007586  -0.024996   0.016793
     66       0.107663  -0.139368   0.057967  -0.113120  -0.024766  -0.002028
     67       0.012990   0.003699   0.027941  -0.049586  -0.016840  -0.019594
     68       0.040110  -0.080328  -0.037616   0.049934   0.002559   0.009942
     69      -0.003131   0.056351  -0.080887   0.097568  -0.155535  -0.072923
     70       0.070388  -0.007689  -0.131726  -0.069993   0.052539  -0.066406
     71       0.083101  -0.049781  -0.148023  -0.001918   0.030435   0.084437
     72       0.089661   0.139491  -0.054012   0.185054  -0.230617  -0.070037
     73       0.147733  -0.124746  -0.479670  -0.101554   0.086295  -0.039102
     74       0.044379  -0.075292  -0.140957  -0.033999   0.057662   0.080922
     75      -0.105546  -0.062444  -0.215981   0.154220  -0.194058  -0.050700
     76       0.034765   0.012167  -0.046849  -0.044161   0.029714  -0.067169
     77       0.187200  -0.136489  -0.457023  -0.078023   0.099030   0.093653
     78      -0.026687   0.075673   0.008496  -0.101805  -0.011963  -0.198683
     79      -0.103947  -0.029123   0.041172   0.101760  -0.087369  -0.004194
     80      -0.098360  -0.054544   0.100160  -0.045604   0.062052   0.044889
     81      -0.042811   0.057516  -0.012873  -0.054305  -0.042456  -0.159905
     82      -0.152777  -0.084642  -0.024392   0.226660  -0.164385   0.101320
     83      -0.125773  -0.088476   0.059429  -0.185917   0.187168  -0.031367
     84       0.050691   0.138681   0.052337  -0.196284   0.039000  -0.283763
     85      -0.065216  -0.036229  -0.029590   0.081138  -0.065324  -0.005093
     86      -0.231996  -0.029044   0.346969   0.024827  -0.013783   0.047797
     87      -0.104765   0.047446   0.051396  -0.210661   0.082802  -0.267453
     88      -0.218244   0.013727   0.303095   0.128150  -0.135202  -0.033515
     89      -0.066739  -0.047260   0.072719  -0.010951   0.033097   0.068804
                 18         19         20         21         22         23    
      0       0.004010   0.060560  -0.014493  -0.017108   0.087942   0.006576
      1      -0.003456  -0.013392  -0.098582   0.036396  -0.023332  -0.091782
      2       0.000354   0.010421   0.177630  -0.017787  -0.076066   0.115370
      3       0.004166   0.062752   0.030441  -0.008448   0.062635   0.015726
      4       0.000724   0.074730   0.110402   0.051541   0.000510   0.009259
      5       0.004036   0.098691  -0.180485   0.008659  -0.004667  -0.010507
      6       0.000853   0.028322   0.002472   0.026100  -0.071065   0.003027
      7       0.003840   0.134631   0.012687  -0.011421   0.001993   0.167790
      8       0.003094   0.024176   0.010798   0.062215   0.143230  -0.248828
      9      -0.001740  -0.043211  -0.026613  -0.032418   0.036589   0.014376
     10       0.005292   0.096230  -0.088078   0.015158   0.108856   0.044318
     11      -0.001352   0.068748   0.183101  -0.021805   0.039182   0.013583
     12      -0.002766  -0.076637   0.012015  -0.046098   0.043078  -0.000562
     13       0.000652  -0.014668   0.102303   0.003194   0.065804  -0.055917
     14      -0.004130   0.034901  -0.183682  -0.035276  -0.026915   0.126125
     15       0.000493  -0.011517  -0.004335  -0.072843   0.117218   0.066416
     16      -0.003683  -0.014523  -0.008543  -0.016949  -0.083047   0.072044
     17      -0.002629  -0.065338   0.004556   0.033204   0.071278  -0.164329
     18       0.007524   0.117418   0.066767  -0.024917   0.171480   0.036650
     19       0.000754   0.066480   0.234952   0.060365   0.067607  -0.068071
     20       0.007082   0.165008  -0.402664  -0.027603  -0.036166   0.169990
     21      -0.004210  -0.108068  -0.063913  -0.069467   0.051422  -0.007798
     22       0.008804   0.137159  -0.218486   0.077555   0.156638  -0.075132
     23      -0.003053   0.100030   0.424108  -0.057588  -0.055903   0.215593
     24      -0.000011  -0.013714  -0.007840  -0.078308   0.102852   0.077077
     25      -0.006560  -0.036795  -0.025992  -0.048009  -0.142503   0.123373
     26      -0.004101  -0.145154   0.019240   0.069014   0.125814  -0.263476
     27       0.001673   0.054881   0.003008   0.087104  -0.184992  -0.098519
     28      -0.004713  -0.181240  -0.010253  -0.100358  -0.068843  -0.075693
     29      -0.002632  -0.162676  -0.015331  -0.051964  -0.023439   0.101417
     30       0.001618   0.056134   0.002282   0.133228  -0.146424  -0.029782
     31       0.000484  -0.020591  -0.002080   0.131618   0.084086   0.070475
     32      -0.004996   0.132768   0.005701  -0.083126  -0.035282  -0.058941
     33       0.005446   0.264334   0.013647   0.288417  -0.107009   0.011357
     34      -0.001745  -0.059446  -0.004327   0.123211   0.069085   0.075479
     35       0.005641   0.362112   0.018506  -0.007466   0.035825  -0.075173
     36       0.005470  -0.100890  -0.007793   0.129376  -0.218051   0.021842
     37       0.013271   0.271849   0.013393   0.257260   0.145920   0.066639
     38      -0.007777   0.144195   0.006931  -0.095919  -0.017709  -0.074185
     39       0.000410   0.029009  -0.004437  -0.029237  -0.335122  -0.156788
     40      -0.004783  -0.179222  -0.010814  -0.116249  -0.093583  -0.085478
     41       0.002732  -0.168827  -0.025470   0.275947   0.348554   0.042721
     42       0.000430   0.019630   0.017481   0.011598   0.270704  -0.088227
     43      -0.001863   0.071866   0.027110   0.008415   0.063214   0.052609
     44      -0.000168   0.056554   0.008145   0.016998  -0.178715   0.145150
     45      -0.000835  -0.006837  -0.001276   0.044347  -0.139880  -0.075461
     46      -0.002325  -0.087894  -0.012832  -0.078535  -0.080088  -0.072310
     47       0.000648  -0.134826   0.004408   0.007733  -0.044400   0.058049
     48      -0.005092  -0.166386  -0.009419   0.010542  -0.130911  -0.140725
     49      -0.003179  -0.124896  -0.008298  -0.060313  -0.006747  -0.127638
     50      -0.000261  -0.160326  -0.018018  -0.081863  -0.260353   0.194311
     51       0.000899   0.000276   0.001834   0.007524  -0.007368   0.003033
     52      -0.003512  -0.007354  -0.004154   0.000639  -0.007586  -0.016465
     53      -0.002050   0.002084  -0.005910   0.015296   0.023390  -0.005946
     54      -0.005431  -0.090892  -0.004370   0.098541   0.066014   0.070082
     55      -0.006239   0.024928   0.000672   0.100147  -0.018847   0.035284
     56      -0.015665   0.029457   0.001942  -0.086437   0.010552  -0.040470
     57       0.021990  -0.190031  -0.008997   0.169295   0.128183   0.140346
     58      -0.062570  -0.036778  -0.001743   0.087931   0.005058   0.059731
     59      -0.023809   0.073131   0.003971  -0.112092  -0.016780  -0.069316
     60      -0.045390  -0.145372  -0.007435   0.196299   0.126088   0.139897
     61       0.005100   0.027923   0.000574   0.116031  -0.008172   0.041107
     62      -0.063160   0.007041   0.001478  -0.135609  -0.015365  -0.052561
     63       0.006747   0.127091  -0.029655   0.021843   0.082965  -0.027530
     64      -0.006130  -0.070345  -0.212938   0.030885   0.040278  -0.211217
     65       0.000579   0.003570   0.374613  -0.066165  -0.162054   0.348965
     66      -0.006313  -0.152881   0.027372  -0.029933  -0.041396  -0.069810
     67       0.000676  -0.060837   0.205427   0.028362   0.087992  -0.200059
     68      -0.007238   0.060121  -0.371035  -0.068350  -0.146092   0.346293
     69       0.003197  -0.084445  -0.004054  -0.013096   0.099998   0.064886
     70       0.025827   0.069549   0.003001  -0.119529  -0.035556  -0.049231
     71       0.033267  -0.051246  -0.002164   0.096493   0.001857   0.025658
     72       0.001153  -0.093089  -0.004307  -0.040410   0.136756   0.068464
     73       0.063472   0.033964   0.000871  -0.126856  -0.036396  -0.044731
     74       0.031348  -0.044177  -0.001873   0.103943  -0.013301   0.021978
     75       0.009031  -0.120708  -0.005715  -0.061768   0.121974   0.062332
     76       0.014613   0.067655   0.003067  -0.114687  -0.026623  -0.044691
     77       0.069679  -0.057221  -0.002954   0.083883  -0.020816   0.016696
     78      -0.004586   0.059299   0.002748  -0.197953   0.035726  -0.017449
     79      -0.007854  -0.022966  -0.001050  -0.028633   0.031194   0.008878
     80      -0.003336   0.000966   0.000614   0.072861  -0.036785  -0.003363
     81      -0.117453   0.021058   0.000794  -0.126915   0.057416   0.013249
     82      -0.374184  -0.122392  -0.006198   0.165828   0.090424   0.092438
     83      -0.447631   0.135057   0.006536  -0.065716  -0.083247  -0.076536
     84       0.457151   0.126403   0.006399  -0.358489  -0.011925  -0.083440
     85      -0.095111  -0.011153  -0.000673  -0.035561   0.027882   0.004044
     86       0.305122  -0.039864  -0.000711   0.097594  -0.026318   0.013063
     87      -0.362228   0.172952   0.007896  -0.315988  -0.003639  -0.080102
     88       0.412616  -0.033187  -0.000797  -0.058585   0.022445   0.000748
     89       0.093433  -0.035888  -0.001080   0.112580  -0.023192   0.017588
                 24         25         26         27         28         29    
      0      -0.007119  -0.240634   0.134341  -0.013144   0.006792   0.026943
      1      -0.002109  -0.102887   0.166707   0.006136   0.003394   0.094484
      2       0.016313  -0.100582   0.095252   0.019773   0.055620  -0.143627
      3      -0.003162  -0.162527   0.128651  -0.001386   0.018953  -0.008688
      4       0.004401   0.250723   0.103102   0.037771   0.046891  -0.059435
      5      -0.004079   0.122946   0.079601   0.010115  -0.025508   0.140446
      6       0.011336   0.078597   0.205891   0.043054   0.031823   0.039188
      7       0.010538   0.089985  -0.032941   0.005441  -0.021341   0.113735
      8      -0.030690   0.081966   0.017752  -0.012789   0.030392  -0.212702
      9      -0.000123   0.233053  -0.078902   0.021791   0.012884  -0.008739
     10      -0.010172   0.106939  -0.094700  -0.010234  -0.002033  -0.085737
     11      -0.004376   0.094169  -0.061056  -0.024538  -0.049236   0.114984
     12      -0.001602   0.176686  -0.107711   0.016202   0.001248   0.024685
     13      -0.014670  -0.250342  -0.030192  -0.048040  -0.051122   0.066975
     14       0.013941  -0.130105  -0.036349  -0.009411   0.024966  -0.156579
     15      -0.008164  -0.085248  -0.195039  -0.034932  -0.029571  -0.032944
     16       0.012669  -0.111536   0.049949   0.008234   0.029106  -0.063979
     17      -0.015590  -0.054474   0.014673  -0.019469  -0.040797   0.122283
     18      -0.015499  -0.064354  -0.018108  -0.022450  -0.000931  -0.054378
     19      -0.007936   0.275278   0.057393   0.019179   0.053174  -0.211972
     20       0.008875   0.133365   0.039652   0.026678  -0.056859   0.411009
     21      -0.005630   0.060413  -0.208242  -0.027453  -0.025266  -0.062832
     22      -0.019855   0.224465   0.006205   0.019843   0.037494  -0.249179
     23       0.016362   0.134651  -0.017754  -0.000531  -0.053717   0.427232
     24      -0.006244  -0.035159  -0.208618  -0.029570  -0.024190  -0.062652
     25       0.021270   0.167126  -0.075039   0.030673   0.045232  -0.203185
     26      -0.023922   0.108173  -0.048519  -0.001681  -0.063119   0.376077
     27       0.018650  -0.037300  -0.127117   0.015841   0.008628   0.000728
     28       0.001356   0.020444   0.006925   0.040503   0.032797   0.005279
     29      -0.010598   0.089604   0.147195  -0.070901  -0.142223  -0.054187
     30       0.014911  -0.030244  -0.131695  -0.030421  -0.076860  -0.029353
     31      -0.011041   0.008352   0.028363  -0.001505   0.010571   0.005833
     32       0.003812  -0.013325  -0.041078   0.005877  -0.012073  -0.006032
     33       0.012410  -0.076672  -0.228909  -0.076307  -0.103510  -0.036682
     34      -0.008910   0.015885   0.044474   0.004339   0.006605   0.006588
     35      -0.004708  -0.067688  -0.159586  -0.027407  -0.003258  -0.010504
     36       0.016590   0.025579  -0.041679  -0.049765  -0.133661  -0.043526
     37      -0.016846  -0.069037  -0.143965  -0.042103   0.005652   0.001588
     38       0.003665  -0.021300  -0.047011   0.017767   0.010084  -0.000046
     39       0.008094  -0.026862  -0.257568  -0.097790  -0.121456  -0.060909
     40      -0.002179   0.017140  -0.022461   0.025200   0.009494  -0.004614
     41       0.085390  -0.327023  -0.432555   0.555550   0.479533   0.268075
     42       0.624055  -0.078879   0.058499   0.322364  -0.446980  -0.134748
     43      -0.143269  -0.181811   0.017938   0.643350  -0.634167  -0.194155
     44      -0.750974  -0.111273  -0.077893   0.293995  -0.099338  -0.023660
     45       0.008665   0.052299   0.157332   0.024588   0.010516  -0.007831
     46      -0.001868  -0.031327  -0.164602  -0.005177  -0.041858  -0.013351
     47       0.022564  -0.047706  -0.118001   0.054405   0.069962   0.046225
     48       0.009685   0.050930   0.230120   0.094784   0.046804  -0.019707
     49      -0.004791  -0.037749  -0.118182   0.062196  -0.042844  -0.040475
     50       0.032535  -0.020733  -0.174655  -0.086104   0.121143   0.133825
     51      -0.050956   0.002959  -0.017757  -0.032437   0.057955   0.019537
     52       0.020480   0.019921   0.002525  -0.061589   0.042804   0.010948
     53       0.042532  -0.006357  -0.024639  -0.014679   0.049140   0.020303
     54      -0.005993   0.002987   0.000086  -0.014141  -0.013591  -0.002607
     55      -0.000114  -0.004940  -0.027156  -0.021697  -0.026171  -0.005485
     56       0.001137  -0.001658   0.007752   0.015753   0.020392   0.003311
     57      -0.014371   0.022340   0.052086  -0.033169  -0.015183  -0.000506
     58      -0.005299   0.006944   0.007820  -0.035729  -0.013086  -0.000907
     59       0.004790  -0.010624  -0.016774   0.023757   0.020490   0.002597
     60      -0.015300   0.016729   0.033600  -0.027101  -0.023330  -0.002764
     61      -0.001201  -0.005058  -0.026663  -0.018227  -0.026169  -0.005116
     62       0.002638   0.003303   0.016613   0.002387   0.018711   0.000753
     63      -0.007980  -0.071347   0.272423   0.015638   0.034939   0.023166
     64      -0.017827  -0.209644   0.063800  -0.032881  -0.028182   0.004161
     65       0.040743  -0.158229   0.040626   0.037642   0.061967  -0.001882
     66       0.004369   0.080644   0.046336   0.037006   0.032207   0.026485
     67      -0.026945  -0.258055   0.020266  -0.053998  -0.050346  -0.011228
     68       0.043539  -0.171744   0.001813   0.024837   0.052704  -0.000509
     69      -0.009016   0.012964   0.039408  -0.007056  -0.002002   0.002117
     70       0.003846  -0.006340  -0.015425   0.008615   0.004301  -0.000476
     71      -0.003520   0.001138   0.001384  -0.004642  -0.004375  -0.000708
     72      -0.010298   0.014485   0.052363  -0.000436   0.009492   0.005968
     73       0.001026  -0.001121   0.000670   0.013999   0.006171   0.000800
     74      -0.002856  -0.000008  -0.005121  -0.006772  -0.008243  -0.002189
     75      -0.011240   0.020587   0.069077   0.004209   0.013021   0.007026
     76       0.003828  -0.006290  -0.014081   0.008042   0.005474   0.000226
     77      -0.004334   0.002700   0.003260  -0.001596  -0.007155  -0.002010
     78      -0.002975   0.006014   0.026585   0.007203   0.011541   0.004045
     79      -0.000630   0.004464   0.015733   0.002108   0.005386   0.002402
     80       0.001525  -0.004592  -0.019853  -0.004406  -0.007434  -0.003216
     81      -0.005659   0.008520   0.031057   0.000735   0.005174   0.003240
     82      -0.008092   0.011285   0.028059  -0.015483  -0.012416   0.000096
     83       0.005152  -0.012665  -0.034021   0.013696   0.007970  -0.001423
     84       0.003630   0.000767   0.017333   0.021485   0.025415   0.005891
     85      -0.001067   0.003112   0.013164   0.003783   0.006117   0.002459
     86       0.003218  -0.000120  -0.011974  -0.010283  -0.010793  -0.003754
     87       0.001632  -0.000021   0.016178   0.022434   0.024492   0.005506
     88       0.003220   0.006210   0.018119   0.001154   0.007563   0.002841
     89      -0.000255  -0.002709  -0.016385  -0.009156  -0.011453  -0.003568
                 30         31         32         33         34         35    
      0      -0.005372  -0.008692  -0.081519   0.053488  -0.011984  -0.006128
      1       0.004599  -0.010911  -0.083978   0.050851  -0.024762   0.006405
      2      -0.031892  -0.005845  -0.053156   0.034703   0.031286  -0.035584
      3       0.000114  -0.006247  -0.048086   0.027561  -0.010173  -0.003550
      4       0.025739  -0.004254  -0.014994  -0.000459  -0.038256   0.013606
      5      -0.060212   0.000176  -0.006611   0.006578   0.072921  -0.008183
      6      -0.009953   0.000035   0.036746  -0.039979   0.003836   0.001921
      7      -0.047299   0.002873   0.005478  -0.001432  -0.012110  -0.018123
      8       0.085854  -0.005028  -0.027210   0.020454   0.015791   0.029035
      9       0.003043  -0.005812  -0.042929   0.026501   0.005879  -0.011695
     10       0.048492   0.009658   0.064884  -0.026275   0.054236  -0.025358
     11      -0.062362   0.008200   0.040414  -0.022028  -0.083644   0.044863
     12      -0.004314  -0.008601  -0.066531   0.039779  -0.000731  -0.009207
     13       0.025893   0.015082   0.119473  -0.070225   0.028420   0.011581
     14      -0.014945   0.008547   0.061700  -0.038942  -0.026851   0.011980
     15       0.016299   0.011425   0.082577  -0.047065   0.005825   0.017886
     16       0.027874  -0.004523  -0.026787   0.015660  -0.006483   0.013581
     17      -0.054603   0.002572   0.008805  -0.005831   0.004474  -0.029391
     18      -0.041904   0.000921  -0.016106   0.019351   0.055787   0.000050
     19      -0.182897   0.004572  -0.004963   0.019556   0.249613  -0.018622
     20       0.329126  -0.012509  -0.010550  -0.032567  -0.458601   0.058743
     21      -0.042631  -0.004314  -0.047149   0.025996  -0.072796   0.021744
     22      -0.191854   0.018277   0.095021  -0.062271  -0.293042   0.155719
     23       0.349956  -0.004783   0.016514   0.021503   0.529686  -0.262016
     24      -0.046838   0.012684   0.080933  -0.047126   0.008313  -0.011105
     25      -0.251499   0.005389   0.003733  -0.009305   0.007954  -0.110956
     26       0.443385  -0.021978  -0.078104   0.050296  -0.023211   0.189466
     27       0.004317  -0.001479   0.014674  -0.019102  -0.000954  -0.000615
     28       0.008872   0.004005   0.045210  -0.028121  -0.002110  -0.012923
     29       0.003956  -0.007784  -0.010025  -0.017034   0.006184   0.009979
     30       0.009251   0.013646   0.008871   0.041511  -0.006738  -0.025889
     31      -0.000576   0.022309   0.045162   0.030757  -0.001314   0.001797
     32       0.002613   0.024418   0.040471   0.059696  -0.003146  -0.000454
     33       0.000811   0.012504  -0.096767   0.094557  -0.012104  -0.020512
     34       0.000847   0.088625   0.109668   0.116142  -0.005619   0.004156
     35      -0.007462  -0.283936  -0.302743  -0.321201   0.016588  -0.009002
     36       0.005927  -0.029604   0.035226  -0.055732   0.008793  -0.003582
     37      -0.017412  -0.281858  -0.331256  -0.320736   0.019173   0.002759
     38       0.005678   0.072488   0.073208   0.125814  -0.010407  -0.007758
     39       0.000488  -0.044168  -0.179073   0.028132  -0.008438   0.016759
     40       0.007880  -0.004565   0.006546  -0.018481  -0.003781  -0.011227
     41      -0.066502  -0.001951   0.054485  -0.027776   0.098673   0.197477
     42      -0.001654  -0.010524  -0.021838   0.003863   0.024772   0.052115
     43      -0.004529  -0.012988  -0.031773   0.007630   0.033794   0.078840
     44      -0.007039  -0.000765  -0.005847   0.003602   0.007133   0.021850
     45       0.011532   0.012240   0.134424  -0.091464   0.019920   0.041132
[...]
     29       0.000005  -0.000057   0.000031  -0.000257  -0.001760   0.000632
     30      -0.000015   0.000007   0.000024  -0.000032  -0.000939  -0.000198
     31       0.000007  -0.000020  -0.000046   0.000005   0.003505   0.000055
     32      -0.000030  -0.000016   0.000069   0.000011  -0.000043  -0.000151
     33       0.000176   0.000049  -0.000190   0.000534   0.006410   0.000144
     34      -0.000467  -0.000037   0.001028  -0.001473  -0.040179   0.000621
     35      -0.000101   0.000008   0.000257  -0.000285  -0.011037   0.000043
     36       0.000115   0.000076  -0.000343   0.000119   0.003816   0.000701
     37       0.000030   0.000027  -0.000128   0.000081   0.003213  -0.000111
     38       0.000343   0.000217  -0.001026   0.000174   0.008577   0.000682
     39      -0.002036  -0.000532   0.004390  -0.002446   0.179633   0.003780
     40       0.006078  -0.003350  -0.009330  -0.008176  -0.977671  -0.017084
     41      -0.000135  -0.000240   0.000301   0.000040   0.003205  -0.002677
     42       0.000222   0.000044  -0.000132  -0.000704   0.010590  -0.571882
     43      -0.000249  -0.000226   0.000344   0.000850  -0.005566   0.554313
     44       0.000351   0.000130  -0.000690  -0.000177   0.013480  -0.601180
     45      -0.000612   0.000293   0.000525   0.000262   0.001551  -0.000142
     46       0.001936  -0.000522  -0.001576   0.001238   0.007324  -0.000348
     47       0.000556  -0.000156  -0.000494   0.000460   0.003027  -0.000327
     48       0.008373  -0.002735  -0.005955   0.002585   0.014762  -0.001011
     49      -0.025478   0.006996   0.018106  -0.010712  -0.062334   0.002643
     50      -0.007390   0.001996   0.005187  -0.003160  -0.021919   0.000416
     51       0.000010   0.000012  -0.000044   0.000061  -0.000540   0.035931
     52       0.000023  -0.000006  -0.000027  -0.000120   0.001002  -0.034784
     53      -0.000055  -0.000010   0.000113   0.000012  -0.000138   0.037738
     54       0.000013  -0.000019  -0.000028  -0.000054  -0.000042  -0.000065
     55      -0.000028   0.000030   0.000064   0.000025   0.000243   0.000073
     56       0.000005  -0.000043   0.000011  -0.000139  -0.000215  -0.000247
     57      -0.000070   0.000190   0.000124   0.000662   0.000964   0.000363
     58       0.000033   0.000028  -0.000058   0.000173   0.000554  -0.000001
     59      -0.000105   0.000619  -0.000015   0.001740   0.003401   0.003895
     60      -0.000051   0.000043   0.000150   0.000003  -0.000808  -0.000058
     61       0.000235  -0.000358  -0.000611  -0.000210  -0.004458  -0.001749
     62       0.000054  -0.000135  -0.000140  -0.000198  -0.000673  -0.000290
     63      -0.128215   0.335947   0.388632   0.093578  -0.003568  -0.000698
     64      -0.139152   0.358707   0.416781   0.101046  -0.003549  -0.000558
     65      -0.090774   0.234787   0.272627   0.066009  -0.002366  -0.000369
     66      -0.223363  -0.237685   0.077111   0.149787  -0.002653  -0.000589
     67       0.501182   0.530496  -0.174646  -0.337412   0.004626   0.000896
     68       0.256563   0.271326  -0.089530  -0.172981   0.002181   0.000448
     69      -0.000004   0.000012  -0.000012   0.000021  -0.000084  -0.000030
     70       0.000000  -0.000020   0.000015  -0.000083   0.000185   0.000028
     71      -0.000016   0.000009   0.000018   0.000007  -0.000070  -0.000017
     72       0.000051  -0.000072   0.000018  -0.000092   0.000984   0.000344
     73       0.000008  -0.000035  -0.000004  -0.000051   0.000134  -0.000113
     74       0.000162  -0.000210  -0.000079  -0.000355   0.001906   0.000250
     75      -0.000009  -0.000039   0.000063  -0.000041   0.000596   0.000064
     76      -0.000020   0.000284  -0.000238   0.000968  -0.002421   0.000037
     77      -0.000011   0.000103  -0.000084   0.000295  -0.000882   0.000066
     78      -0.000006   0.000014  -0.000005   0.000014  -0.000101  -0.000014
     79      -0.000011   0.000015   0.000005  -0.000014   0.000003  -0.000001
     80      -0.000003  -0.000012   0.000026  -0.000038   0.000053  -0.000008
     81       0.000108  -0.000260   0.000043  -0.000436   0.001894   0.000386
     82      -0.000043   0.000085   0.000004   0.000150  -0.000537   0.000011
     83       0.000004  -0.000011  -0.000013  -0.000014  -0.000048  -0.000098
     84      -0.000008   0.000006   0.000039   0.000025  -0.000022   0.000036
     85       0.000157  -0.000295   0.000003  -0.000051   0.000227   0.000066
     86       0.000044  -0.000092   0.000014  -0.000047   0.000069   0.000064
     87      -0.000018   0.000073  -0.000046   0.000184  -0.000269   0.000046
     88      -0.000000   0.000005  -0.000020   0.000039  -0.000030  -0.000062
     89      -0.000024   0.000223  -0.000274   0.000494  -0.000740   0.000081


-----------
IR SPECTRUM  
-----------

 Mode    freq (cm**-1)   T**2         TX         TY         TZ
-------------------------------------------------------------------
   7:        68.85    0.000000  (  0.000000   0.000000   0.000000)
   8:        81.61    0.000000  (  0.000000   0.000000   0.000000)
   9:        96.51    0.000000  (  0.000000   0.000000   0.000000)
  10:       117.70    0.000000  (  0.000000   0.000000   0.000000)
  11:       146.96    0.000000  (  0.000000   0.000000   0.000000)
  12:       155.76    0.000000  (  0.000000   0.000000   0.000000)
  13:       171.15    0.000000  (  0.000000   0.000000   0.000000)
  14:       183.57    0.000000  (  0.000000   0.000000   0.000000)
  15:       212.63    0.000000  (  0.000000   0.000000   0.000000)
  16:       262.64    0.000000  (  0.000000   0.000000   0.000000)
  17:       276.30    0.000000  (  0.000000   0.000000   0.000000)
  18:       351.10    0.000000  (  0.000000   0.000000   0.000000)
  19:       387.38    0.000000  (  0.000000   0.000000   0.000000)
  20:       402.24    0.000000  (  0.000000   0.000000   0.000000)
  21:       416.82    0.000000  (  0.000000   0.000000   0.000000)
  22:       456.02    0.000000  (  0.000000   0.000000   0.000000)
  23:       496.51    0.000000  (  0.000000   0.000000   0.000000)
  24:       509.61    0.000000  (  0.000000   0.000000   0.000000)
  25:       586.46    0.000000  (  0.000000   0.000000   0.000000)
  26:       598.09    0.000000  (  0.000000   0.000000   0.000000)
  27:       613.13    0.000000  (  0.000000   0.000000   0.000000)
  28:       655.06    0.000000  (  0.000000   0.000000   0.000000)
  29:       670.72    0.000000  (  0.000000   0.000000   0.000000)
  30:       780.06    0.000000  (  0.000000   0.000000   0.000000)
  31:       795.32    0.000000  (  0.000000   0.000000   0.000000)
  32:       831.95    0.000000  (  0.000000   0.000000   0.000000)
  33:       859.05    0.000000  (  0.000000   0.000000   0.000000)
  34:       878.44    0.000000  (  0.000000   0.000000   0.000000)
  35:       903.14    0.000000  (  0.000000   0.000000   0.000000)
  36:       921.93    0.000000  (  0.000000   0.000000   0.000000)
  37:       941.15    0.000000  (  0.000000   0.000000   0.000000)
  38:       947.53    0.000000  (  0.000000   0.000000   0.000000)
  39:       952.61    0.000000  (  0.000000   0.000000   0.000000)
  40:       956.62    0.000000  (  0.000000   0.000000   0.000000)
  41:       971.00    0.000000  (  0.000000   0.000000   0.000000)
  42:      1014.69    0.000000  (  0.000000   0.000000   0.000000)
  43:      1039.69    0.000000  (  0.000000   0.000000   0.000000)
  44:      1055.90    0.000000  (  0.000000   0.000000   0.000000)
  45:      1076.06    0.000000  (  0.000000   0.000000   0.000000)
  46:      1111.05    0.000000  (  0.000000   0.000000   0.000000)
  47:      1120.62    0.000000  (  0.000000   0.000000   0.000000)
  48:      1128.97    0.000000  (  0.000000   0.000000   0.000000)
  49:      1182.73    0.000000  (  0.000000   0.000000   0.000000)
  50:      1185.15    0.000000  (  0.000000   0.000000   0.000000)
  51:      1207.01    0.000000  (  0.000000   0.000000   0.000000)
  52:      1213.71    0.000000  (  0.000000   0.000000   0.000000)
  53:      1248.28    0.000000  (  0.000000   0.000000   0.000000)
  54:      1258.05    0.000000  (  0.000000   0.000000   0.000000)
  55:      1264.86    0.000000  (  0.000000   0.000000   0.000000)
  56:      1276.47    0.000000  (  0.000000   0.000000   0.000000)
  57:      1283.52    0.000000  (  0.000000   0.000000   0.000000)
  58:      1297.44    0.000000  (  0.000000   0.000000   0.000000)
  59:      1331.09    0.000000  (  0.000000   0.000000   0.000000)
  60:      1336.18    0.000000  (  0.000000   0.000000   0.000000)
  61:      1367.79    0.000000  (  0.000000   0.000000   0.000000)
  62:      1404.33    0.000000  (  0.000000   0.000000   0.000000)
  63:      1434.59    0.000000  (  0.000000   0.000000   0.000000)
  64:      1435.00    0.000000  (  0.000000   0.000000   0.000000)
  65:      1462.28    0.000000  (  0.000000   0.000000   0.000000)
  66:      1505.09    0.000000  (  0.000000   0.000000   0.000000)
  67:      1506.41    0.000000  (  0.000000   0.000000   0.000000)
  68:      1510.56    0.000000  (  0.000000   0.000000   0.000000)
  69:      1515.54    0.000000  (  0.000000   0.000000   0.000000)
  70:      1518.17    0.000000  (  0.000000   0.000000   0.000000)
  71:      1521.79    0.000000  (  0.000000   0.000000   0.000000)
  72:      1565.26    0.000000  (  0.000000   0.000000   0.000000)
  73:      2872.68    0.000000  (  0.000000   0.000000   0.000000)
  74:      2892.65    0.000000  (  0.000000   0.000000   0.000000)
  75:      2896.29    0.000000  (  0.000000   0.000000   0.000000)
  76:      2903.12    0.000000  (  0.000000   0.000000   0.000000)
  77:      2915.55    0.000000  (  0.000000   0.000000   0.000000)
  78:      2919.58    0.000000  (  0.000000   0.000000   0.000000)
  79:      2932.30    0.000000  (  0.000000   0.000000   0.000000)
  80:      2935.81    0.000000  (  0.000000   0.000000   0.000000)
  81:      2942.14    0.000000  (  0.000000   0.000000   0.000000)
  82:      2970.82    0.000000  (  0.000000   0.000000   0.000000)
  83:      2986.37    0.000000  (  0.000000   0.000000   0.000000)
  84:      2990.83    0.000000  (  0.000000   0.000000   0.000000)
  85:      2996.45    0.000000  (  0.000000   0.000000   0.000000)
  86:      3004.22    0.000000  (  0.000000   0.000000   0.000000)
  87:      3012.03    0.000000  (  0.000000   0.000000   0.000000)
  88:      3134.63    0.000000  (  0.000000   0.000000   0.000000)
  89:      3430.28    0.000000  (  0.000000   0.000000   0.000000)

The first frequency considered to be a vibration is 7
The total number of vibrations considered is 83


--------------------------
THERMOCHEMISTRY AT 298.15K
--------------------------

Temperature         ... 298.15 K
Pressure            ... 1.00 atm
Total Mass          ... 179.26 AMU

Throughout the following assumptions are being made:
  (1) The electronic state is orbitally nondegenerate
  (2) There are no thermally accessible electronically excited states
  (3) Hindered rotations indicated by low frequency modes are not
      treated as such but are treated as vibrations and this may
      cause some error
  (4) All equations used are the standard statistical mechanics
      equations for an ideal gas
  (5) All vibrations are strictly harmonic

freq.      68.85  E(vib)   ...       0.50 
freq.      81.61  E(vib)   ...       0.48 
freq.      96.51  E(vib)   ...       0.47 
freq.     117.70  E(vib)   ...       0.44 
freq.     146.96  E(vib)   ...       0.41 
freq.     155.76  E(vib)   ...       0.40 
freq.     171.15  E(vib)   ...       0.38 
freq.     183.57  E(vib)   ...       0.37 
freq.     212.63  E(vib)   ...       0.34 
freq.     262.64  E(vib)   ...       0.29 
freq.     276.30  E(vib)   ...       0.28 
freq.     351.10  E(vib)   ...       0.23 
freq.     387.38  E(vib)   ...       0.20 
freq.     402.24  E(vib)   ...       0.19 
freq.     416.82  E(vib)   ...       0.18 
freq.     456.02  E(vib)   ...       0.16 
freq.     496.51  E(vib)   ...       0.14 
freq.     509.61  E(vib)   ...       0.14 
freq.     586.46  E(vib)   ...       0.11 
freq.     598.09  E(vib)   ...       0.10 
freq.     613.13  E(vib)   ...       0.10 
freq.     655.06  E(vib)   ...       0.08 
freq.     670.72  E(vib)   ...       0.08 
freq.     780.06  E(vib)   ...       0.05 
freq.     795.32  E(vib)   ...       0.05 
freq.     831.95  E(vib)   ...       0.04 
freq.     859.05  E(vib)   ...       0.04 
freq.     878.44  E(vib)   ...       0.04 
freq.     903.14  E(vib)   ...       0.03 
freq.     921.93  E(vib)   ...       0.03 
freq.     941.15  E(vib)   ...       0.03 
freq.     947.53  E(vib)   ...       0.03 
freq.     952.61  E(vib)   ...       0.03 
freq.     956.62  E(vib)   ...       0.03 
freq.     971.00  E(vib)   ...       0.03 
freq.    1014.69  E(vib)   ...       0.02 
freq.    1039.69  E(vib)   ...       0.02 
freq.    1055.90  E(vib)   ...       0.02 
freq.    1076.06  E(vib)   ...       0.02 
freq.    1111.05  E(vib)   ...       0.01 
freq.    1120.62  E(vib)   ...       0.01 
freq.    1128.97  E(vib)   ...       0.01 
freq.    1182.73  E(vib)   ...       0.01 
freq.    1185.15  E(vib)   ...       0.01 
freq.    1207.01  E(vib)   ...       0.01 
freq.    1213.71  E(vib)   ...       0.01 
freq.    1248.28  E(vib)   ...       0.01 
freq.    1258.05  E(vib)   ...       0.01 
freq.    1264.86  E(vib)   ...       0.01 
freq.    1276.47  E(vib)   ...       0.01 
freq.    1283.52  E(vib)   ...       0.01 
freq.    1297.44  E(vib)   ...       0.01 
freq.    1331.09  E(vib)   ...       0.01 
freq.    1336.18  E(vib)   ...       0.01 
freq.    1367.79  E(vib)   ...       0.01 
freq.    1404.33  E(vib)   ...       0.00 
freq.    1434.59  E(vib)   ...       0.00 
freq.    1435.00  E(vib)   ...       0.00 
freq.    1462.28  E(vib)   ...       0.00 
freq.    1505.09  E(vib)   ...       0.00 
freq.    1506.41  E(vib)   ...       0.00 
freq.    1510.56  E(vib)   ...       0.00 
freq.    1515.54  E(vib)   ...       0.00 
freq.    1518.17  E(vib)   ...       0.00 
freq.    1521.79  E(vib)   ...       0.00 
freq.    1565.26  E(vib)   ...       0.00 
freq.    2872.68  E(vib)   ...       0.00 
freq.    2892.65  E(vib)   ...       0.00 
freq.    2896.29  E(vib)   ...       0.00 
freq.    2903.12  E(vib)   ...       0.00 
freq.    2915.55  E(vib)   ...       0.00 
freq.    2919.58  E(vib)   ...       0.00 
freq.    2932.30  E(vib)   ...       0.00 
freq.    2935.81  E(vib)   ...       0.00 
freq.    2942.14  E(vib)   ...       0.00 
freq.    2970.82  E(vib)   ...       0.00 
freq.    2986.37  E(vib)   ...       0.00 
freq.    2990.83  E(vib)   ...       0.00 
freq.    2996.45  E(vib)   ...       0.00 
freq.    3004.22  E(vib)   ...       0.00 
freq.    3012.03  E(vib)   ...       0.00 
freq.    3134.63  E(vib)   ...       0.00 
freq.    3430.28  E(vib)   ...       0.00 

------------
INNER ENERGY
------------

The inner energy is: U= E(el) + E(ZPE) + E(vib) + E(rot) + E(trans)
    E(el)   - is the total energy from the electronic structure calculation
              = E(kin-el) + E(nuc-el) + E(el-el) + E(nuc-nuc)
    E(ZPE)  - the the zero temperature vibrational energy from the frequency calculation
    E(vib)  - the the finite temperature correction to E(ZPE) due to population
              of excited vibrational states
    E(rot)  - is the rotational thermal energy
    E(trans)- is the translational thermal energy

Summary of contributions to the inner energy U:
Electronic energy                ...    -39.12736913 Eh
Zero point energy                ...      0.25007371 Eh     156.92 kcal/mol
Thermal vibrational correction   ...      0.01077053 Eh       6.76 kcal/mol
Thermal rotational correction    ...      0.00141627 Eh       0.89 kcal/mol
Thermal translational correction ...      0.00141627 Eh       0.89 kcal/mol
-----------------------------------------------------------------------
Total thermal energy                    -38.86369235 Eh


Summary of corrections to the electronic energy:
(perhaps to be used in another calculation)
Total thermal correction                  0.01360307 Eh       8.54 kcal/mol
Non-thermal (ZPE) correction              0.25007371 Eh     156.92 kcal/mol
-----------------------------------------------------------------------
Total correction                          0.26367678 Eh     165.46 kcal/mol


--------
ENTHALPY
--------

The enthalpy is H = U + kB*T
                kB is Boltzmann's constant
Total free energy                 ...    -38.86369235 Eh 
Thermal Enthalpy correction       ...      0.00094421 Eh       0.59 kcal/mol
-----------------------------------------------------------------------
Total Enthalpy                    ...    -38.86274814 Eh


Note: Only C1 symmetry has been detected, increase convergence thresholds 
      if your molecule has a higher symmetry. Symmetry factor of 1.0 is   
      used for the rotational entropy correction. 
 

Note: Rotational entropy computed according to Herzberg 
Infrared and Raman Spectra, Chapter V,1, Van Nostrand Reinhold, 1945 
Point Group:  C1, Symmetry Number:   1  
Rotational constants in cm-1:     0.078032     0.009177     0.009019 

Vibrational entropy computed according to the QRRHO of S. Grimme
Chem.Eur.J. 2012 18 9955


-------
ENTROPY
-------

The entropy contributions are T*S = T*(S(el)+S(vib)+S(rot)+S(trans))
     S(el)   - electronic entropy
     S(vib)  - vibrational entropy
     S(rot)  - rotational entropy
     S(trans)- translational entropy
The entropies will be listed as mutliplied by the temperature to get
units of energy

Electronic entropy                ...      0.00000000 Eh      0.00 kcal/mol
Vibrational entropy               ...      0.01855140 Eh     11.64 kcal/mol
Rotational entropy                ...      0.01515235 Eh      9.51 kcal/mol
Translational entropy             ...      0.01969790 Eh     12.36 kcal/mol
-----------------------------------------------------------------------
Final entropy term                ...      0.05340165 Eh     33.51 kcal/mol

In case the symmetry of your molecule has not been determined correctly
or in case you have a reason to use a different symmetry number we print 
out the resulting rotational entropy values for sn=1,12 :
 --------------------------------------------------------
|  sn= 1 | S(rot)=       0.01515235 Eh      9.51 kcal/mol|
|  sn= 2 | S(rot)=       0.01449790 Eh      9.10 kcal/mol|
|  sn= 3 | S(rot)=       0.01411506 Eh      8.86 kcal/mol|
|  sn= 4 | S(rot)=       0.01384344 Eh      8.69 kcal/mol|
|  sn= 5 | S(rot)=       0.01363275 Eh      8.55 kcal/mol|
|  sn= 6 | S(rot)=       0.01346061 Eh      8.45 kcal/mol|
|  sn= 7 | S(rot)=       0.01331506 Eh      8.36 kcal/mol|
|  sn= 8 | S(rot)=       0.01318898 Eh      8.28 kcal/mol|
|  sn= 9 | S(rot)=       0.01307778 Eh      8.21 kcal/mol|
|  sn=10 | S(rot)=       0.01297830 Eh      8.14 kcal/mol|
|  sn=11 | S(rot)=       0.01288831 Eh      8.09 kcal/mol|
|  sn=12 | S(rot)=       0.01280615 Eh      8.04 kcal/mol|
 --------------------------------------------------------


-------------------
GIBBS FREE ENERGY
-------------------

The Gibbs free energy is G = H - T*S

Total enthalpy                    ...    -38.86274814 Eh 
Total entropy correction          ...     -0.05340165 Eh    -33.51 kcal/mol
-----------------------------------------------------------------------
Final Gibbs free energy         ...    -38.91614979 Eh

For completeness - the Gibbs free energy minus the electronic energy
G-E(el)                           ...      0.21121934 Eh    132.54 kcal/mol


Total Time for Numerical Frequencies  :       100.906 sec
Time for Reference State(s)           :         0.242 sec
Time for Displacements                :        94.717 sec

Timings for individual modules:

Sum of individual times         ...        0.411 sec (=   0.007 min)
XTB module                      ...        0.411 sec (=   0.007 min) 100.0 %
                             ****ORCA TERMINATED NORMALLY****
TOTAL RUN TIME: 0 days 0 hours 1 minutes 42 seconds 37 msec
