(SLURM) JOB ID:         708

                                 *****************
                                 * O   R   C   A *
                                 *****************

           --- An Ab Initio, DFT and Semiempirical electronic structure package ---

                  #######################################################
                  #                        -***-                        #
                  #          Department of theory and spectroscopy      #
                  #               Directorship: Frank Neese             #
                  #        Max Planck Institute fuer Kohlenforschung    #
                  #                Kaiser Wilhelm Platz 1               #
                  #                 D-45470 Muelheim/Ruhr               #
                  #                      Germany                        #
                  #                                                     #
                  #                  All rights reserved                #
                  #                        -***-                        #
                  #######################################################


                         Program Version 4.2.1 -  RELEASE  -


 With contributions from (in alphabetic order):
   Daniel Aravena         : Magnetic Suceptibility
   Michael Atanasov       : Ab Initio Ligand Field Theory (pilot matlab implementation)
   Alexander A. Auer      : GIAO ZORA, VPT2
   Ute Becker             : Parallelization
   Giovanni Bistoni       : ED, misc. LED, open-shell LED, HFLD
   Martin Brehm           : Molecular dynamics
   Dmytro Bykov           : SCF Hessian
   Vijay G. Chilkuri      : MRCI spin determinant printing, contributions to CSF-ICE
   Dipayan Datta          : RHF DLPNO-CCSD density
   Achintya Kumar Dutta   : EOM-CC, STEOM-CC
   Dmitry Ganyushin       : Spin-Orbit,Spin-Spin,Magnetic field MRCI
   Miquel Garcia          : C-PCM Hessian, Gaussian charge scheme
   Yang Guo               : DLPNO-NEVPT2, CIM, IAO-localization
   Andreas Hansen         : Spin unrestricted coupled pair/coupled cluster methods
   Benjamin Helmich-Paris : CASSCF linear response (MC-RPA)
   Lee Huntington         : MR-EOM, pCC
   Robert Izsak           : Overlap fitted RIJCOSX, COSX-SCS-MP3, EOM
   Christian Kollmar      : KDIIS, OOCD, Brueckner-CCSD(T), CCSD density
   Simone Kossmann        : Meta GGA functionals, TD-DFT gradient, OOMP2, MP2 Hessian
   Martin Krupicka        : AUTO-CI
   Lucas Lang             : DCDCAS
   Dagmar Lenk            : GEPOL surface, SMD
   Dimitrios Liakos       : Extrapolation schemes; Compound Job, initial MDCI parallelization
   Dimitrios Manganas     : Further ROCIS development; embedding schemes
   Dimitrios Pantazis     : SARC Basis sets
   Taras Petrenko         : DFT Hessian,TD-DFT gradient, ASA, ECA, R-Raman, ABS, FL, XAS/XES, NRVS
   Peter Pinski           : DLPNO-MP2, DLPNO-MP2 Gradient
   Christoph Reimann      : Effective Core Potentials
   Marius Retegan         : Local ZFS, SOC
   Christoph Riplinger    : Optimizer, TS searches, QM/MM, DLPNO-CCSD(T), (RO)-DLPNO pert. Triples
   Tobias Risthaus        : Range-separated hybrids, TD-DFT gradient, RPA, STAB
   Michael Roemelt        : Original ROCIS implementation
   Masaaki Saitow         : Open-shell DLPNO-CCSD energy and density
   Barbara Sandhoefer     : DKH picture change effects
   Avijit Sen             : IP-ROCIS
   Kantharuban Sivalingam : CASSCF convergence, NEVPT2, FIC-MRCI
   Bernardo de Souza      : ESD, SOC TD-DFT
   Georgi Stoychev        : AutoAux, RI-MP2 NMR
   Willem Van den Heuvel  : Paramagnetic NMR
   Boris Wezisla          : Elementary symmetry handling
   Frank Wennmohs         : Technical directorship


 We gratefully acknowledge several colleagues who have allowed us to
 interface, adapt or use parts of their codes:
   Stefan Grimme, W. Hujo, H. Kruse,             : VdW corrections, initial TS optimization,
                  C. Bannwarth                     DFT functionals, gCP, sTDA/sTD-DF
   Ed Valeev, F. Pavosevic, A. Kumar             : LibInt (2-el integral package), F12 methods
   Garnet Chan, S. Sharma, J. Yang, R. Olivares  : DMRG
   Ulf Ekstrom                                   : XCFun DFT Library
   Mihaly Kallay                                 : mrcc  (arbitrary order and MRCC methods)
   Andreas Klamt, Michael Diedenhofen            : otool_cosmo (COSMO solvation model)
   Jiri Pittner, Ondrej Demel                    : Mk-CCSD
   Frank Weinhold                                : gennbo (NPA and NBO analysis)
   Christopher J. Cramer and Donald G. Truhlar   : smd solvation model
   Lars Goerigk                                  : TD-DFT with DH, B97 family of functionals
   V. Asgeirsson, H. Jonsson                     : NEB implementation
   FAccTs GmbH                                   : IRC, NEB, NEB-TS, Multilevel, MM, QM/MM, CI optimization
   S Lehtola, MJT Oliveira, MAL Marques          : LibXC Library


 Your calculation uses the libint2 library for the computation of 2-el integrals
 For citations please refer to: http://libint.valeyev.net

 Your ORCA version has been built with support for libXC version: 4.2.3
 For citations please refer to: https://tddft.org/programs/libxc/

 This ORCA versions uses:
   CBLAS   interface :  Fast vector & matrix operations
   LAPACKE interface :  Fast linear algebra routines
   SCALAPACK package :  Parallel linear algebra routines




***************************************
The coordinates will be read from file: init.xyz
***************************************


Your calculation utilizes the SMD solvation module
Please cite in your paper:
A.V. Marenich, C.J. Cramer, D.G. Truhlar J. Phys. Chem. B, 113, (2009), 6378 

Your calculation utilizes the semiempirical GFN2-xTB method
Please cite in your paper:
C. Bannwarth, Ehlert S., S. Grimme,  J. Chem. Theory Comput., 15, (2019), 1652.
   

----- Orbital basis set information -----
Your calculation utilizes the basis: def2-SVP
   F. Weigend and R. Ahlrichs, Phys. Chem. Chem. Phys. 7, 3297 (2005).

================================================================================
                                        WARNINGS
                       Please study these warnings very carefully!
================================================================================

WARNING: Gradients needed for Numerical Frequencies
  ===> : Setting RunTyp to EnGrad

WARNING: The environment variable RSH_COMMAND is not set!
  ===> : All Displacements for the Numerical Hessian calculation
         will be started on localhost

WARNING: Found dipole moment calculation with XTB calculation
  ===> : Switching off dipole moment calculation


INFO   : the flag for use of LIBINT has been found!

================================================================================
                                       INPUT FILE
================================================================================
NAME = /tmp/slurm-scratch/freq.708/freq.inp
|  1> ! XTB2 NumFreq
|  2> %maxcore 1150
|  3> 
|  4> * xyzfile 0 1 init.xyz
|  5> 
|  6> %cpcm
|  7>  smd true
|  8>  smdsolvent "ch2cl2"
|  9> end
| 10> %pal nprocs 9 end
| 11> 
| 12>                          ****END OF INPUT****
================================================================================

                     *******************************
                     * Energy+Gradient Calculation *
                     *******************************

      -----------------------------------------------------------      
     |                   =====================                   |     
     |                           x T B                           |     
     |                   =====================                   |     
     |                         S. Grimme                         |     
     |          Mulliken Center for Theoretical Chemistry        |     
     |                    University of Bonn                     |     
      -----------------------------------------------------------      

   * xtb version 6.3.2 (30e43eb) compiled by 'schneider@apollo14' on 2020-08-08

   xtb is free software: you can redistribute it and/or modify it under
   the terms of the GNU Lesser General Public License as published by
   the Free Software Foundation, either version 3 of the License, or
   (at your option) any later version.
   
   xtb is distributed in the hope that it will be useful,
   but WITHOUT ANY WARRANTY; without even the implied warranty of
   MERCHANTABILITY or FITNESS FOR A PARTICULAR PURPOSE.  See the
   GNU Lesser General Public License for more details.
   
   Cite this work as:
   * S. Grimme, C. Bannwarth, P. Shushkov, J. Chem. Theory Comput., 2017,
     13, 1989-2009. DOI: 10.1021/acs.jctc.7b00118
   * C. Bannwarth, S. Ehlert and S. Grimme., J. Chem. Theory Comput., 2019,
     15, 1652-1671. DOI: 10.1021/acs.jctc.8b01176
   * P. Pracht, E. Caldeweyher, S. Ehlert, S. Grimme, ChemRxiv, 2019, preprint.
     DOI: 10.26434/chemrxiv.8326202.v1
   
   for GFN-FF:
   * S. Spicher and S. Grimme, Angew. Chem. Int. Ed., 2020,
     DOI: 10.1002/anie.202004239
   
   for DFT-D4:
   * E. Caldeweyher, C. Bannwarth and S. Grimme, J. Chem. Phys., 2017,
     147, 034112. DOI: 10.1063/1.4993215
   * E. Caldeweyher, S. Ehlert, A. Hansen, H. Neugebauer, S. Spicher,
     C. Bannwarth and S. Grimme, J. Chem. Phys., 2019, 150, 154122.
     DOI: 10.1063/1.5090222
   
   for sTDA-xTB:
   * S. Grimme and C. Bannwarth, J. Chem. Phys., 2016, 145, 054103.
     DOI: 10.1063/1.4959605
   
   in the mass-spec context:
   * V. Asgeirsson, C. Bauer and S. Grimme, Chem. Sci., 2017, 8, 4879.
     DOI: 10.1039/c7sc00601b
   * J. Koopman and S. Grimme, ACS Omega 2019, 4, 12, 15120-15133.
     DOI: 10.1021/acsomega.9b02011
   
   for metadynamics refer to:
   * S. Grimme, J. Chem. Theory Comput., 2019, 155, 2847-2862
     DOI: 10.1021/acs.jctc.9b00143
   
   with help from (in alphabetical order)
   C. Bannwarth, F. Bohle, G. Brandenburg, E. Caldeweyher, M. Checinski,
   S. Dohm, S. Ehlert, S. Ehrlich, F. März, H. Neugebauer, J. Pisarek,
   P. Pracht, P. Shushkov, and S. Spicher.
   
 * started run on 2021/03/01 at 08:50:24.129     

           -------------------------------------------------
          |                Calculation Setup                |
           -------------------------------------------------

          program call               : /opt/orca/otool_xtb /tmp/slurm-scratch/freq.708/freq_XTB.xyz --grad -c 0 -u 0 -P 9 --namespace /tmp/slurm-scratch/freq.708/freq --gbsa CH2Cl2
          hostname                   : apollo14
          calculation namespace      : /tmp/slurm-scratch/freq.708/freq
          coordinate file            : /tmp/slurm-scratch/freq.708/freq_XTB.xyz
          omp threads                :                     9
          number of atoms            :                    49
          number of electrons        :                   112
          charge                     :                     0
          spin                       :                   0.0
          first test random number   :      0.10604423558920

   ID    Z sym.   atoms
    1    6 C      1-7, 12, 14, 27, 33, 36, 39, 42, 46
    2    1 H      8-10, 13, 15-18, 20, 21, 23-26, 28, 29, 31, 32, 34, 35, 37,
                  38, 40, 41, 43-45, 47-49
    3    7 N      11, 30
    4    8 O      19, 22

molecular fragmentation (1/2 indicates fragments):
1111111111111111111112221111122222222222222221111
# atoms in fragment 1/2:    30    19
 fragment masses (1/2) :      179.26       91.15
CMA distance (Bohr)    :   9.442
constraining FC (au)   :  0.0500
########################################################################
[WARNING] Please study the warnings concerning your input carefully
-1- prog_main_parseArguments: Process number higher than OMP_NUM_THREADS, I hope you know what you are doing.
########################################################################

           -------------------------------------------------
          |                 G F N 2 - x T B                 |
           -------------------------------------------------

        Reference                      10.1021/acs.jctc.8b01176
      * Hamiltonian:
        H0-scaling (s, p, d)           1.850000    2.230000    2.230000
        zeta-weighting                 0.500000
      * Dispersion:
        s8                             2.700000
        a1                             0.520000
        a2                             5.000000
        s9                             5.000000
      * Repulsion:
        kExp                           1.500000    1.000000
        rExp                           1.000000
      * Coulomb:
        alpha                          2.000000
        third order                    shell-resolved
        anisotropic                    true
        a3                             3.000000
        a5                             4.000000
        cn-shift                       1.200000
        cn-exp                         4.000000
        max-rad                        5.000000

      * Solvation model:               GBSA
        Solvent                        CH2Cl2
        Parameter file                 internal GFN2-xTB/GBSA
        Dielectric constant                8.9300E+00
        Reference state                gsolv [1 M gas/solution]
        Free energy shift                  4.4408E-03 Eh       2.7867E+00 kcal/mol
        Temperature                        2.9815E+02 K
        Density                            1.3300E+00 kg/L
        Solvent mass                       8.4930E+01 g/mol
        Interaction kernel             Still
        Born radius scaling (c1)           1.4917E+00
        Born radii integrator          GBOBC
        Born offset                        0.0000E+00 a0       0.0000E+00 AA
        H-bond correction              false
        Ion screening                  false
        Surface tension                    1.0000E-05 Eh       1.5569E+01 dyn/cm
        Grid points                               230 per atom

          ...................................................
          :                      SETUP                      :
          :.................................................:
          :  # basis functions                 106          :
          :  # atomic orbitals                 106          :
          :  # shells                           68          :
          :  # electrons                       112          :
          :  max. iterations                   250          :
          :  Hamiltonian                  GFN2-xTB          :
          :  restarted?                      false          :
          :  GBSA solvation                   true          :
          :  PC potential                    false          :
          :  electronic temp.          300.0000000     K    :
          :  accuracy                    1.0000000          :
          :  -> integral cutoff          0.2500000E+02      :
          :  -> integral neglect         0.1000000E-07      :
          :  -> SCF convergence          0.1000000E-05 Eh   :
          :  -> wf. convergence          0.1000000E-03 e    :
          :  Broyden damping             0.4000000          :
          ...................................................

 iter      E             dE          RMSdq      gap      omega  full diag
   1    -62.1106946 -0.621107E+02  0.326E+00    3.73       0.0  T
   2    -62.1765427 -0.658480E-01  0.182E+00    3.74       1.0  T
   3    -62.1771058 -0.563162E-03  0.649E-01    3.57       1.0  T
   4    -62.1783717 -0.126586E-02  0.230E-01    3.57       1.0  T
   5    -62.1807216 -0.234992E-02  0.678E-02    3.55       1.0  T
   6    -62.1807612 -0.395543E-04  0.276E-02    3.56       1.0  T
   7    -62.1807627 -0.157852E-05  0.108E-02    3.56       1.3  T
   8    -62.1807648 -0.206131E-05  0.352E-03    3.56       4.1  T
   9    -62.1807651 -0.247876E-06  0.155E-03    3.56       9.2  T
  10    -62.1807651 -0.621774E-08  0.581E-04    3.56      24.6  T
  11    -62.1807651 -0.522289E-08  0.225E-04    3.56      63.4  T

   *** convergence criteria satisfied after 11 iterations ***

         #    Occupation            Energy/Eh            Energy/eV
      -------------------------------------------------------------
         1        2.0000           -0.6943993             -18.8956
       ...           ...                  ...                  ...
        50        2.0000           -0.4248959             -11.5620
        51        2.0000           -0.4203139             -11.4373
        52        2.0000           -0.4182522             -11.3812
        53        2.0000           -0.4058259             -11.0431
        54        2.0000           -0.4036119             -10.9828
        55        2.0000           -0.3791254             -10.3165
        56        2.0000           -0.3649023              -9.9295 (HOMO)
        57                         -0.2339942              -6.3673 (LUMO)
        58                         -0.2301984              -6.2640
        59                         -0.1105537              -3.0083
        60                         -0.0360463              -0.9809
        61                          0.0015934               0.0434
       ...                                ...                  ...
       106                          0.6165555              16.7773
      -------------------------------------------------------------
                  HL-Gap            0.1309081 Eh            3.5622 eV
             Fermi-level           -0.2994483 Eh           -8.1484 eV

 SCC (total)                   0 d,  0 h,  0 min,  0.168 sec
 SCC setup                      ...        0 min,  0.007 sec (  3.956%)
 Dispersion                     ...        0 min,  0.005 sec (  2.833%)
 classical contributions        ...        0 min,  0.004 sec (  2.345%)
 integral evaluation            ...        0 min,  0.021 sec ( 12.342%)
 iterations                     ...        0 min,  0.054 sec ( 32.188%)
 molecular gradient             ...        0 min,  0.078 sec ( 46.138%)
 printout                       ...        0 min,  0.000 sec (  0.184%)

         :::::::::::::::::::::::::::::::::::::::::::::::::::::
         ::                     SUMMARY                     ::
         :::::::::::::::::::::::::::::::::::::::::::::::::::::
         :: total energy             -61.395748070745 Eh    ::
         :: total w/o Gsasa/hb       -61.370422433595 Eh    ::
         :: gradient norm              0.055347415155 Eh/a0 ::
         :: HOMO-LUMO gap              3.562189978254 eV    ::
         ::.................................................::
         :: SCC energy               -62.180765061978 Eh    ::
         :: -> isotropic ES            0.091288703778 Eh    ::
         :: -> anisotropic ES          0.004413283908 Eh    ::
         :: -> anisotropic XC          0.036524574766 Eh    ::
         :: -> dispersion             -0.038564711668 Eh    ::
         :: -> Gsolv                  -0.032829141017 Eh    ::
         ::    -> Gborn               -0.007503503867 Eh    ::
         ::    -> Gsasa               -0.029766466323 Eh    ::
         ::    -> Ghb                  0.000000000000 Eh    ::
         ::    -> Gshift               0.004440829173 Eh    ::
         :: repulsion energy           0.784508886169 Eh    ::
         :: add. restraining           0.000000000000 Eh    ::
         :: total charge               0.000000000000 e     ::
         :::::::::::::::::::::::::::::::::::::::::::::::::::::

           -------------------------------------------------
          |                Property Printout                |
           -------------------------------------------------

    * Orbital Energies and Occupations

         #    Occupation            Energy/Eh            Energy/eV
      -------------------------------------------------------------
         1        2.0000           -0.6943993             -18.8956
       ...           ...                  ...                  ...
        44        2.0000           -0.4411355             -12.0039
        45        2.0000           -0.4380321             -11.9195
        46        2.0000           -0.4372713             -11.8988
        47        2.0000           -0.4354450             -11.8491
        48        2.0000           -0.4338242             -11.8050
        49        2.0000           -0.4252216             -11.5709
        50        2.0000           -0.4248959             -11.5620
        51        2.0000           -0.4203139             -11.4373
        52        2.0000           -0.4182522             -11.3812
        53        2.0000           -0.4058259             -11.0431
        54        2.0000           -0.4036119             -10.9828
        55        2.0000           -0.3791254             -10.3165
        56        2.0000           -0.3649023              -9.9295 (HOMO)
        57                         -0.2339942              -6.3673 (LUMO)
        58                         -0.2301984              -6.2640
        59                         -0.1105537              -3.0083
        60                         -0.0360463              -0.9809
        61                          0.0015934               0.0434
        62                          0.0149970               0.4081
        63                          0.0456924               1.2434
        64                          0.0728453               1.9822
        65                          0.0798753               2.1735
        66                          0.0902823               2.4567
        67                          0.0953656               2.5950
       ...                                ...                  ...
       106                          0.6165555              16.7773
      -------------------------------------------------------------
                  HL-Gap            0.1309081 Eh            3.5622 eV
             Fermi-level           -0.2994483 Eh           -8.1484 eV

     #   Z          covCN         q      C6AA      α(0)
     1   6 C        2.961    -0.012    28.313     8.728
     2   6 C        2.911    -0.034    28.847     8.807
     3   6 C        2.908    -0.031    28.770     8.795
     4   6 C        2.908    -0.030    28.748     8.792
     5   6 C        2.908    -0.029    28.716     8.787
     6   6 C        2.912    -0.036    28.897     8.815
     7   6 C        3.652     0.169    18.160     6.120
     8   1 H        0.925     0.045     2.377     2.411
     9   1 H        0.925     0.038     2.469     2.457
    10   1 H        0.925     0.042     2.427     2.436
    11   7 N        2.679    -0.282    27.277     7.757
    12   6 C        3.734     0.016    20.392     6.445
    13   1 H        0.859     0.188     1.171     1.695
    14   6 C        3.797    -0.069    21.831     6.653
    15   1 H        0.923     0.032     2.557     2.501
    16   1 H        0.922     0.014     2.822     2.627
    17   1 H        0.923     0.040     2.444     2.445
    18   1 H        0.923     0.043     2.409     2.427
    19   8 O        1.636    -0.514    23.203     6.502
    20   1 H        0.923     0.027     2.626     2.534
    21   1 H        0.803     0.295     0.737     1.348
    22   8 O        1.604    -0.622    25.730     6.846
    23   1 H        0.801     0.317     0.674     1.290
    24   1 H        0.803     0.284     0.772     1.380
    25   1 H        0.925     0.043     2.406     2.426
    26   1 H        0.925     0.039     2.458     2.452
    27   6 C        3.795    -0.052    21.507     6.604
    28   1 H        0.923     0.029     2.598     2.521
    29   1 H        0.923     0.031     2.567     2.506
    30   7 N        2.625    -0.376    29.727     8.098
    31   1 H        0.859     0.168     1.287     1.777
    32   1 H        0.859     0.138     1.488     1.911
    33   6 C        3.727     0.015    20.424     6.452
    34   1 H        0.923     0.032     2.552     2.498
    35   1 H        0.923     0.031     2.577     2.511
    36   6 C        3.795    -0.066    21.763     6.643
    37   1 H        0.923     0.029     2.595     2.519
    38   1 H        0.923     0.028     2.620     2.531
    39   6 C        3.795    -0.053    21.532     6.608
    40   1 H        0.923     0.031     2.580     2.512
    41   1 H        0.923     0.031     2.574     2.509
    42   6 C        3.745    -0.100    22.474     6.762
    43   1 H        0.923     0.033     2.538     2.491
    44   1 H        0.923     0.036     2.504     2.475
    45   1 H        0.923     0.034     2.535     2.490
    46   6 C        3.745    -0.102    22.511     6.768
    47   1 H        0.923     0.035     2.514     2.479
    48   1 H        0.923     0.036     2.498     2.472
    49   1 H        0.923     0.036     2.501     2.473

 Mol. C6AA /au·bohr⁶  :      19043.755765
 Mol. C8AA /au·bohr⁸  :     412680.791421
 Mol. α(0) /au        :        210.085638


Wiberg/Mayer (AO) data.
largest (>0.10) Wiberg bond orders for each atom

 ---------------------------------------------------------------------------
     #   Z sym  total        # sym  WBO       # sym  WBO       # sym  WBO
 ---------------------------------------------------------------------------
     1   6 C    3.984 --     2 C    1.416     6 C    1.413     7 C    0.982
                             4 C    0.110
     2   6 C    3.990 --     3 C    1.442     1 C    1.416     8 H    0.966
                             5 C    0.112
     3   6 C    3.990 --     2 C    1.442     4 C    1.439    26 H    0.971
                             6 C    0.112
     4   6 C    3.990 --     3 C    1.439     5 C    1.438    10 H    0.971
                             1 C    0.110
     5   6 C    3.990 --     6 C    1.444     4 C    1.438    25 H    0.970
                             2 C    0.112
     6   6 C    3.989 --     5 C    1.444     1 C    1.413     9 H    0.968
                             3 C    0.112
     7   6 C    3.943 --    11 N    1.070     1 C    0.982    20 H    0.956
                            19 O    0.880
     8   1 H    0.998 --     2 C    0.966
     9   1 H    0.999 --     6 C    0.968
    10   1 H    0.998 --     4 C    0.971
    11   7 N    3.125 --     7 C    1.070    12 C    0.997    13 H    0.909
    12   6 C    3.980 --    14 C    1.003    11 N    0.997    15 H    0.974
                            16 H    0.970
    13   1 H    0.965 --    11 N    0.909
    14   6 C    3.993 --    27 C    1.007    12 C    1.003    18 H    0.977
                            17 H    0.974
    15   1 H    0.999 --    12 C    0.974
    16   1 H    1.000 --    12 C    0.970
    17   1 H    0.998 --    14 C    0.974
    18   1 H    0.998 --    14 C    0.977
    19   8 O    1.945 --    21 H    0.898     7 C    0.880
    20   1 H    0.999 --     7 C    0.956
    21   1 H    0.913 --    19 O    0.898
    22   8 O    1.823 --    24 H    0.918    23 H    0.848
    23   1 H    0.900 --    22 O    0.848
    24   1 H    0.919 --    22 O    0.918
    25   1 H    0.998 --     5 C    0.970
    26   1 H    0.998 --     3 C    0.971
    27   6 C    3.996 --    46 C    1.019    14 C    1.007    29 H    0.978
                            28 H    0.978
    28   1 H    0.999 --    27 C    0.978
    29   1 H    0.999 --    27 C    0.978
    30   7 N    3.030 --    33 C    1.019    32 H    0.968    31 H    0.942
    31   1 H    0.972 --    30 N    0.942
    32   1 H    0.981 --    30 N    0.968
    33   6 C    3.983 --    30 N    1.019    36 C    0.996    35 H    0.976
                            34 H    0.975
    34   1 H    0.999 --    33 C    0.975
    35   1 H    0.999 --    33 C    0.976
    36   6 C    3.996 --    39 C    1.006    33 C    0.996    37 H    0.977
                            38 H    0.977
    37   1 H    0.999 --    36 C    0.977
    38   1 H    0.999 --    36 C    0.977
    39   6 C    3.996 --    42 C    1.019    36 C    1.006    40 H    0.978
                            41 H    0.978
    40   1 H    0.999 --    39 C    0.978
    41   1 H    0.999 --    39 C    0.978
    42   6 C    3.996 --    39 C    1.019    43 H    0.988    45 H    0.988
                            44 H    0.987
    43   1 H    0.999 --    42 C    0.988
    44   1 H    0.998 --    42 C    0.987
    45   1 H    0.999 --    42 C    0.988
    46   6 C    3.996 --    27 C    1.019    47 H    0.988    49 H    0.988
                            48 H    0.987
    47   1 H    0.999 --    46 C    0.988
    48   1 H    0.998 --    46 C    0.987
    49   1 H    0.999 --    46 C    0.988
 ---------------------------------------------------------------------------

Topologies differ in total number of bonds
Writing topology from bond orders to xtbtopo.mol

molecular dipole:
                 x           y           z       tot (Debye)
 q only:        0.244      -0.511      -0.104
   full:        0.174      -0.047      -0.182       0.651
molecular quadrupole (traceless):
                xx          xy          yy          xz          yz          zz
 q only:        7.484       3.817      -7.776       2.099      -0.216       0.292
  q+dip:        7.216      -1.672     -11.690       0.533      -1.108       4.474
   full:        8.143       0.681     -11.221       0.170      -2.242       3.078


           -------------------------------------------------
          | TOTAL ENERGY              -61.395748070745 Eh   |
          | GRADIENT NORM               0.055347415155 Eh/α |
          | HOMO-LUMO GAP               3.562189978254 eV   |
           -------------------------------------------------

------------------------------------------------------------------------
 * finished run on 2021/03/01 at 08:50:24.362     
------------------------------------------------------------------------
 total:
 * wall-time:     0 d,  0 h,  0 min,  0.233 sec
 *  cpu-time:     0 d,  0 h,  0 min,  2.715 sec
 * ratio c/w:    11.660 speedup
 SCF:
 * wall-time:     0 d,  0 h,  0 min,  0.176 sec
 *  cpu-time:     0 d,  0 h,  0 min,  2.057 sec
 * ratio c/w:    11.709 speedup


-------------------------   --------------------
FINAL SINGLE POINT ENERGY       -61.395748070740
-------------------------   --------------------


----------------------------------------------------------------------------
                           ORCA NUMERICAL FREQUENCIES
                              (9-process run)
----------------------------------------------------------------------------

Number of atoms                ... 49
Central differences            ... used
Number of displacements        ... 294
Numerical increment            ... 5.000e-03 bohr
IR-spectrum generation         ... on
Raman-spectrum generation      ... off
Surface Crossing Hessian       ... off
List of participating nodes    ...  /tmp/slurm-scratch/freq.708/freq.hostnames

The output will be reduced. Please look at the following files:
SCF program output             ... >/tmp/slurm-scratch/freq.708/freq.lastscf
Integral program output        ... >/tmp/slurm-scratch/freq.708/freq.lastint
Gradient program output        ... >/tmp/slurm-scratch/freq.708/freq.lastgrad
Dipole moment program output   ... >/tmp/slurm-scratch/freq.708/freq.lastmom
AutoCI program output          ... >/tmp/slurm-scratch/freq.708/freq.lastautoci


         <<< Energy and Gradient at the input geometry >>>

        <<< Energy and Gradient at displaced geometries >>>
             <<<Displacing   1/coordinate 3 (+)>>>
             <<<Displacing   2/coordinate 3 (+)>>>
             <<<Displacing   1/coordinate 3 (-)>>>
             <<<Displacing   2/coordinate 1 (+)>>>
             <<<Displacing   3/coordinate 1 (+)>>>
             <<<Displacing   2/coordinate 1 (-)>>>
             <<<Displacing   2/coordinate 3 (-)>>>
             <<<Displacing   3/coordinate 2 (+)>>>
             <<<Displacing   3/coordinate 1 (-)>>>
             <<<Displacing   1/coordinate 1 (+)>>>
             <<<Displacing   3/coordinate 2 (-)>>>
             <<<Displacing   3/coordinate 3 (+)>>>
             <<<Displacing   1/coordinate 2 (+)>>>
             <<<Displacing   2/coordinate 2 (+)>>>
             <<<Displacing   1/coordinate 1 (-)>>>
             <<<Displacing   3/coordinate 3 (-)>>>
             <<<Displacing   1/coordinate 2 (-)>>>
             <<<Displacing   2/coordinate 2 (-)>>>
             <<<Displacing   4/coordinate 1 (+)>>>
             <<<Displacing   4/coordinate 3 (+)>>>
             <<<Displacing   4/coordinate 1 (-)>>>
             <<<Displacing   4/coordinate 3 (-)>>>
             <<<Displacing   5/coordinate 3 (+)>>>
             <<<Displacing   5/coordinate 2 (+)>>>
             <<<Displacing   5/coordinate 1 (+)>>>
             <<<Displacing   4/coordinate 2 (+)>>>
             <<<Displacing   5/coordinate 3 (-)>>>
             <<<Displacing   5/coordinate 1 (-)>>>
             <<<Displacing   5/coordinate 2 (-)>>>
             <<<Displacing   4/coordinate 2 (-)>>>
             <<<Displacing   6/coordinate 1 (+)>>>
             <<<Displacing   6/coordinate 3 (+)>>>
             <<<Displacing   6/coordinate 3 (-)>>>
             <<<Displacing   6/coordinate 1 (-)>>>
             <<<Displacing   6/coordinate 2 (+)>>>
             <<<Displacing   6/coordinate 2 (-)>>>
             <<<Displacing   7/coordinate 1 (+)>>>
             <<<Displacing   7/coordinate 2 (+)>>>
             <<<Displacing   7/coordinate 1 (-)>>>
             <<<Displacing   7/coordinate 2 (-)>>>
             <<<Displacing   8/coordinate 1 (+)>>>
             <<<Displacing   9/coordinate 1 (+)>>>
             <<<Displacing   7/coordinate 3 (+)>>>
             <<<Displacing   8/coordinate 1 (-)>>>
             <<<Displacing   9/coordinate 1 (-)>>>
             <<<Displacing   7/coordinate 3 (-)>>>
             <<<Displacing   8/coordinate 2 (+)>>>
             <<<Displacing   9/coordinate 2 (+)>>>
             <<<Displacing   9/coordinate 2 (-)>>>
             <<<Displacing   8/coordinate 2 (-)>>>
             <<<Displacing   8/coordinate 3 (+)>>>
             <<<Displacing   9/coordinate 3 (+)>>>
             <<<Displacing   8/coordinate 3 (-)>>>
             <<<Displacing   9/coordinate 3 (-)>>>
             <<<Displacing  10/coordinate 1 (+)>>>
             <<<Displacing  10/coordinate 2 (+)>>>
             <<<Displacing  10/coordinate 1 (-)>>>
             <<<Displacing  10/coordinate 2 (-)>>>
             <<<Displacing  11/coordinate 3 (+)>>>
             <<<Displacing  10/coordinate 3 (+)>>>
             <<<Displacing  11/coordinate 2 (+)>>>
             <<<Displacing  10/coordinate 3 (-)>>>
             <<<Displacing  11/coordinate 3 (-)>>>
             <<<Displacing  11/coordinate 1 (+)>>>
             <<<Displacing  11/coordinate 2 (-)>>>
             <<<Displacing  11/coordinate 1 (-)>>>
             <<<Displacing  12/coordinate 2 (+)>>>
             <<<Displacing  12/coordinate 1 (+)>>>
             <<<Displacing  12/coordinate 2 (-)>>>
             <<<Displacing  12/coordinate 1 (-)>>>
             <<<Displacing  12/coordinate 3 (+)>>>
             <<<Displacing  12/coordinate 3 (-)>>>
             <<<Displacing  13/coordinate 1 (+)>>>
             <<<Displacing  13/coordinate 1 (-)>>>
             <<<Displacing  14/coordinate 2 (+)>>>
             <<<Displacing  13/coordinate 3 (+)>>>
             <<<Displacing  13/coordinate 2 (+)>>>
             <<<Displacing  14/coordinate 2 (-)>>>
             <<<Displacing  14/coordinate 1 (+)>>>
             <<<Displacing  13/coordinate 3 (-)>>>
             <<<Displacing  13/coordinate 2 (-)>>>
             <<<Displacing  14/coordinate 1 (-)>>>
             <<<Displacing  14/coordinate 3 (+)>>>
             <<<Displacing  14/coordinate 3 (-)>>>
             <<<Displacing  15/coordinate 1 (+)>>>
             <<<Displacing  15/coordinate 1 (-)>>>
             <<<Displacing  15/coordinate 3 (+)>>>
             <<<Displacing  15/coordinate 3 (-)>>>
             <<<Displacing  15/coordinate 2 (+)>>>
             <<<Displacing  15/coordinate 2 (-)>>>
             <<<Displacing  16/coordinate 2 (+)>>>
             <<<Displacing  17/coordinate 1 (+)>>>
             <<<Displacing  16/coordinate 1 (+)>>>
             <<<Displacing  16/coordinate 2 (-)>>>
             <<<Displacing  17/coordinate 1 (-)>>>
             <<<Displacing  16/coordinate 1 (-)>>>
             <<<Displacing  16/coordinate 3 (+)>>>
             <<<Displacing  17/coordinate 2 (+)>>>
             <<<Displacing  17/coordinate 2 (-)>>>
             <<<Displacing  16/coordinate 3 (-)>>>
             <<<Displacing  18/coordinate 1 (+)>>>
             <<<Displacing  18/coordinate 1 (-)>>>
             <<<Displacing  17/coordinate 3 (+)>>>
             <<<Displacing  17/coordinate 3 (-)>>>
             <<<Displacing  18/coordinate 2 (+)>>>
             <<<Displacing  18/coordinate 3 (+)>>>
             <<<Displacing  18/coordinate 2 (-)>>>
             <<<Displacing  18/coordinate 3 (-)>>>
             <<<Displacing  19/coordinate 1 (+)>>>
             <<<Displacing  19/coordinate 3 (+)>>>
             <<<Displacing  19/coordinate 1 (-)>>>
             <<<Displacing  19/coordinate 2 (+)>>>
             <<<Displacing  19/coordinate 3 (-)>>>
             <<<Displacing  19/coordinate 2 (-)>>>
             <<<Displacing  20/coordinate 2 (+)>>>
             <<<Displacing  20/coordinate 3 (+)>>>
             <<<Displacing  20/coordinate 1 (+)>>>
             <<<Displacing  20/coordinate 3 (-)>>>
             <<<Displacing  20/coordinate 1 (-)>>>
             <<<Displacing  21/coordinate 1 (+)>>>
             <<<Displacing  20/coordinate 2 (-)>>>
             <<<Displacing  21/coordinate 1 (-)>>>
             <<<Displacing  21/coordinate 2 (+)>>>
             <<<Displacing  21/coordinate 2 (-)>>>
             <<<Displacing  21/coordinate 3 (+)>>>
             <<<Displacing  21/coordinate 3 (-)>>>
             <<<Displacing  22/coordinate 2 (+)>>>
             <<<Displacing  22/coordinate 2 (-)>>>
             <<<Displacing  23/coordinate 1 (+)>>>
             <<<Displacing  22/coordinate 1 (+)>>>
             <<<Displacing  22/coordinate 3 (+)>>>
             <<<Displacing  22/coordinate 1 (-)>>>
             <<<Displacing  23/coordinate 1 (-)>>>
             <<<Displacing  22/coordinate 3 (-)>>>
             <<<Displacing  23/coordinate 2 (+)>>>
             <<<Displacing  23/coordinate 3 (+)>>>
             <<<Displacing  23/coordinate 2 (-)>>>
             <<<Displacing  24/coordinate 2 (+)>>>
             <<<Displacing  24/coordinate 1 (+)>>>
             <<<Displacing  23/coordinate 3 (-)>>>
             <<<Displacing  24/coordinate 2 (-)>>>
             <<<Displacing  24/coordinate 1 (-)>>>
             <<<Displacing  24/coordinate 3 (+)>>>
             <<<Displacing  24/coordinate 3 (-)>>>
             <<<Displacing  25/coordinate 1 (+)>>>
             <<<Displacing  25/coordinate 3 (+)>>>
             <<<Displacing  26/coordinate 2 (+)>>>
             <<<Displacing  25/coordinate 1 (-)>>>
             <<<Displacing  25/coordinate 3 (-)>>>
             <<<Displacing  25/coordinate 2 (+)>>>
             <<<Displacing  26/coordinate 2 (-)>>>
             <<<Displacing  25/coordinate 2 (-)>>>
             <<<Displacing  26/coordinate 1 (+)>>>
             <<<Displacing  26/coordinate 3 (+)>>>
             <<<Displacing  26/coordinate 1 (-)>>>
             <<<Displacing  27/coordinate 1 (+)>>>
             <<<Displacing  26/coordinate 3 (-)>>>
             <<<Displacing  27/coordinate 1 (-)>>>
             <<<Displacing  27/coordinate 2 (+)>>>
             <<<Displacing  27/coordinate 3 (+)>>>
             <<<Displacing  27/coordinate 2 (-)>>>
             <<<Displacing  27/coordinate 3 (-)>>>
             <<<Displacing  28/coordinate 1 (+)>>>
             <<<Displacing  28/coordinate 2 (+)>>>
             <<<Displacing  29/coordinate 2 (+)>>>
             <<<Displacing  28/coordinate 3 (+)>>>
             <<<Displacing  28/coordinate 2 (-)>>>
             <<<Displacing  29/coordinate 3 (+)>>>
             <<<Displacing  28/coordinate 1 (-)>>>
             <<<Displacing  29/coordinate 2 (-)>>>
             <<<Displacing  28/coordinate 3 (-)>>>
             <<<Displacing  29/coordinate 3 (-)>>>
             <<<Displacing  29/coordinate 1 (+)>>>
             <<<Displacing  29/coordinate 1 (-)>>>
             <<<Displacing  30/coordinate 1 (+)>>>
             <<<Displacing  30/coordinate 1 (-)>>>
             <<<Displacing  30/coordinate 2 (+)>>>
             <<<Displacing  30/coordinate 2 (-)>>>
             <<<Displacing  30/coordinate 3 (+)>>>
             <<<Displacing  30/coordinate 3 (-)>>>
             <<<Displacing  31/coordinate 3 (+)>>>
             <<<Displacing  32/coordinate 2 (+)>>>
             <<<Displacing  31/coordinate 3 (-)>>>
             <<<Displacing  31/coordinate 1 (+)>>>
             <<<Displacing  32/coordinate 2 (-)>>>
             <<<Displacing  31/coordinate 1 (-)>>>
             <<<Displacing  32/coordinate 1 (+)>>>
             <<<Displacing  31/coordinate 2 (+)>>>
             <<<Displacing  32/coordinate 1 (-)>>>
             <<<Displacing  33/coordinate 1 (+)>>>
             <<<Displacing  33/coordinate 1 (-)>>>
             <<<Displacing  32/coordinate 3 (+)>>>
             <<<Displacing  31/coordinate 2 (-)>>>
             <<<Displacing  32/coordinate 3 (-)>>>
             <<<Displacing  33/coordinate 2 (+)>>>
             <<<Displacing  33/coordinate 2 (-)>>>
             <<<Displacing  33/coordinate 3 (+)>>>
             <<<Displacing  33/coordinate 3 (-)>>>
             <<<Displacing  35/coordinate 2 (+)>>>
             <<<Displacing  34/coordinate 3 (+)>>>
             <<<Displacing  35/coordinate 2 (-)>>>
             <<<Displacing  34/coordinate 2 (+)>>>
             <<<Displacing  35/coordinate 3 (+)>>>
             <<<Displacing  34/coordinate 1 (+)>>>
             <<<Displacing  34/coordinate 3 (-)>>>
             <<<Displacing  35/coordinate 1 (+)>>>
             <<<Displacing  34/coordinate 2 (-)>>>
             <<<Displacing  34/coordinate 1 (-)>>>
             <<<Displacing  35/coordinate 3 (-)>>>
             <<<Displacing  35/coordinate 1 (-)>>>
             <<<Displacing  36/coordinate 1 (+)>>>
             <<<Displacing  36/coordinate 1 (-)>>>
             <<<Displacing  36/coordinate 2 (+)>>>
             <<<Displacing  36/coordinate 2 (-)>>>
             <<<Displacing  36/coordinate 3 (+)>>>
             <<<Displacing  36/coordinate 3 (-)>>>
             <<<Displacing  37/coordinate 1 (+)>>>
             <<<Displacing  37/coordinate 1 (-)>>>
             <<<Displacing  37/coordinate 3 (+)>>>
             <<<Displacing  38/coordinate 3 (+)>>>
             <<<Displacing  38/coordinate 2 (+)>>>
             <<<Displacing  37/coordinate 3 (-)>>>
             <<<Displacing  38/coordinate 3 (-)>>>
             <<<Displacing  38/coordinate 1 (+)>>>
             <<<Displacing  38/coordinate 2 (-)>>>
             <<<Displacing  37/coordinate 2 (+)>>>
             <<<Displacing  38/coordinate 1 (-)>>>
             <<<Displacing  37/coordinate 2 (-)>>>
             <<<Displacing  39/coordinate 1 (+)>>>
             <<<Displacing  39/coordinate 1 (-)>>>
             <<<Displacing  39/coordinate 2 (+)>>>
             <<<Displacing  39/coordinate 2 (-)>>>
             <<<Displacing  39/coordinate 3 (+)>>>
             <<<Displacing  40/coordinate 3 (+)>>>
             <<<Displacing  40/coordinate 1 (+)>>>
             <<<Displacing  39/coordinate 3 (-)>>>
             <<<Displacing  40/coordinate 3 (-)>>>
             <<<Displacing  40/coordinate 1 (-)>>>
             <<<Displacing  40/coordinate 2 (+)>>>
             <<<Displacing  40/coordinate 2 (-)>>>
             <<<Displacing  41/coordinate 1 (+)>>>
             <<<Displacing  41/coordinate 2 (+)>>>
             <<<Displacing  41/coordinate 1 (-)>>>
             <<<Displacing  41/coordinate 3 (+)>>>
             <<<Displacing  41/coordinate 2 (-)>>>
             <<<Displacing  42/coordinate 1 (+)>>>
             <<<Displacing  41/coordinate 3 (-)>>>
             <<<Displacing  42/coordinate 1 (-)>>>
             <<<Displacing  42/coordinate 2 (+)>>>
             <<<Displacing  42/coordinate 2 (-)>>>
             <<<Displacing  43/coordinate 1 (+)>>>
             <<<Displacing  43/coordinate 2 (+)>>>
             <<<Displacing  43/coordinate 1 (-)>>>
             <<<Displacing  42/coordinate 3 (+)>>>
             <<<Displacing  43/coordinate 2 (-)>>>
             <<<Displacing  42/coordinate 3 (-)>>>
             <<<Displacing  43/coordinate 3 (+)>>>
             <<<Displacing  43/coordinate 3 (-)>>>
             <<<Displacing  44/coordinate 3 (+)>>>
             <<<Displacing  44/coordinate 2 (+)>>>
             <<<Displacing  44/coordinate 1 (+)>>>
             <<<Displacing  44/coordinate 2 (-)>>>
             <<<Displacing  45/coordinate 1 (+)>>>
             <<<Displacing  44/coordinate 3 (-)>>>
             <<<Displacing  44/coordinate 1 (-)>>>
             <<<Displacing  45/coordinate 1 (-)>>>
             <<<Displacing  45/coordinate 2 (+)>>>
             <<<Displacing  45/coordinate 3 (+)>>>
             <<<Displacing  45/coordinate 3 (-)>>>
             <<<Displacing  46/coordinate 1 (+)>>>
             <<<Displacing  45/coordinate 2 (-)>>>
             <<<Displacing  46/coordinate 1 (-)>>>
             <<<Displacing  46/coordinate 2 (+)>>>
             <<<Displacing  46/coordinate 2 (-)>>>
             <<<Displacing  47/coordinate 1 (+)>>>
             <<<Displacing  47/coordinate 1 (-)>>>
             <<<Displacing  47/coordinate 3 (+)>>>
             <<<Displacing  46/coordinate 3 (+)>>>
             <<<Displacing  47/coordinate 2 (+)>>>
             <<<Displacing  47/coordinate 3 (-)>>>
             <<<Displacing  46/coordinate 3 (-)>>>
             <<<Displacing  48/coordinate 1 (+)>>>
             <<<Displacing  47/coordinate 2 (-)>>>
             <<<Displacing  48/coordinate 1 (-)>>>
             <<<Displacing  48/coordinate 2 (+)>>>
             <<<Displacing  48/coordinate 2 (-)>>>
             <<<Displacing  48/coordinate 3 (+)>>>
             <<<Displacing  48/coordinate 3 (-)>>>
             <<<Displacing  49/coordinate 1 (+)>>>
             <<<Displacing  49/coordinate 1 (-)>>>
             <<<Displacing  49/coordinate 2 (+)>>>
             <<<Displacing  49/coordinate 2 (-)>>>
             <<<Displacing  49/coordinate 3 (+)>>>
             <<<Displacing  49/coordinate 3 (-)>>>

-----------------------
VIBRATIONAL FREQUENCIES
-----------------------

Scaling factor for frequencies =  1.000000000 (already applied!)

   0:         0.00 cm**-1
   1:         0.00 cm**-1
   2:         0.00 cm**-1
   3:         0.00 cm**-1
   4:         0.00 cm**-1
   5:         0.00 cm**-1
   6:        41.24 cm**-1
   7:        49.36 cm**-1
   8:        57.43 cm**-1
   9:        64.38 cm**-1
  10:        72.17 cm**-1
  11:        82.72 cm**-1
  12:        84.89 cm**-1
  13:       108.43 cm**-1
  14:       116.23 cm**-1
  15:       118.97 cm**-1
  16:       156.82 cm**-1
  17:       161.32 cm**-1
  18:       168.49 cm**-1
  19:       179.09 cm**-1
  20:       184.88 cm**-1
  21:       189.61 cm**-1
  22:       212.96 cm**-1
  23:       218.52 cm**-1
  24:       230.08 cm**-1
  25:       239.88 cm**-1
  26:       244.79 cm**-1
  27:       294.05 cm**-1
  28:       345.84 cm**-1
  29:       346.20 cm**-1
  30:       351.70 cm**-1
  31:       386.75 cm**-1
  32:       389.56 cm**-1
  33:       403.15 cm**-1
  34:       424.21 cm**-1
  35:       431.72 cm**-1
  36:       472.08 cm**-1
  37:       489.87 cm**-1
  38:       507.26 cm**-1
  39:       525.01 cm**-1
  40:       559.33 cm**-1
  41:       590.05 cm**-1
  42:       601.54 cm**-1
  43:       617.61 cm**-1
  44:       686.76 cm**-1
  45:       748.19 cm**-1
  46:       761.50 cm**-1
  47:       791.36 cm**-1
  48:       796.65 cm**-1
  49:       799.32 cm**-1
  50:       833.67 cm**-1
  51:       845.32 cm**-1
  52:       852.80 cm**-1
  53:       889.30 cm**-1
  54:       904.15 cm**-1
  55:       929.43 cm**-1
  56:       937.68 cm**-1
  57:       940.85 cm**-1
  58:       947.06 cm**-1
  59:       950.95 cm**-1
  60:       956.31 cm**-1
  61:       964.78 cm**-1
  62:       973.61 cm**-1
  63:       975.74 cm**-1
  64:      1033.91 cm**-1
  65:      1035.13 cm**-1
  66:      1045.75 cm**-1
  67:      1047.40 cm**-1
  68:      1058.59 cm**-1
  69:      1067.71 cm**-1
  70:      1081.94 cm**-1
  71:      1089.35 cm**-1
  72:      1097.87 cm**-1
  73:      1110.58 cm**-1
  74:      1123.88 cm**-1
  75:      1133.70 cm**-1
  76:      1140.39 cm**-1
  77:      1178.81 cm**-1
  78:      1186.90 cm**-1
  79:      1199.91 cm**-1
  80:      1210.09 cm**-1
  81:      1212.15 cm**-1
  82:      1228.60 cm**-1
  83:      1238.55 cm**-1
  84:      1261.93 cm**-1
  85:      1266.60 cm**-1
  86:      1268.83 cm**-1
  87:      1278.77 cm**-1
  88:      1279.54 cm**-1
  89:      1281.46 cm**-1
  90:      1286.86 cm**-1
  91:      1290.14 cm**-1
  92:      1306.32 cm**-1
  93:      1318.35 cm**-1
  94:      1340.33 cm**-1
  95:      1348.41 cm**-1
  96:      1374.88 cm**-1
  97:      1375.77 cm**-1
  98:      1410.41 cm**-1
  99:      1432.26 cm**-1
 100:      1433.43 cm**-1
 101:      1434.70 cm**-1
 102:      1447.73 cm**-1
 103:      1496.56 cm**-1
 104:      1499.78 cm**-1
 105:      1507.79 cm**-1
 106:      1509.76 cm**-1
 107:      1509.93 cm**-1
 108:      1510.19 cm**-1
 109:      1511.95 cm**-1
 110:      1512.33 cm**-1
 111:      1516.59 cm**-1
 112:      1516.75 cm**-1
 113:      1533.06 cm**-1
 114:      1543.29 cm**-1
 115:      1569.37 cm**-1
 116:      1580.18 cm**-1
 117:      2804.38 cm**-1
 118:      2854.92 cm**-1
 119:      2860.82 cm**-1
 120:      2868.00 cm**-1
 121:      2872.52 cm**-1
 122:      2882.38 cm**-1
 123:      2883.32 cm**-1
 124:      2886.78 cm**-1
 125:      2890.34 cm**-1
 126:      2892.98 cm**-1
 127:      2893.90 cm**-1
 128:      2903.19 cm**-1
 129:      2907.49 cm**-1
 130:      2910.38 cm**-1
 131:      2911.93 cm**-1
 132:      2914.98 cm**-1
 133:      2916.93 cm**-1
 134:      2927.54 cm**-1
 135:      2928.92 cm**-1
 136:      2977.49 cm**-1
 137:      2982.89 cm**-1
 138:      2988.40 cm**-1
 139:      2998.92 cm**-1
 140:      3024.60 cm**-1
 141:      3069.60 cm**-1
 142:      3080.15 cm**-1
 143:      3232.83 cm**-1
 144:      3301.57 cm**-1
 145:      3348.74 cm**-1
 146:      3411.12 cm**-1


------------
NORMAL MODES
------------

These modes are the cartesian displacements weighted by the diagonal matrix
M(i,i)=1/sqrt(m[i]) where m[i] is the mass of the displaced atom
Thus, these vectors are normalized but *not* orthogonal

                  0          1          2          3          4          5    
      0       0.000000   0.000000   0.000000   0.000000   0.000000   0.000000
      1       0.000000   0.000000   0.000000   0.000000   0.000000   0.000000
      2       0.000000   0.000000   0.000000   0.000000   0.000000   0.000000
      3       0.000000   0.000000   0.000000   0.000000   0.000000   0.000000
      4       0.000000   0.000000   0.000000   0.000000   0.000000   0.000000
      5       0.000000   0.000000   0.000000   0.000000   0.000000   0.000000
      6       0.000000   0.000000   0.000000   0.000000   0.000000   0.000000
      7       0.000000   0.000000   0.000000   0.000000   0.000000   0.000000
      8       0.000000   0.000000   0.000000   0.000000   0.000000   0.000000
      9       0.000000   0.000000   0.000000   0.000000   0.000000   0.000000
     10       0.000000   0.000000   0.000000   0.000000   0.000000   0.000000
     11       0.000000   0.000000   0.000000   0.000000   0.000000   0.000000
     12       0.000000   0.000000   0.000000   0.000000   0.000000   0.000000
     13       0.000000   0.000000   0.000000   0.000000   0.000000   0.000000
     14       0.000000   0.000000   0.000000   0.000000   0.000000   0.000000
     15       0.000000   0.000000   0.000000   0.000000   0.000000   0.000000
     16       0.000000   0.000000   0.000000   0.000000   0.000000   0.000000
     17       0.000000   0.000000   0.000000   0.000000   0.000000   0.000000
     18       0.000000   0.000000   0.000000   0.000000   0.000000   0.000000
     19       0.000000   0.000000   0.000000   0.000000   0.000000   0.000000
     20       0.000000   0.000000   0.000000   0.000000   0.000000   0.000000
     21       0.000000   0.000000   0.000000   0.000000   0.000000   0.000000
     22       0.000000   0.000000   0.000000   0.000000   0.000000   0.000000
     23       0.000000   0.000000   0.000000   0.000000   0.000000   0.000000
     24       0.000000   0.000000   0.000000   0.000000   0.000000   0.000000
     25       0.000000   0.000000   0.000000   0.000000   0.000000   0.000000
     26       0.000000   0.000000   0.000000   0.000000   0.000000   0.000000
     27       0.000000   0.000000   0.000000   0.000000   0.000000   0.000000
     28       0.000000   0.000000   0.000000   0.000000   0.000000   0.000000
     29       0.000000   0.000000   0.000000   0.000000   0.000000   0.000000
     30       0.000000   0.000000   0.000000   0.000000   0.000000   0.000000
     31       0.000000   0.000000   0.000000   0.000000   0.000000   0.000000
     32       0.000000   0.000000   0.000000   0.000000   0.000000   0.000000
     33       0.000000   0.000000   0.000000   0.000000   0.000000   0.000000
     34       0.000000   0.000000   0.000000   0.000000   0.000000   0.000000
     35       0.000000   0.000000   0.000000   0.000000   0.000000   0.000000
     36       0.000000   0.000000   0.000000   0.000000   0.000000   0.000000
     37       0.000000   0.000000   0.000000   0.000000   0.000000   0.000000
     38       0.000000   0.000000   0.000000   0.000000   0.000000   0.000000
     39       0.000000   0.000000   0.000000   0.000000   0.000000   0.000000
     40       0.000000   0.000000   0.000000   0.000000   0.000000   0.000000
     41       0.000000   0.000000   0.000000   0.000000   0.000000   0.000000
     42       0.000000   0.000000   0.000000   0.000000   0.000000   0.000000
     43       0.000000   0.000000   0.000000   0.000000   0.000000   0.000000
     44       0.000000   0.000000   0.000000   0.000000   0.000000   0.000000
     45       0.000000   0.000000   0.000000   0.000000   0.000000   0.000000
     46       0.000000   0.000000   0.000000   0.000000   0.000000   0.000000
     47       0.000000   0.000000   0.000000   0.000000   0.000000   0.000000
     48       0.000000   0.000000   0.000000   0.000000   0.000000   0.000000
     49       0.000000   0.000000   0.000000   0.000000   0.000000   0.000000
     50       0.000000   0.000000   0.000000   0.000000   0.000000   0.000000
     51       0.000000   0.000000   0.000000   0.000000   0.000000   0.000000
     52       0.000000   0.000000   0.000000   0.000000   0.000000   0.000000
     53       0.000000   0.000000   0.000000   0.000000   0.000000   0.000000
     54       0.000000   0.000000   0.000000   0.000000   0.000000   0.000000
     55       0.000000   0.000000   0.000000   0.000000   0.000000   0.000000
     56       0.000000   0.000000   0.000000   0.000000   0.000000   0.000000
     57       0.000000   0.000000   0.000000   0.000000   0.000000   0.000000
     58       0.000000   0.000000   0.000000   0.000000   0.000000   0.000000
     59       0.000000   0.000000   0.000000   0.000000   0.000000   0.000000
     60       0.000000   0.000000   0.000000   0.000000   0.000000   0.000000
     61       0.000000   0.000000   0.000000   0.000000   0.000000   0.000000
     62       0.000000   0.000000   0.000000   0.000000   0.000000   0.000000
     63       0.000000   0.000000   0.000000   0.000000   0.000000   0.000000
     64       0.000000   0.000000   0.000000   0.000000   0.000000   0.000000
     65       0.000000   0.000000   0.000000   0.000000   0.000000   0.000000
     66       0.000000   0.000000   0.000000   0.000000   0.000000   0.000000
     67       0.000000   0.000000   0.000000   0.000000   0.000000   0.000000
     68       0.000000   0.000000   0.000000   0.000000   0.000000   0.000000
     69       0.000000   0.000000   0.000000   0.000000   0.000000   0.000000
     70       0.000000   0.000000   0.000000   0.000000   0.000000   0.000000
     71       0.000000   0.000000   0.000000   0.000000   0.000000   0.000000
     72       0.000000   0.000000   0.000000   0.000000   0.000000   0.000000
     73       0.000000   0.000000   0.000000   0.000000   0.000000   0.000000
     74       0.000000   0.000000   0.000000   0.000000   0.000000   0.000000
     75       0.000000   0.000000   0.000000   0.000000   0.000000   0.000000
     76       0.000000   0.000000   0.000000   0.000000   0.000000   0.000000
     77       0.000000   0.000000   0.000000   0.000000   0.000000   0.000000
     78       0.000000   0.000000   0.000000   0.000000   0.000000   0.000000
     79       0.000000   0.000000   0.000000   0.000000   0.000000   0.000000
     80       0.000000   0.000000   0.000000   0.000000   0.000000   0.000000
     81       0.000000   0.000000   0.000000   0.000000   0.000000   0.000000
     82       0.000000   0.000000   0.000000   0.000000   0.000000   0.000000
     83       0.000000   0.000000   0.000000   0.000000   0.000000   0.000000
     84       0.000000   0.000000   0.000000   0.000000   0.000000   0.000000
     85       0.000000   0.000000   0.000000   0.000000   0.000000   0.000000
     86       0.000000   0.000000   0.000000   0.000000   0.000000   0.000000
     87       0.000000   0.000000   0.000000   0.000000   0.000000   0.000000
     88       0.000000   0.000000   0.000000   0.000000   0.000000   0.000000
     89       0.000000   0.000000   0.000000   0.000000   0.000000   0.000000
     90       0.000000   0.000000   0.000000   0.000000   0.000000   0.000000
     91       0.000000   0.000000   0.000000   0.000000   0.000000   0.000000
     92       0.000000   0.000000   0.000000   0.000000   0.000000   0.000000
     93       0.000000   0.000000   0.000000   0.000000   0.000000   0.000000
     94       0.000000   0.000000   0.000000   0.000000   0.000000   0.000000
     95       0.000000   0.000000   0.000000   0.000000   0.000000   0.000000
     96       0.000000   0.000000   0.000000   0.000000   0.000000   0.000000
     97       0.000000   0.000000   0.000000   0.000000   0.000000   0.000000
     98       0.000000   0.000000   0.000000   0.000000   0.000000   0.000000
     99       0.000000   0.000000   0.000000   0.000000   0.000000   0.000000
    100       0.000000   0.000000   0.000000   0.000000   0.000000   0.000000
    101       0.000000   0.000000   0.000000   0.000000   0.000000   0.000000
    102       0.000000   0.000000   0.000000   0.000000   0.000000   0.000000
    103       0.000000   0.000000   0.000000   0.000000   0.000000   0.000000
    104       0.000000   0.000000   0.000000   0.000000   0.000000   0.000000
    105       0.000000   0.000000   0.000000   0.000000   0.000000   0.000000
    106       0.000000   0.000000   0.000000   0.000000   0.000000   0.000000
    107       0.000000   0.000000   0.000000   0.000000   0.000000   0.000000
    108       0.000000   0.000000   0.000000   0.000000   0.000000   0.000000
    109       0.000000   0.000000   0.000000   0.000000   0.000000   0.000000
    110       0.000000   0.000000   0.000000   0.000000   0.000000   0.000000
    111       0.000000   0.000000   0.000000   0.000000   0.000000   0.000000
    112       0.000000   0.000000   0.000000   0.000000   0.000000   0.000000
    113       0.000000   0.000000   0.000000   0.000000   0.000000   0.000000
    114       0.000000   0.000000   0.000000   0.000000   0.000000   0.000000
    115       0.000000   0.000000   0.000000   0.000000   0.000000   0.000000
    116       0.000000   0.000000   0.000000   0.000000   0.000000   0.000000
    117       0.000000   0.000000   0.000000   0.000000   0.000000   0.000000
    118       0.000000   0.000000   0.000000   0.000000   0.000000   0.000000
    119       0.000000   0.000000   0.000000   0.000000   0.000000   0.000000
    120       0.000000   0.000000   0.000000   0.000000   0.000000   0.000000
    121       0.000000   0.000000   0.000000   0.000000   0.000000   0.000000
    122       0.000000   0.000000   0.000000   0.000000   0.000000   0.000000
    123       0.000000   0.000000   0.000000   0.000000   0.000000   0.000000
    124       0.000000   0.000000   0.000000   0.000000   0.000000   0.000000
    125       0.000000   0.000000   0.000000   0.000000   0.000000   0.000000
    126       0.000000   0.000000   0.000000   0.000000   0.000000   0.000000
    127       0.000000   0.000000   0.000000   0.000000   0.000000   0.000000
    128       0.000000   0.000000   0.000000   0.000000   0.000000   0.000000
    129       0.000000   0.000000   0.000000   0.000000   0.000000   0.000000
    130       0.000000   0.000000   0.000000   0.000000   0.000000   0.000000
    131       0.000000   0.000000   0.000000   0.000000   0.000000   0.000000
    132       0.000000   0.000000   0.000000   0.000000   0.000000   0.000000
    133       0.000000   0.000000   0.000000   0.000000   0.000000   0.000000
    134       0.000000   0.000000   0.000000   0.000000   0.000000   0.000000
    135       0.000000   0.000000   0.000000   0.000000   0.000000   0.000000
    136       0.000000   0.000000   0.000000   0.000000   0.000000   0.000000
    137       0.000000   0.000000   0.000000   0.000000   0.000000   0.000000
    138       0.000000   0.000000   0.000000   0.000000   0.000000   0.000000
    139       0.000000   0.000000   0.000000   0.000000   0.000000   0.000000
    140       0.000000   0.000000   0.000000   0.000000   0.000000   0.000000
    141       0.000000   0.000000   0.000000   0.000000   0.000000   0.000000
    142       0.000000   0.000000   0.000000   0.000000   0.000000   0.000000
    143       0.000000   0.000000   0.000000   0.000000   0.000000   0.000000
    144       0.000000   0.000000   0.000000   0.000000   0.000000   0.000000
    145       0.000000   0.000000   0.000000   0.000000   0.000000   0.000000
    146       0.000000   0.000000   0.000000   0.000000   0.000000   0.000000
                  6          7          8          9         10         11    
      0      -0.078391   0.052919   0.029654   0.008089  -0.021101   0.004087
      1       0.003343  -0.010549  -0.008430  -0.031186   0.011007   0.039992
      2       0.013654  -0.024020   0.027739   0.008094  -0.014420  -0.003327
      3      -0.090553   0.054666  -0.001577   0.000075  -0.077031  -0.015003
      4       0.009035  -0.022933   0.009346  -0.043545   0.047711   0.010499
      5       0.005533  -0.014049   0.005235   0.015092  -0.057645   0.013567
      6      -0.113822   0.069052  -0.030954  -0.015668  -0.118882  -0.045235
      7       0.003188  -0.022562   0.031749  -0.065925   0.106004  -0.033263
      8       0.021029  -0.023595   0.025712   0.024979  -0.028118   0.032846
      9      -0.122966   0.078366  -0.029509  -0.023732  -0.106575  -0.058509
     10      -0.005803  -0.012823   0.038015  -0.076381   0.130533  -0.049850
     11       0.043622  -0.041935   0.068145   0.027626   0.046240   0.035946
     12      -0.110627   0.074286   0.001049  -0.017553  -0.051379  -0.043353
     13      -0.011320  -0.003058   0.020845  -0.066231   0.096080  -0.025222
     14       0.051703  -0.050810   0.090960   0.021741   0.090249   0.021464
     15      -0.089267   0.062342   0.029945  -0.002488  -0.008819  -0.012697
     16      -0.007667  -0.000971  -0.002224  -0.044431   0.037405   0.018955
     17       0.037923  -0.042924   0.071542   0.012009   0.061523   0.002257
     18      -0.048877   0.041336   0.066639   0.018812   0.039282   0.029715
     19       0.003259  -0.001851  -0.033737  -0.007771  -0.062526   0.072753
     20      -0.006741  -0.016034   0.003049   0.000777  -0.054354  -0.021555
     21      -0.080022   0.043736  -0.002689   0.006454  -0.083945  -0.005010
     22       0.019528  -0.034231   0.005043  -0.035812   0.032210   0.023385
     23      -0.012419   0.000927  -0.030944   0.008716  -0.105197   0.012342
     24      -0.080245   0.059832   0.052841   0.002003   0.033945  -0.002698
     25      -0.012253   0.007508  -0.015059  -0.037108   0.011246   0.037184
     26       0.044254  -0.050266   0.088498   0.007626   0.094834  -0.008662
     27      -0.138497   0.087852  -0.051284  -0.034135  -0.138780  -0.079311
     28      -0.007942  -0.013473   0.055841  -0.091389   0.174372  -0.080266
     29       0.053876  -0.048204   0.082831   0.034295   0.068275   0.049196
     30      -0.040383   0.035067   0.047186  -0.005576   0.012040   0.062947
     31      -0.015018   0.004642  -0.011414   0.030443  -0.022308   0.021986
     32      -0.037228  -0.015605  -0.007840   0.006939  -0.055658  -0.056770
     33      -0.007793   0.046577   0.048565  -0.000887   0.017382   0.075734
     34      -0.029580  -0.003044   0.029009   0.012986  -0.023425  -0.015076
     35      -0.059611  -0.023665  -0.014910   0.006965  -0.059960  -0.057680
     36      -0.055947   0.029206   0.047362  -0.008958   0.011998   0.032459
     37      -0.022254   0.006973  -0.005787   0.071424  -0.007387  -0.013545
     38      -0.044066  -0.024254  -0.010445  -0.007848  -0.062218  -0.062651
     39       0.027345   0.066511  -0.005783   0.009145  -0.022520   0.077607
     40      -0.064280  -0.020896   0.071848   0.007374   0.010789  -0.005731
     41      -0.100987  -0.041007  -0.024040   0.026075  -0.039627   0.007902
     42       0.018705   0.057975   0.047768  -0.000264   0.019922   0.077406
     43       0.001713   0.012569   0.004630   0.006063  -0.060900  -0.048987
     44      -0.046233  -0.017876  -0.010774   0.008877  -0.050619  -0.050208
     45      -0.032221   0.032487   0.087854  -0.007453   0.046587   0.074805
     46      -0.046435  -0.012626   0.054307   0.006078  -0.009787  -0.022732
     47      -0.063490  -0.023570  -0.016526  -0.003512  -0.084158  -0.091652
     48      -0.017436   0.034375   0.008081   0.009147  -0.003084   0.130806
     49      -0.084318  -0.021902   0.085153   0.018389   0.035177   0.016741
     50      -0.124373  -0.059545  -0.017659   0.024412  -0.031343   0.036481
     51       0.054450   0.081576  -0.046364   0.017563  -0.052539   0.076958
     52      -0.043139  -0.007402   0.042983   0.014642  -0.009621  -0.008176
     53      -0.075858  -0.013769  -0.040405   0.039936  -0.044243  -0.007665
     54      -0.057917   0.044744   0.093469   0.064122   0.096196  -0.010425
     55       0.001492  -0.001670  -0.047392   0.000476  -0.080068   0.080795
     56      -0.005966  -0.008513  -0.049917  -0.011666  -0.167996   0.029755
     57      -0.023292   0.031858   0.084699   0.010213   0.068468   0.055669
     58       0.017986  -0.006239  -0.068252  -0.033583  -0.131091   0.128875
     59       0.003865  -0.020082   0.032055   0.007546   0.000127  -0.030723
     60      -0.060130   0.044250   0.097903   0.079272   0.114052  -0.022188
     61       0.005449   0.000124  -0.047487  -0.023860  -0.111494   0.100641
     62      -0.005073  -0.004884  -0.022357  -0.010438  -0.177254   0.032741
     63      -0.036189   0.004522  -0.186987   0.084316   0.367756  -0.055015
     64       0.044565  -0.063156  -0.202829   0.227440  -0.053626  -0.014516
     65      -0.019167   0.010182  -0.325446  -0.183436   0.104872   0.064271
     66      -0.043025   0.012625  -0.130239   0.073172   0.322764  -0.041860
     67       0.034807  -0.050375  -0.168444   0.168814  -0.072999   0.018582
     68      -0.019577   0.010365  -0.273761  -0.139544   0.051177   0.050372
     69      -0.040960   0.006571  -0.165573   0.097982   0.346594  -0.051965
     70       0.040939  -0.066558  -0.257564   0.218209  -0.007816  -0.002507
     71      -0.014163   0.007206  -0.358426  -0.200861   0.136661   0.062461
     72      -0.116715   0.079955   0.002420  -0.023961  -0.041470  -0.053970
     73      -0.017632   0.003056   0.025748  -0.074334   0.114283  -0.038647
     74       0.067786  -0.063259   0.122078   0.024213   0.144197   0.024615
     75      -0.123142   0.071865  -0.053299  -0.019867  -0.160769  -0.057238
     76       0.007438  -0.030800   0.043770  -0.073992   0.131680  -0.052301
     77       0.014840  -0.016282   0.009354   0.030055  -0.061357   0.044083
     78       0.083722   0.109868  -0.022873   0.009038  -0.048301   0.007604
     79      -0.100084  -0.052557   0.134491  -0.022622   0.038982  -0.022372
     80      -0.143631  -0.072919  -0.018675   0.031170  -0.022483   0.071216
     81       0.061472   0.092093   0.009219  -0.002368  -0.025975   0.013604
     82      -0.118120  -0.067253   0.158212  -0.031558   0.054852  -0.017115
     83      -0.173451  -0.098657   0.004911   0.019211  -0.011260   0.082996
     84       0.125869   0.142510  -0.035468   0.008416  -0.067185  -0.047498
     85      -0.088686  -0.046077   0.132271  -0.029109   0.025243  -0.053113
     86      -0.119535  -0.054044  -0.026009   0.031547  -0.032208   0.041710
     87       0.087329  -0.174843  -0.001656  -0.036840  -0.035540  -0.060350
     88       0.036431  -0.008385  -0.036358   0.192331  -0.069022  -0.134967
     89       0.020375   0.044893   0.001821  -0.115554  -0.001291  -0.239272
     90       0.079322  -0.140451  -0.013718  -0.071477  -0.007387  -0.041405
     91       0.037136  -0.019324  -0.050474   0.197173  -0.067931  -0.123005
     92       0.018912   0.027772  -0.049263  -0.115483   0.017354  -0.193831
     93       0.111477  -0.171524   0.016817  -0.013478  -0.025639  -0.012732
     94       0.032914   0.000849   0.008832   0.194860  -0.094968  -0.193853
     95       0.013164   0.044838  -0.000492  -0.121999  -0.005927  -0.256311
     96       0.082854  -0.188320  -0.004448  -0.024243  -0.043735  -0.084941
     97       0.043664   0.038424  -0.042766   0.124706  -0.037878  -0.060295
     98       0.055748   0.065193   0.046605  -0.086753   0.008535  -0.171657
     99       0.057300  -0.198197  -0.032351  -0.068314  -0.054455  -0.141680
    100       0.047051   0.044532  -0.061925   0.175034  -0.010962  -0.009250
    101       0.062258   0.068116   0.051852  -0.070600   0.013513  -0.152621
    102       0.082905  -0.215530   0.004439   0.047534  -0.057449  -0.126490
    103       0.043984   0.041957  -0.038394   0.100353  -0.041611  -0.062042
    104       0.056527   0.066132   0.069223  -0.146880  -0.013324  -0.200339
    105       0.112755  -0.155704   0.018643  -0.046753  -0.022348   0.027821
    106       0.051029   0.064107  -0.027088   0.007914  -0.043753  -0.030231
    107       0.081858   0.080208   0.057252   0.006977   0.040402  -0.075285
    108       0.119430  -0.140952   0.021925  -0.148431  -0.026943   0.060047
    109       0.050349   0.060110  -0.030998   0.031413  -0.040897  -0.032304
    110       0.082870   0.072129   0.043191   0.044421   0.048597  -0.065736
    111       0.134747  -0.136222   0.038097   0.021130   0.001161   0.111104
    112       0.043359   0.064170  -0.018882  -0.016537  -0.055513  -0.064466
    113       0.075400   0.075291   0.053060  -0.012888   0.033181  -0.099842
    114       0.104720  -0.168099   0.012125  -0.026535  -0.027722  -0.007891
    115       0.069262   0.091998  -0.017175  -0.107385  -0.039274   0.053844
    116       0.112074   0.114293   0.089733   0.076290   0.070259   0.046991
    117       0.086337  -0.188033  -0.007032  -0.088142  -0.047567  -0.087914
    118       0.071702   0.094852  -0.020994  -0.102731  -0.037091   0.075959
    119       0.116875   0.119505   0.094151   0.092143   0.075388   0.069139
    120       0.097724  -0.180209   0.010000   0.067265  -0.024848  -0.042534
    121       0.070846   0.094406  -0.014958  -0.123578  -0.039432   0.058910
    122       0.114890   0.118080   0.097769   0.058651   0.070958   0.049553
    123       0.129780  -0.139877   0.033212  -0.049312  -0.011289   0.107086
    124       0.080479   0.107147  -0.006267  -0.199551  -0.039213   0.098765
    125       0.128748   0.131933   0.102570   0.144130   0.089151   0.131302
    126       0.137892  -0.129738   0.039225  -0.111172  -0.011820   0.143859
    127       0.079587   0.105992  -0.007558  -0.184221  -0.038456   0.096648
    128       0.128032   0.130756   0.099419   0.184766   0.092005   0.135913
    129       0.124034  -0.146381   0.028438  -0.038746  -0.014444   0.080385
    130       0.092504   0.121338   0.002818  -0.245796  -0.035177   0.155353
    131       0.143972   0.147870   0.116816   0.160600   0.102274   0.200824
    132       0.144485  -0.124872   0.046384  -0.013498   0.003162   0.176401
    133       0.076917   0.103455  -0.006696  -0.231279  -0.044289   0.074645
    134       0.125316   0.128462   0.099787   0.133491   0.085637   0.114456
    135       0.110114   0.131568  -0.063724   0.024375  -0.076970   0.003168
    136      -0.125720  -0.072632   0.164544  -0.031716   0.063225  -0.005823
    137      -0.176924  -0.095552  -0.032450   0.050721  -0.007910   0.158764
    138       0.087795   0.115588  -0.061437   0.028729  -0.067215   0.042457
    139      -0.147229  -0.088366   0.174518  -0.028791   0.081226   0.031764
    140      -0.189201  -0.104318  -0.032059   0.053243  -0.003510   0.180391
    141       0.130473   0.146148  -0.065143   0.020046  -0.085640  -0.033287
    142      -0.133902  -0.080801   0.192664  -0.047663   0.074607  -0.029200
    143      -0.192571  -0.106556  -0.034349   0.055956  -0.002101   0.190930
    144       0.129662   0.147469  -0.091989   0.034743  -0.097614  -0.002386
    145      -0.113394  -0.062583   0.146671  -0.024933   0.050565  -0.008574
    146      -0.172285  -0.091396  -0.039694   0.056424  -0.008055   0.166644
                 12         13         14         15         16         17    
      0       0.002631  -0.027365  -0.005195  -0.012567  -0.068157  -0.016280
      1       0.040178  -0.011664   0.014127  -0.017840  -0.074481  -0.022312
      2      -0.067863   0.026084   0.010095   0.017702   0.084027   0.019790
      3      -0.026868  -0.005121   0.146342  -0.044513  -0.025126  -0.009440
      4      -0.002221  -0.008114   0.177825  -0.063295  -0.053606  -0.015164
      5      -0.044503   0.030886  -0.072509   0.044207   0.082682   0.016724
      6      -0.093274   0.025445   0.166008  -0.026437   0.064897   0.009735
      7      -0.092979   0.003505   0.177974  -0.047403   0.029382   0.009200
      8      -0.003200   0.010925  -0.084562   0.032322   0.026672   0.004731
      9      -0.132998   0.035072   0.031214   0.025361   0.113385   0.022853
     10      -0.142320   0.012887   0.013065   0.014257   0.086543   0.025255
     11       0.013424  -0.012757  -0.013948  -0.005797  -0.019152  -0.002728
     12      -0.108359   0.014103  -0.127237   0.059383   0.047974   0.010409
     13      -0.104715   0.010915  -0.161601   0.062894   0.035183   0.010611
     14      -0.008004  -0.017362   0.071625  -0.032562   0.000582   0.004770
     15      -0.043281  -0.016597  -0.145171   0.040470  -0.041396  -0.009190
     16      -0.016178  -0.000843  -0.160385   0.046812  -0.045323  -0.013654
     17      -0.049076   0.002437   0.084314  -0.020974   0.056964   0.016946
     18       0.040523  -0.049255  -0.011940  -0.027046  -0.035587  -0.007039
     19       0.103239  -0.013154   0.021374  -0.016744  -0.009202  -0.005746
     20      -0.090949   0.042033   0.013217   0.028261   0.050364   0.011187
     21       0.002432  -0.010032   0.241041  -0.078168  -0.047442  -0.014455
     22       0.032765  -0.012660   0.292772  -0.102356  -0.078477  -0.020965
     23      -0.056816   0.049991  -0.119323   0.065666   0.112756   0.019620
     24      -0.028665  -0.030181  -0.260242   0.066594  -0.071714  -0.014311
     25       0.009587  -0.002127  -0.281529   0.081462  -0.070038  -0.021124
     26      -0.064439  -0.000865   0.143118  -0.039962   0.066383   0.021114
     27      -0.179230   0.056987   0.047061   0.038583   0.190261   0.040188
     28      -0.206265   0.021303   0.016892   0.025201   0.161027   0.046596
     29       0.043043  -0.027215  -0.024371  -0.014420  -0.068912  -0.013873
     30       0.011645  -0.114396  -0.018354  -0.065369  -0.105275  -0.022868
     31       0.156769   0.100066   0.030555   0.049610   0.072067   0.012033
     32      -0.077829   0.083221   0.017559   0.050664  -0.085038  -0.022329
     33      -0.011446  -0.151779  -0.025450  -0.109685  -0.018780  -0.028233
     34       0.112868   0.136217   0.043402   0.097440   0.052621   0.038751
     35      -0.047598   0.107804   0.021537   0.078279  -0.153901  -0.023768
     36       0.041769  -0.081294  -0.014292  -0.034767  -0.151117  -0.012802
     37       0.148019   0.130093   0.023770   0.041289   0.064456  -0.023294
     38      -0.060276   0.098420   0.022859   0.073631  -0.112538  -0.007333
     39       0.057199  -0.081569  -0.005018  -0.058183   0.050213   0.030516
     40       0.070060   0.072423   0.024634   0.050267  -0.014539  -0.015436
     41       0.027417   0.062051   0.003508   0.042555  -0.180661  -0.058816
     42      -0.033162  -0.181034  -0.030416  -0.143511   0.037662  -0.033074
     43       0.124122   0.222040   0.070436   0.171809   0.102450   0.110921
     44      -0.064898   0.069951   0.012621   0.039261  -0.120582  -0.040360
     45      -0.058995  -0.203548  -0.040382  -0.147994  -0.064479  -0.070816
     46       0.082770   0.119904   0.038795   0.090456   0.018490   0.022920
     47      -0.044893   0.188068   0.044686   0.160045  -0.170885   0.030676
     48       0.084364  -0.140259  -0.021111  -0.090198   0.092580   0.062810
     49       0.076775   0.034797   0.010230   0.013176  -0.064354  -0.084939
     50       0.043054   0.030843  -0.004519   0.027441  -0.145922  -0.028700
     51       0.110267  -0.021529   0.011548  -0.013811   0.109571   0.075278
     52       0.107113   0.116286   0.036264   0.080542   0.019025   0.005785
     53       0.043212   0.096892   0.009314   0.052036  -0.222437  -0.123525
     54       0.103575   0.060489   0.001159   0.046041   0.092698   0.024579
     55       0.117513   0.002477   0.018376  -0.001637   0.048963   0.008997
     56      -0.100951  -0.027146   0.003802  -0.005665   0.100660   0.026402
     57       0.028134  -0.090274  -0.016967  -0.053382  -0.007669  -0.001251
     58       0.074439  -0.092989   0.009599  -0.061567   0.001495  -0.001118
     59      -0.084368   0.052139   0.014502   0.031343   0.064570   0.012881
     60       0.119815   0.090728   0.005147   0.070068   0.130270   0.034529
     61       0.097090  -0.039780   0.011616  -0.040387   0.004409  -0.003807
     62      -0.077469  -0.001084   0.002241  -0.003080   0.163191   0.039406
     63       0.026600   0.049309   0.008882   0.081526   0.016366   0.010457
     64      -0.095533  -0.265067   0.051470   0.172730  -0.041104   0.047826
     65      -0.036841   0.038566  -0.018159  -0.154138  -0.010011  -0.041208
     66       0.049043   0.078494   0.001921   0.074590   0.044691   0.012961
     67      -0.048195  -0.211876   0.039304   0.129391  -0.023386   0.040464
     68      -0.051957   0.019061  -0.015498  -0.119881   0.010911  -0.028827
     69       0.024219   0.052828   0.008841   0.099102   0.031792   0.018717
     70      -0.104378  -0.262367   0.053901   0.177375  -0.055379   0.048266
     71      -0.035154   0.035412  -0.017660  -0.173512  -0.029923  -0.050366
     72      -0.138049   0.020656  -0.228458   0.097612   0.072572   0.017537
     73      -0.141767   0.017657  -0.287648   0.109678   0.063710   0.019361
     74       0.006534  -0.035886   0.123414  -0.060807  -0.032362  -0.000009
     75      -0.111027   0.041071   0.278097  -0.049531   0.100273   0.015772
     76      -0.122430   0.005467   0.297977  -0.080220   0.057350   0.017524
     77       0.014351   0.014190  -0.143777   0.050888   0.015831   0.000053
     78       0.022792   0.001221   0.017942  -0.011122  -0.036051  -0.020464
[...]
  29:       346.20    0.000000  (  0.000000   0.000000   0.000000)
  30:       351.70    0.000000  (  0.000000   0.000000   0.000000)
  31:       386.75    0.000000  (  0.000000   0.000000   0.000000)
  32:       389.56    0.000000  (  0.000000   0.000000   0.000000)
  33:       403.15    0.000000  (  0.000000   0.000000   0.000000)
  34:       424.21    0.000000  (  0.000000   0.000000   0.000000)
  35:       431.72    0.000000  (  0.000000   0.000000   0.000000)
  36:       472.08    0.000000  (  0.000000   0.000000   0.000000)
  37:       489.87    0.000000  (  0.000000   0.000000   0.000000)
  38:       507.26    0.000000  (  0.000000   0.000000   0.000000)
  39:       525.01    0.000000  (  0.000000   0.000000   0.000000)
  40:       559.33    0.000000  (  0.000000   0.000000   0.000000)
  41:       590.05    0.000000  (  0.000000   0.000000   0.000000)
  42:       601.54    0.000000  (  0.000000   0.000000   0.000000)
  43:       617.61    0.000000  (  0.000000   0.000000   0.000000)
  44:       686.76    0.000000  (  0.000000   0.000000   0.000000)
  45:       748.19    0.000000  (  0.000000   0.000000   0.000000)
  46:       761.50    0.000000  (  0.000000   0.000000   0.000000)
  47:       791.36    0.000000  (  0.000000   0.000000   0.000000)
  48:       796.65    0.000000  (  0.000000   0.000000   0.000000)
  49:       799.32    0.000000  (  0.000000   0.000000   0.000000)
  50:       833.67    0.000000  (  0.000000   0.000000   0.000000)
  51:       845.32    0.000000  (  0.000000   0.000000   0.000000)
  52:       852.80    0.000000  (  0.000000   0.000000   0.000000)
  53:       889.30    0.000000  (  0.000000   0.000000   0.000000)
  54:       904.15    0.000000  (  0.000000   0.000000   0.000000)
  55:       929.43    0.000000  (  0.000000   0.000000   0.000000)
  56:       937.68    0.000000  (  0.000000   0.000000   0.000000)
  57:       940.85    0.000000  (  0.000000   0.000000   0.000000)
  58:       947.06    0.000000  (  0.000000   0.000000   0.000000)
  59:       950.95    0.000000  (  0.000000   0.000000   0.000000)
  60:       956.31    0.000000  (  0.000000   0.000000   0.000000)
  61:       964.78    0.000000  (  0.000000   0.000000   0.000000)
  62:       973.61    0.000000  (  0.000000   0.000000   0.000000)
  63:       975.74    0.000000  (  0.000000   0.000000   0.000000)
  64:      1033.91    0.000000  (  0.000000   0.000000   0.000000)
  65:      1035.13    0.000000  (  0.000000   0.000000   0.000000)
  66:      1045.75    0.000000  (  0.000000   0.000000   0.000000)
  67:      1047.40    0.000000  (  0.000000   0.000000   0.000000)
  68:      1058.59    0.000000  (  0.000000   0.000000   0.000000)
  69:      1067.71    0.000000  (  0.000000   0.000000   0.000000)
  70:      1081.94    0.000000  (  0.000000   0.000000   0.000000)
  71:      1089.35    0.000000  (  0.000000   0.000000   0.000000)
  72:      1097.87    0.000000  (  0.000000   0.000000   0.000000)
  73:      1110.58    0.000000  (  0.000000   0.000000   0.000000)
  74:      1123.88    0.000000  (  0.000000   0.000000   0.000000)
  75:      1133.70    0.000000  (  0.000000   0.000000   0.000000)
  76:      1140.39    0.000000  (  0.000000   0.000000   0.000000)
  77:      1178.81    0.000000  (  0.000000   0.000000   0.000000)
  78:      1186.90    0.000000  (  0.000000   0.000000   0.000000)
  79:      1199.91    0.000000  (  0.000000   0.000000   0.000000)
  80:      1210.09    0.000000  (  0.000000   0.000000   0.000000)
  81:      1212.15    0.000000  (  0.000000   0.000000   0.000000)
  82:      1228.60    0.000000  (  0.000000   0.000000   0.000000)
  83:      1238.55    0.000000  (  0.000000   0.000000   0.000000)
  84:      1261.93    0.000000  (  0.000000   0.000000   0.000000)
  85:      1266.60    0.000000  (  0.000000   0.000000   0.000000)
  86:      1268.83    0.000000  (  0.000000   0.000000   0.000000)
  87:      1278.77    0.000000  (  0.000000   0.000000   0.000000)
  88:      1279.54    0.000000  (  0.000000   0.000000   0.000000)
  89:      1281.46    0.000000  (  0.000000   0.000000   0.000000)
  90:      1286.86    0.000000  (  0.000000   0.000000   0.000000)
  91:      1290.14    0.000000  (  0.000000   0.000000   0.000000)
  92:      1306.32    0.000000  (  0.000000   0.000000   0.000000)
  93:      1318.35    0.000000  (  0.000000   0.000000   0.000000)
  94:      1340.33    0.000000  (  0.000000   0.000000   0.000000)
  95:      1348.41    0.000000  (  0.000000   0.000000   0.000000)
  96:      1374.88    0.000000  (  0.000000   0.000000   0.000000)
  97:      1375.77    0.000000  (  0.000000   0.000000   0.000000)
  98:      1410.41    0.000000  (  0.000000   0.000000   0.000000)
  99:      1432.26    0.000000  (  0.000000   0.000000   0.000000)
 100:      1433.43    0.000000  (  0.000000   0.000000   0.000000)
 101:      1434.70    0.000000  (  0.000000   0.000000   0.000000)
 102:      1447.73    0.000000  (  0.000000   0.000000   0.000000)
 103:      1496.56    0.000000  (  0.000000   0.000000   0.000000)
 104:      1499.78    0.000000  (  0.000000   0.000000   0.000000)
 105:      1507.79    0.000000  (  0.000000   0.000000   0.000000)
 106:      1509.76    0.000000  (  0.000000   0.000000   0.000000)
 107:      1509.93    0.000000  (  0.000000   0.000000   0.000000)
 108:      1510.19    0.000000  (  0.000000   0.000000   0.000000)
 109:      1511.95    0.000000  (  0.000000   0.000000   0.000000)
 110:      1512.33    0.000000  (  0.000000   0.000000   0.000000)
 111:      1516.59    0.000000  (  0.000000   0.000000   0.000000)
 112:      1516.75    0.000000  (  0.000000   0.000000   0.000000)
 113:      1533.06    0.000000  (  0.000000   0.000000   0.000000)
 114:      1543.29    0.000000  (  0.000000   0.000000   0.000000)
 115:      1569.37    0.000000  (  0.000000   0.000000   0.000000)
 116:      1580.18    0.000000  (  0.000000   0.000000   0.000000)
 117:      2804.38    0.000000  (  0.000000   0.000000   0.000000)
 118:      2854.92    0.000000  (  0.000000   0.000000   0.000000)
 119:      2860.82    0.000000  (  0.000000   0.000000   0.000000)
 120:      2868.00    0.000000  (  0.000000   0.000000   0.000000)
 121:      2872.52    0.000000  (  0.000000   0.000000   0.000000)
 122:      2882.38    0.000000  (  0.000000   0.000000   0.000000)
 123:      2883.32    0.000000  (  0.000000   0.000000   0.000000)
 124:      2886.78    0.000000  (  0.000000   0.000000   0.000000)
 125:      2890.34    0.000000  (  0.000000   0.000000   0.000000)
 126:      2892.98    0.000000  (  0.000000   0.000000   0.000000)
 127:      2893.90    0.000000  (  0.000000   0.000000   0.000000)
 128:      2903.19    0.000000  (  0.000000   0.000000   0.000000)
 129:      2907.49    0.000000  (  0.000000   0.000000   0.000000)
 130:      2910.38    0.000000  (  0.000000   0.000000   0.000000)
 131:      2911.93    0.000000  (  0.000000   0.000000   0.000000)
 132:      2914.98    0.000000  (  0.000000   0.000000   0.000000)
 133:      2916.93    0.000000  (  0.000000   0.000000   0.000000)
 134:      2927.54    0.000000  (  0.000000   0.000000   0.000000)
 135:      2928.92    0.000000  (  0.000000   0.000000   0.000000)
 136:      2977.49    0.000000  (  0.000000   0.000000   0.000000)
 137:      2982.89    0.000000  (  0.000000   0.000000   0.000000)
 138:      2988.40    0.000000  (  0.000000   0.000000   0.000000)
 139:      2998.92    0.000000  (  0.000000   0.000000   0.000000)
 140:      3024.60    0.000000  (  0.000000   0.000000   0.000000)
 141:      3069.60    0.000000  (  0.000000   0.000000   0.000000)
 142:      3080.15    0.000000  (  0.000000   0.000000   0.000000)
 143:      3232.83    0.000000  (  0.000000   0.000000   0.000000)
 144:      3301.57    0.000000  (  0.000000   0.000000   0.000000)
 145:      3348.74    0.000000  (  0.000000   0.000000   0.000000)
 146:      3411.12    0.000000  (  0.000000   0.000000   0.000000)

The first frequency considered to be a vibration is 6
The total number of vibrations considered is 141


--------------------------
THERMOCHEMISTRY AT 298.15K
--------------------------

Temperature         ... 298.15 K
Pressure            ... 1.00 atm
Total Mass          ... 270.42 AMU

Throughout the following assumptions are being made:
  (1) The electronic state is orbitally nondegenerate
  (2) There are no thermally accessible electronically excited states
  (3) Hindered rotations indicated by low frequency modes are not
      treated as such but are treated as vibrations and this may
      cause some error
  (4) All equations used are the standard statistical mechanics
      equations for an ideal gas
  (5) All vibrations are strictly harmonic

freq.      41.24  E(vib)   ...       0.54 
freq.      49.36  E(vib)   ...       0.52 
freq.      57.43  E(vib)   ...       0.51 
freq.      64.38  E(vib)   ...       0.51 
freq.      72.17  E(vib)   ...       0.50 
freq.      82.72  E(vib)   ...       0.48 
freq.      84.89  E(vib)   ...       0.48 
freq.     108.43  E(vib)   ...       0.45 
freq.     116.23  E(vib)   ...       0.44 
freq.     118.97  E(vib)   ...       0.44 
freq.     156.82  E(vib)   ...       0.40 
freq.     161.32  E(vib)   ...       0.39 
freq.     168.49  E(vib)   ...       0.38 
freq.     179.09  E(vib)   ...       0.37 
freq.     184.88  E(vib)   ...       0.37 
freq.     189.61  E(vib)   ...       0.36 
freq.     212.96  E(vib)   ...       0.34 
freq.     218.52  E(vib)   ...       0.33 
freq.     230.08  E(vib)   ...       0.32 
freq.     239.88  E(vib)   ...       0.31 
freq.     244.79  E(vib)   ...       0.31 
freq.     294.05  E(vib)   ...       0.27 
freq.     345.84  E(vib)   ...       0.23 
freq.     346.20  E(vib)   ...       0.23 
freq.     351.70  E(vib)   ...       0.23 
freq.     386.75  E(vib)   ...       0.20 
freq.     389.56  E(vib)   ...       0.20 
freq.     403.15  E(vib)   ...       0.19 
freq.     424.21  E(vib)   ...       0.18 
freq.     431.72  E(vib)   ...       0.18 
freq.     472.08  E(vib)   ...       0.15 
freq.     489.87  E(vib)   ...       0.15 
freq.     507.26  E(vib)   ...       0.14 
freq.     525.01  E(vib)   ...       0.13 
freq.     559.33  E(vib)   ...       0.12 
freq.     590.05  E(vib)   ...       0.10 
freq.     601.54  E(vib)   ...       0.10 
freq.     617.61  E(vib)   ...       0.09 
freq.     686.76  E(vib)   ...       0.07 
freq.     748.19  E(vib)   ...       0.06 
freq.     761.50  E(vib)   ...       0.06 
freq.     791.36  E(vib)   ...       0.05 
freq.     796.65  E(vib)   ...       0.05 
freq.     799.32  E(vib)   ...       0.05 
freq.     833.67  E(vib)   ...       0.04 
freq.     845.32  E(vib)   ...       0.04 
freq.     852.80  E(vib)   ...       0.04 
freq.     889.30  E(vib)   ...       0.04 
freq.     904.15  E(vib)   ...       0.03 
freq.     929.43  E(vib)   ...       0.03 
freq.     937.68  E(vib)   ...       0.03 
freq.     940.85  E(vib)   ...       0.03 
freq.     947.06  E(vib)   ...       0.03 
freq.     950.95  E(vib)   ...       0.03 
freq.     956.31  E(vib)   ...       0.03 
freq.     964.78  E(vib)   ...       0.03 
freq.     973.61  E(vib)   ...       0.03 
freq.     975.74  E(vib)   ...       0.03 
freq.    1033.91  E(vib)   ...       0.02 
freq.    1035.13  E(vib)   ...       0.02 
freq.    1045.75  E(vib)   ...       0.02 
freq.    1047.40  E(vib)   ...       0.02 
freq.    1058.59  E(vib)   ...       0.02 
freq.    1067.71  E(vib)   ...       0.02 
freq.    1081.94  E(vib)   ...       0.02 
freq.    1089.35  E(vib)   ...       0.02 
freq.    1097.87  E(vib)   ...       0.02 
freq.    1110.58  E(vib)   ...       0.02 
freq.    1123.88  E(vib)   ...       0.01 
freq.    1133.70  E(vib)   ...       0.01 
freq.    1140.39  E(vib)   ...       0.01 
freq.    1178.81  E(vib)   ...       0.01 
freq.    1186.90  E(vib)   ...       0.01 
freq.    1199.91  E(vib)   ...       0.01 
freq.    1210.09  E(vib)   ...       0.01 
freq.    1212.15  E(vib)   ...       0.01 
freq.    1228.60  E(vib)   ...       0.01 
freq.    1238.55  E(vib)   ...       0.01 
freq.    1261.93  E(vib)   ...       0.01 
freq.    1266.60  E(vib)   ...       0.01 
freq.    1268.83  E(vib)   ...       0.01 
freq.    1278.77  E(vib)   ...       0.01 
freq.    1279.54  E(vib)   ...       0.01 
freq.    1281.46  E(vib)   ...       0.01 
freq.    1286.86  E(vib)   ...       0.01 
freq.    1290.14  E(vib)   ...       0.01 
freq.    1306.32  E(vib)   ...       0.01 
freq.    1318.35  E(vib)   ...       0.01 
freq.    1340.33  E(vib)   ...       0.01 
freq.    1348.41  E(vib)   ...       0.01 
freq.    1374.88  E(vib)   ...       0.01 
freq.    1375.77  E(vib)   ...       0.01 
freq.    1410.41  E(vib)   ...       0.00 
freq.    1432.26  E(vib)   ...       0.00 
freq.    1433.43  E(vib)   ...       0.00 
freq.    1434.70  E(vib)   ...       0.00 
freq.    1447.73  E(vib)   ...       0.00 
freq.    1496.56  E(vib)   ...       0.00 
freq.    1499.78  E(vib)   ...       0.00 
freq.    1507.79  E(vib)   ...       0.00 
freq.    1509.76  E(vib)   ...       0.00 
freq.    1509.93  E(vib)   ...       0.00 
freq.    1510.19  E(vib)   ...       0.00 
freq.    1511.95  E(vib)   ...       0.00 
freq.    1512.33  E(vib)   ...       0.00 
freq.    1516.59  E(vib)   ...       0.00 
freq.    1516.75  E(vib)   ...       0.00 
freq.    1533.06  E(vib)   ...       0.00 
freq.    1543.29  E(vib)   ...       0.00 
freq.    1569.37  E(vib)   ...       0.00 
freq.    1580.18  E(vib)   ...       0.00 
freq.    2804.38  E(vib)   ...       0.00 
freq.    2854.92  E(vib)   ...       0.00 
freq.    2860.82  E(vib)   ...       0.00 
freq.    2868.00  E(vib)   ...       0.00 
freq.    2872.52  E(vib)   ...       0.00 
freq.    2882.38  E(vib)   ...       0.00 
freq.    2883.32  E(vib)   ...       0.00 
freq.    2886.78  E(vib)   ...       0.00 
freq.    2890.34  E(vib)   ...       0.00 
freq.    2892.98  E(vib)   ...       0.00 
freq.    2893.90  E(vib)   ...       0.00 
freq.    2903.19  E(vib)   ...       0.00 
freq.    2907.49  E(vib)   ...       0.00 
freq.    2910.38  E(vib)   ...       0.00 
freq.    2911.93  E(vib)   ...       0.00 
freq.    2914.98  E(vib)   ...       0.00 
freq.    2916.93  E(vib)   ...       0.00 
freq.    2927.54  E(vib)   ...       0.00 
freq.    2928.92  E(vib)   ...       0.00 
freq.    2977.49  E(vib)   ...       0.00 
freq.    2982.89  E(vib)   ...       0.00 
freq.    2988.40  E(vib)   ...       0.00 
freq.    2998.92  E(vib)   ...       0.00 
freq.    3024.60  E(vib)   ...       0.00 
freq.    3069.60  E(vib)   ...       0.00 
freq.    3080.15  E(vib)   ...       0.00 
freq.    3232.83  E(vib)   ...       0.00 
freq.    3301.57  E(vib)   ...       0.00 
freq.    3348.74  E(vib)   ...       0.00 
freq.    3411.12  E(vib)   ...       0.00 

------------
INNER ENERGY
------------

The inner energy is: U= E(el) + E(ZPE) + E(vib) + E(rot) + E(trans)
    E(el)   - is the total energy from the electronic structure calculation
              = E(kin-el) + E(nuc-el) + E(el-el) + E(nuc-nuc)
    E(ZPE)  - the the zero temperature vibrational energy from the frequency calculation
    E(vib)  - the the finite temperature correction to E(ZPE) due to population
              of excited vibrational states
    E(rot)  - is the rotational thermal energy
    E(trans)- is the translational thermal energy

Summary of contributions to the inner energy U:
Electronic energy                ...    -61.39574807 Eh
Zero point energy                ...      0.42557780 Eh     267.05 kcal/mol
Thermal vibrational correction   ...      0.02052403 Eh      12.88 kcal/mol
Thermal rotational correction    ...      0.00141627 Eh       0.89 kcal/mol
Thermal translational correction ...      0.00141627 Eh       0.89 kcal/mol
-----------------------------------------------------------------------
Total thermal energy                    -60.94681370 Eh


Summary of corrections to the electronic energy:
(perhaps to be used in another calculation)
Total thermal correction                  0.02335657 Eh      14.66 kcal/mol
Non-thermal (ZPE) correction              0.42557780 Eh     267.05 kcal/mol
-----------------------------------------------------------------------
Total correction                          0.44893437 Eh     281.71 kcal/mol


--------
ENTHALPY
--------

The enthalpy is H = U + kB*T
                kB is Boltzmann's constant
Total free energy                 ...    -60.94681370 Eh 
Thermal Enthalpy correction       ...      0.00094421 Eh       0.59 kcal/mol
-----------------------------------------------------------------------
Total Enthalpy                    ...    -60.94586949 Eh


Note: Only C1 symmetry has been detected, increase convergence thresholds 
      if your molecule has a higher symmetry. Symmetry factor of 1.0 is   
      used for the rotational entropy correction. 
 

Note: Rotational entropy computed according to Herzberg 
Infrared and Raman Spectra, Chapter V,1, Van Nostrand Reinhold, 1945 
Point Group:  C1, Symmetry Number:   1  
Rotational constants in cm-1:     0.010845     0.005926     0.004511 

Vibrational entropy computed according to the QRRHO of S. Grimme
Chem.Eur.J. 2012 18 9955


-------
ENTROPY
-------

The entropy contributions are T*S = T*(S(el)+S(vib)+S(rot)+S(trans))
     S(el)   - electronic entropy
     S(vib)  - vibrational entropy
     S(rot)  - rotational entropy
     S(trans)- translational entropy
The entropies will be listed as mutliplied by the temperature to get
units of energy

Electronic entropy                ...      0.00000000 Eh      0.00 kcal/mol
Vibrational entropy               ...      0.03632177 Eh     22.79 kcal/mol
Rotational entropy                ...      0.01661749 Eh     10.43 kcal/mol
Translational entropy             ...      0.02028014 Eh     12.73 kcal/mol
-----------------------------------------------------------------------
Final entropy term                ...      0.07321940 Eh     45.95 kcal/mol

In case the symmetry of your molecule has not been determined correctly
or in case you have a reason to use a different symmetry number we print 
out the resulting rotational entropy values for sn=1,12 :
 --------------------------------------------------------
|  sn= 1 | S(rot)=       0.01661749 Eh     10.43 kcal/mol|
|  sn= 2 | S(rot)=       0.01596303 Eh     10.02 kcal/mol|
|  sn= 3 | S(rot)=       0.01558020 Eh      9.78 kcal/mol|
|  sn= 4 | S(rot)=       0.01530858 Eh      9.61 kcal/mol|
|  sn= 5 | S(rot)=       0.01509789 Eh      9.47 kcal/mol|
|  sn= 6 | S(rot)=       0.01492574 Eh      9.37 kcal/mol|
|  sn= 7 | S(rot)=       0.01478020 Eh      9.27 kcal/mol|
|  sn= 8 | S(rot)=       0.01465412 Eh      9.20 kcal/mol|
|  sn= 9 | S(rot)=       0.01454291 Eh      9.13 kcal/mol|
|  sn=10 | S(rot)=       0.01444343 Eh      9.06 kcal/mol|
|  sn=11 | S(rot)=       0.01435344 Eh      9.01 kcal/mol|
|  sn=12 | S(rot)=       0.01427129 Eh      8.96 kcal/mol|
 --------------------------------------------------------


-------------------
GIBBS FREE ENERGY
-------------------

The Gibbs free energy is G = H - T*S

Total enthalpy                    ...    -60.94586949 Eh 
Total entropy correction          ...     -0.07321940 Eh    -45.95 kcal/mol
-----------------------------------------------------------------------
Final Gibbs free energy         ...    -61.01908889 Eh

For completeness - the Gibbs free energy minus the electronic energy
G-E(el)                           ...      0.37665918 Eh    236.36 kcal/mol


Total Time for Numerical Frequencies  :       189.658 sec
Time for Reference State(s)           :         0.221 sec
Time for Displacements                :       172.959 sec

Timings for individual modules:

Sum of individual times         ...        0.466 sec (=   0.008 min)
XTB module                      ...        0.466 sec (=   0.008 min) 100.0 %
                             ****ORCA TERMINATED NORMALLY****
TOTAL RUN TIME: 0 days 0 hours 3 minutes 10 seconds 873 msec
(SLURM) EXECUTION TIME: 190.896181072 seconds.
