(SLURM) JOB ID:         42

                                 *****************
                                 * O   R   C   A *
                                 *****************

           --- An Ab Initio, DFT and Semiempirical electronic structure package ---

                  #######################################################
                  #                        -***-                        #
                  #          Department of theory and spectroscopy      #
                  #               Directorship: Frank Neese             #
                  #        Max Planck Institute fuer Kohlenforschung    #
                  #                Kaiser Wilhelm Platz 1               #
                  #                 D-45470 Muelheim/Ruhr               #
                  #                      Germany                        #
                  #                                                     #
                  #                  All rights reserved                #
                  #                        -***-                        #
                  #######################################################


                         Program Version 4.2.1 -  RELEASE  -


 With contributions from (in alphabetic order):
   Daniel Aravena         : Magnetic Suceptibility
   Michael Atanasov       : Ab Initio Ligand Field Theory (pilot matlab implementation)
   Alexander A. Auer      : GIAO ZORA, VPT2
   Ute Becker             : Parallelization
   Giovanni Bistoni       : ED, misc. LED, open-shell LED, HFLD
   Martin Brehm           : Molecular dynamics
   Dmytro Bykov           : SCF Hessian
   Vijay G. Chilkuri      : MRCI spin determinant printing, contributions to CSF-ICE
   Dipayan Datta          : RHF DLPNO-CCSD density
   Achintya Kumar Dutta   : EOM-CC, STEOM-CC
   Dmitry Ganyushin       : Spin-Orbit,Spin-Spin,Magnetic field MRCI
   Miquel Garcia          : C-PCM Hessian, Gaussian charge scheme
   Yang Guo               : DLPNO-NEVPT2, CIM, IAO-localization
   Andreas Hansen         : Spin unrestricted coupled pair/coupled cluster methods
   Benjamin Helmich-Paris : CASSCF linear response (MC-RPA)
   Lee Huntington         : MR-EOM, pCC
   Robert Izsak           : Overlap fitted RIJCOSX, COSX-SCS-MP3, EOM
   Christian Kollmar      : KDIIS, OOCD, Brueckner-CCSD(T), CCSD density
   Simone Kossmann        : Meta GGA functionals, TD-DFT gradient, OOMP2, MP2 Hessian
   Martin Krupicka        : AUTO-CI
   Lucas Lang             : DCDCAS
   Dagmar Lenk            : GEPOL surface, SMD
   Dimitrios Liakos       : Extrapolation schemes; Compound Job, initial MDCI parallelization
   Dimitrios Manganas     : Further ROCIS development; embedding schemes
   Dimitrios Pantazis     : SARC Basis sets
   Taras Petrenko         : DFT Hessian,TD-DFT gradient, ASA, ECA, R-Raman, ABS, FL, XAS/XES, NRVS
   Peter Pinski           : DLPNO-MP2, DLPNO-MP2 Gradient
   Christoph Reimann      : Effective Core Potentials
   Marius Retegan         : Local ZFS, SOC
   Christoph Riplinger    : Optimizer, TS searches, QM/MM, DLPNO-CCSD(T), (RO)-DLPNO pert. Triples
   Tobias Risthaus        : Range-separated hybrids, TD-DFT gradient, RPA, STAB
   Michael Roemelt        : Original ROCIS implementation
   Masaaki Saitow         : Open-shell DLPNO-CCSD energy and density
   Barbara Sandhoefer     : DKH picture change effects
   Avijit Sen             : IP-ROCIS
   Kantharuban Sivalingam : CASSCF convergence, NEVPT2, FIC-MRCI
   Bernardo de Souza      : ESD, SOC TD-DFT
   Georgi Stoychev        : AutoAux, RI-MP2 NMR
   Willem Van den Heuvel  : Paramagnetic NMR
   Boris Wezisla          : Elementary symmetry handling
   Frank Wennmohs         : Technical directorship


 We gratefully acknowledge several colleagues who have allowed us to
 interface, adapt or use parts of their codes:
   Stefan Grimme, W. Hujo, H. Kruse,             : VdW corrections, initial TS optimization,
                  C. Bannwarth                     DFT functionals, gCP, sTDA/sTD-DF
   Ed Valeev, F. Pavosevic, A. Kumar             : LibInt (2-el integral package), F12 methods
   Garnet Chan, S. Sharma, J. Yang, R. Olivares  : DMRG
   Ulf Ekstrom                                   : XCFun DFT Library
   Mihaly Kallay                                 : mrcc  (arbitrary order and MRCC methods)
   Andreas Klamt, Michael Diedenhofen            : otool_cosmo (COSMO solvation model)
   Jiri Pittner, Ondrej Demel                    : Mk-CCSD
   Frank Weinhold                                : gennbo (NPA and NBO analysis)
   Christopher J. Cramer and Donald G. Truhlar   : smd solvation model
   Lars Goerigk                                  : TD-DFT with DH, B97 family of functionals
   V. Asgeirsson, H. Jonsson                     : NEB implementation
   FAccTs GmbH                                   : IRC, NEB, NEB-TS, Multilevel, MM, QM/MM, CI optimization
   S Lehtola, MJT Oliveira, MAL Marques          : LibXC Library


 Your calculation uses the libint2 library for the computation of 2-el integrals
 For citations please refer to: http://libint.valeyev.net

 Your ORCA version has been built with support for libXC version: 4.2.3
 For citations please refer to: https://tddft.org/programs/libxc/

 This ORCA versions uses:
   CBLAS   interface :  Fast vector & matrix operations
   LAPACKE interface :  Fast linear algebra routines
   SCALAPACK package :  Parallel linear algebra routines




***************************************
The coordinates will be read from file: init.xyz
***************************************


Your calculation utilizes the atom-pairwise dispersion correction
with the Becke-Johnson damping scheme (D3BJ)
Cite in your paper:
S.Grimme, S.Ehrlich, L.Goerigk, J Comput Chem, (2011), 32, 1456–1465 
S.Grimme, J.Antony, S.Ehrlich and H.Krieg, J.Chem.Phys., 132, (2010), 154104 
   

Your calculation utilizes the SMD solvation module
Please cite in your paper:
A.V. Marenich, C.J. Cramer, D.G. Truhlar J. Phys. Chem. B, 113, (2009), 6378 

----- Orbital basis set information -----
Your calculation utilizes the basis: cc-pVTZ 
       H, B-Ne : Obtained from the ccRepo (grant-hill.group.shef.ac.uk/ccrepo) Feb. 2017
                 T. H. Dunning, Jr., J. Chem. Phys. 90, 1007 (1989)
            He : Obtained from the ccRepo (grant-hill.group.shef.ac.uk/ccrepo) Feb. 2017
                 D. E. Woon, T. H. Dunning, Jr., J. Chem. Phys. 100, 2975 (1994)
  Li-Be, Na-Mg : Obtained from the ccRepo (grant-hill.group.shef.ac.uk/ccrepo) Feb. 2017
                 B. P. Prascher, D. E. Woon, K. A. Peterson, T. H. Dunning, Jr., A. K. Wilson, Theor. Chem. Acc. 128, 69 (2011)
         Al-Ar : Obtained from the ccRepo (grant-hill.group.shef.ac.uk/ccrepo) Feb. 2017
                 D. E. Woon, T. H. Dunning, Jr., J. Chem. Phys. 98, 1358 (1993)
            Ca : Obtained from the Peterson Research Group Website (tyr0.chem.wsu.edu/~kipeters) Feb. 2017
                 J. Koput, K. A. Peterson, J. Phys. Chem. 106, 9595 (2002)
         Sc-Zn : Obtained from the ccRepo (grant-hill.group.shef.ac.uk/ccrepo) Feb. 2017
                 N. B. Balabanov, K. A. Peterson, J. Chem. Phys. 123, 064107 (2005)
                 N. B. Balabanov, K. A. Peterson, J. Chem. Phys. 125, 074110 (2006)
         Ga-Kr : Obtained from the ccRepo (grant-hill.group.shef.ac.uk/ccrepo) Feb. 2017
                 A. K. Wilson, D. E. Woon, K. A. Peterson, T. H. Dunning, Jr., J. Chem. Phys. 110, 7667 (1999)
             Y : Obtained from the ccRepo (grant-hill.group.shef.ac.uk/ccrepo) Feb. 2017
                 K. A. Peterson, D. Figgen, M. Dolg, H. Stoll, J. Chem. Phys. 126, 124101 (2007)
        Ag, Au : Obtained from the Peterson Research Group Website (tyr0.chem.wsu.edu/~kipeters) Feb. 2017
                 K. A. Peterson, C. Puzzarini, Theor. Chem. Acc. 114, 283 (2005)

----- AuxJ basis set information -----
Your calculation utilizes the AutoAux generation procedure.
  G. L. Stoychev, A. A. Auer, F. Neese, J. Chem. Theory Comput. 13, 554 (2017)

----- AuxC basis set information -----
Your calculation utilizes the AutoAux generation procedure.
  G. L. Stoychev, A. A. Auer, F. Neese, J. Chem. Theory Comput. 13, 554 (2017)

----- AuxJK basis set information -----
Your calculation utilizes the AutoAux generation procedure.
  G. L. Stoychev, A. A. Auer, F. Neese, J. Chem. Theory Comput. 13, 554 (2017)

================================================================================
                                        WARNINGS
                       Please study these warnings very carefully!
================================================================================


WARNING: Geometry Optimization
  ===> : Switching off AutoStart
         For restart on a previous wavefunction, please use MOREAD

INFO   : the flag for use of LIBINT has been found!

================================================================================
                                       INPUT FILE
================================================================================
NAME = /tmp/slurm-scratch/opt+freq.42/opt+freq.inp
|  1> ! B3LYP D3BJ cc-pVTZ RIJCOSX AutoAux Opt Freq TightSCF Grid4 FinalGrid5 GridX4 PrintBasis PrintMOs
|  2> %maxcore 1450
|  3> 
|  4> * xyzfile 0 1 init.xyz
|  5> 
|  6> %cpcm
|  7>  smd true
|  8>  smdsolvent "dichloromethane"
|  9> end
| 10> 
| 11> %geom
| 12>  maxiter 30
| 13>  trust 0.2
| 14>  inhess read
| 15>  inhessname "freq.hess"
| 16> end
| 17> %pal nprocs 8 end
| 18> 
| 19>                          ****END OF INPUT****
================================================================================

                       *****************************
                       * Geometry Optimization Run *
                       *****************************

Geometry optimization settings:
Update method            Update   .... BFGS
Choice of coordinates    CoordSys .... Z-matrix Internals
Initial Hessian          InHess   .... Read

Convergence Tolerances:
Energy Change            TolE     ....  5.0000e-06 Eh
Max. Gradient            TolMAXG  ....  3.0000e-04 Eh/bohr
RMS Gradient             TolRMSG  ....  1.0000e-04 Eh/bohr
Max. Displacement        TolMAXD  ....  4.0000e-03 bohr
RMS Displacement         TolRMSD  ....  2.0000e-03 bohr
Strict Convergence                ....  False
------------------------------------------------------------------------------
                        ORCA OPTIMIZATION COORDINATE SETUP
------------------------------------------------------------------------------

The optimization will be done in new redundant internal coordinates
Making redundant internal coordinates   ...  (new redundants) done
Evaluating the initial hessian          ... (Reading Exact Hessian)...  
InHessName: freq.hess	The file <freq.hess> is opened as a .hess file
done
done
Diagonalizing the Hessian               .... done
Dimension of the hessian                .... 75
Lowest eigenvalues of the non projected Hessian:
 -0.000000000 -0.000000000 -0.000000000 -0.000000000 -0.000000000
done
Evaluating the coordinates              ...  done
Calculating the B-matrix                .... done
Calculating the G-matrix                .... done
Diagonalizing the G-matrix              .... done
Small eigenvalue found = 2.673e-02
The first mode is                       ....   33
The number of degrees of freedom        ....   42

    -----------------------------------------------------------------
                    Redundant Internal Coordinates


    -----------------------------------------------------------------
         Definition                    Initial Value    d2E/dq (diagonal element)
    -----------------------------------------------------------------
      1. B(H   1,C   0)                  1.0944         0.311348   
      2. B(H   2,C   0)                  1.0943         0.311405   
      3. B(C   3,C   0)                  1.5272         0.306234   
      4. B(H   4,C   3)                  1.0960         0.308069   
      5. B(H   5,C   3)                  1.0942         0.313056   
      6. B(C   6,C   3)                  1.5226         0.309886   
      7. B(H   7,C   6)                  1.0989         0.293609   
      8. B(H   8,C   6)                  1.0931         0.313834   
      9. B(N   9,C   6)                  1.4699         0.323443   
     10. B(H  10,N   9)                  1.0144         0.414833   
     11. B(H  11,N   9)                  1.0153         0.412416   
     12. B(C  12,C   0)                  1.5262         0.310664   
     13. B(H  13,C  12)                  1.0928         0.317218   
     14. B(H  14,C  12)                  1.0919         0.319227   
     15. B(H  15,C  12)                  1.0927         0.317623   
     16. A(H   1,C   0,C  12)          109.4297         0.045770   
     17. A(H   2,C   0,C  12)          109.3918         0.045802   
     18. A(H   2,C   0,C   3)          109.3059         0.046008   
     19. A(H   1,C   0,C   3)          109.2170         0.045621   
     20. A(H   1,C   0,H   2)          106.2928         0.017740   
     21. A(C   3,C   0,C  12)          112.9833         0.122378   
     22. A(C   0,C   3,C   6)          113.2294         0.119533   
     23. A(H   4,C   3,H   5)          106.4965         0.017627   
     24. A(C   0,C   3,H   5)          109.8564         0.044459   
     25. A(H   5,C   3,C   6)          108.8109         0.045133   
     26. A(C   0,C   3,H   4)          109.2630         0.044921   
     27. A(H   4,C   3,C   6)          108.9594         0.045856   
     28. A(H   8,C   6,N   9)          107.8207         0.047090   
     29. A(H   7,C   6,N   9)          112.8985         0.052469   
     30. A(H   7,C   6,H   8)          106.6969         0.020675   
     31. A(C   3,C   6,H   8)          109.3673         0.051774   
     32. A(C   3,C   6,H   7)          108.9912         0.054606   
     33. A(C   3,C   6,N   9)          110.9285         0.132646   
     34. A(H  10,N   9,H  11)          105.6460         0.048826   
     35. A(C   6,N   9,H  11)          109.2435         0.134558   
     36. A(C   6,N   9,H  10)          109.6621         0.131531   
     37. A(H  13,C  12,H  15)          107.5785         0.051837   
     38. A(C   0,C  12,H  15)          111.1437         0.100983   
     39. A(H  13,C  12,H  14)          107.6709         0.051741   
     40. A(C   0,C  12,H  14)          111.4758         0.099758   
     41. A(H  14,C  12,H  15)          107.6681         0.051591   
     42. A(C   0,C  12,H  13)          111.1191         0.102259   
     43. D(C   6,C   3,C   0,H   1)     58.2927         0.013526   
     44. D(C   6,C   3,C   0,H   2)    -57.6142         0.013552   
     45. D(H   4,C   3,C   0,H   1)    179.9289         0.014707   
     46. D(H   4,C   3,C   0,H   2)     64.0220         0.015076   
     47. D(H   4,C   3,C   0,C  12)    -58.0323         0.014059   
     48. D(H   5,C   3,C   0,H   1)    -63.5827         0.014905   
     49. D(H   5,C   3,C   0,H   2)   -179.4896         0.014577   
     50. D(C   6,C   3,C   0,C  12)   -179.6685         0.013035   
     51. D(H   5,C   3,C   0,C  12)     58.4561         0.013877   
     52. D(H   8,C   6,C   3,H   4)    177.9457         0.014646   
     53. D(H   8,C   6,C   3,C   0)    -60.2479         0.013866   
     54. D(H   7,C   6,C   3,H   5)    178.5093         0.014655   
     55. D(H   8,C   6,C   3,H   5)     62.2107         0.015168   
     56. D(H   7,C   6,C   3,H   4)    -65.7557         0.015283   
     57. D(H   7,C   6,C   3,C   0)     56.0507         0.013968   
     58. D(N   9,C   6,C   3,H   5)    -56.5884         0.015065   
     59. D(N   9,C   6,C   3,H   4)     59.1466         0.015060   
     60. D(N   9,C   6,C   3,C   0)   -179.0470         0.014981   
     61. D(H  11,N   9,C   6,H   8)    174.8616         0.018427   
     62. D(H  11,N   9,C   6,H   7)     57.2557         0.017664   
     63. D(H  11,N   9,C   6,C   3)    -65.4108         0.014968   
     64. D(H  10,N   9,C   6,H   8)     59.5163         0.017575   
     65. D(H  10,N   9,C   6,H   7)    -58.0896         0.017337   
     66. D(H  10,N   9,C   6,C   3)    179.2440         0.015051   
     67. D(H  14,C  12,C   0,C   3)   -179.9994         0.014696   
     68. D(H  14,C  12,C   0,H   2)     57.9945         0.014945   
     69. D(H  14,C  12,C   0,H   1)    -58.0800         0.014915   
     70. D(H  13,C  12,C   0,C   3)     59.8918         0.014125   
     71. D(H  13,C  12,C   0,H   2)    -62.1142         0.015286   
     72. D(H  15,C  12,C   0,H   1)     62.0419         0.015269   
     73. D(H  13,C  12,C   0,H   1)   -178.1888         0.015099   
     74. D(H  15,C  12,C   0,C   3)    -59.8774         0.014138   
     75. D(H  15,C  12,C   0,H   2)    178.1165         0.015135   
    -----------------------------------------------------------------

Number of atoms                         .... 16
Number of degrees of freedom            .... 75

         *************************************************************
         *                GEOMETRY OPTIMIZATION CYCLE   1            *
         *************************************************************
---------------------------------
CARTESIAN COORDINATES (ANGSTROEM)
---------------------------------
  C     -3.545178   -1.082295    0.001813
  H     -3.275739   -2.143019    0.004994
  H     -3.090882   -0.652846   -0.896312
  C     -2.952900   -0.409507    1.238279
  H     -3.221211    0.653088    1.235190
  H     -3.394676   -0.838891    2.142579
  C     -1.438017   -0.536974    1.323742
  H     -0.992570   -0.130805    0.404953
  H     -1.164937   -1.594663    1.364192
  N     -0.924782    0.107016    2.541306
  H      0.082996    0.000049    2.585125
  H     -1.091884    1.106950    2.486822
  C     -5.062747   -0.944230   -0.082401
  H     -5.361074    0.106408   -0.119602
  H     -5.459751   -1.433272   -0.974244
  H     -5.548350   -1.394610    0.786765

----------------------------
CARTESIAN COORDINATES (A.U.)
----------------------------
  NO LB      ZA    FRAG     MASS         X           Y           Z
   0 C     6.0000    0    12.011   -6.699416   -2.045241    0.003426
   1 H     1.0000    0     1.008   -6.190250   -4.049719    0.009437
   2 H     1.0000    0     1.008   -5.840920   -1.233700   -1.693784
   3 C     6.0000    0    12.011   -5.580172   -0.773856    2.340008
   4 H     1.0000    0     1.008   -6.087207    1.234157    2.334171
   5 H     1.0000    0     1.008   -6.415008   -1.585274    4.048888
   6 C     6.0000    0    12.011   -2.717458   -1.014734    2.501510
   7 H     1.0000    0     1.008   -1.875685   -0.247186    0.765250
   8 H     1.0000    0     1.008   -2.201412   -3.013476    2.577949
   9 N     7.0000    0    14.007   -1.747585    0.202231    4.802372
  10 H     1.0000    0     1.008    0.156840    0.000093    4.885178
  11 H     1.0000    0     1.008   -2.063362    2.091832    4.699413
  12 C     6.0000    0    12.011   -9.567205   -1.784336   -0.155715
  13 H     1.0000    0     1.008  -10.130962    0.201082   -0.226015
  14 H     1.0000    0     1.008  -10.317434   -2.708492   -1.841054
  15 H     1.0000    0     1.008  -10.484862   -2.635431    1.486770

--------------------------------
INTERNAL COORDINATES (ANGSTROEM)
--------------------------------
 C      0   0   0     0.000000000000     0.00000000     0.00000000
 H      1   0   0     1.094414408557     0.00000000     0.00000000
 H      1   2   0     1.094275931766   106.29275824     0.00000000
 C      1   2   3     1.527182075387   109.21700803   242.18293643
 H      4   1   2     1.095950942637   109.26299253   179.92886717
 H      4   1   2     1.094209826145   109.85638534   296.41727316
 C      4   1   2     1.522636615922   113.22937084    58.29266440
 H      7   4   1     1.098894677797   108.99124392    56.05067775
 H      7   4   1     1.093121635327   109.36729227   299.75208020
 N      7   4   1     1.469896383906   110.92845844   180.95301199
 H     10   7   4     1.014385795018   109.66206674   179.24397186
 H     10   7   4     1.015263310189   109.24346443   294.58921918
 C      1   2   3     1.526161725304   109.42967085   118.02830328
 H     13   1   2     1.092805161213   111.11912133   181.81117375
 H     13   1   2     1.091859968324   111.47583076   301.91995917
 H     13   1   2     1.092749721375   111.14372177    62.04194807

---------------------------
INTERNAL COORDINATES (A.U.)
---------------------------
 C      0   0   0     0.000000000000     0.00000000     0.00000000
 H      1   0   0     2.068143509191     0.00000000     0.00000000
 H      1   2   0     2.067881825979   106.29275824     0.00000000
 C      1   2   3     2.885955879115   109.21700803   242.18293643
 H      4   1   2     2.071047137797   109.26299253   179.92886717
 H      4   1   2     2.067756904459   109.85638534   296.41727316
 C      4   1   2     2.877366205574   113.22937084    58.29266440
 H      7   4   1     2.076609991060   108.99124392    56.05067775
 H      7   4   1     2.065700521833   109.36729227   299.75208020
 N      7   4   1     2.777701610824   110.92845844   180.95301199
 H     10   7   4     1.916911346724   109.66206674   179.24397186
 H     10   7   4     1.918569610076   109.24346443   294.58921918
 C      1   2   3     2.884027696897   109.42967085   118.02830328
 H     13   1   2     2.065102472428   111.11912133   181.81117375
 H     13   1   2     2.063316316725   111.47583076   301.91995917
 H     13   1   2     2.064997706317   111.14372177    62.04194807

---------------------
BASIS SET INFORMATION
---------------------
There are 3 groups of distinct atoms

 Group   1 Type C   : 18s5p2d1f contracted to 4s3p2d1f pattern {8811/311/11/1}
 Group   2 Type H   : 5s2p1d contracted to 3s2p1d pattern {311/11/1}
 Group   3 Type N   : 18s5p2d1f contracted to 4s3p2d1f pattern {8811/311/11/1}

Atom   0C    basis set group =>   1
Atom   1H    basis set group =>   2
Atom   2H    basis set group =>   2
Atom   3C    basis set group =>   1
Atom   4H    basis set group =>   2
Atom   5H    basis set group =>   2
Atom   6C    basis set group =>   1
Atom   7H    basis set group =>   2
Atom   8H    basis set group =>   2
Atom   9N    basis set group =>   3
Atom  10H    basis set group =>   2
Atom  11H    basis set group =>   2
Atom  12C    basis set group =>   1
Atom  13H    basis set group =>   2
Atom  14H    basis set group =>   2
Atom  15H    basis set group =>   2

-------------------------
BASIS SET IN INPUT FORMAT
-------------------------

 # Basis set for element : H 
 NewGTO H 
 S 3 
   1      33.8700000000      0.0254948632
   2       5.0950000000      0.1903627659
   3       1.1590000000      0.8521620222
 S 1 
   1       0.3258000000      1.0000000000
 S 1 
   1       0.1027000000      1.0000000000
 P 1 
   1       1.4070000000      1.0000000000
 P 1 
   1       0.3880000000      1.0000000000
 D 1 
   1       1.0570000000      1.0000000000
  end;

 # Basis set for element : C 
 NewGTO C 
 S 8 
   1    8236.0000000000      0.0005424302
   2    1235.0000000000      0.0041964279
   3     280.8000000000      0.0215409141
   4      79.2700000000      0.0836149496
   5      25.5900000000      0.2398716189
   6       8.9970000000      0.4437518201
   7       3.3190000000      0.3535796965
   8       0.3643000000     -0.0091763661
 S 8 
   1    8236.0000000000     -0.0001963922
   2    1235.0000000000     -0.0015259503
   3     280.8000000000     -0.0078904490
   4      79.2700000000     -0.0315148705
   5      25.5900000000     -0.0969100083
   6       8.9970000000     -0.2205415263
   7       3.3190000000     -0.2960691129
   8       0.3643000000      1.0405034329
 S 1 
   1       0.9059000000      1.0000000000
 S 1 
   1       0.1285000000      1.0000000000
 P 3 
   1      18.7100000000      0.0394263872
   2       4.1330000000      0.2440889849
   3       1.2000000000      0.8154920089
 P 1 
   1       0.3827000000      1.0000000000
 P 1 
   1       0.1209000000      1.0000000000
 D 1 
   1       1.0970000000      1.0000000000
 D 1 
   1       0.3180000000      1.0000000000
 F 1 
   1       0.7610000000      1.0000000000
  end;

 # Basis set for element : N 
 NewGTO N 
 S 8 
   1   11420.0000000000      0.0005349809
   2    1712.0000000000      0.0041376631
   3     389.3000000000      0.0212509149
   4     110.0000000000      0.0825762988
   5      35.5700000000      0.2384132727
   6      12.5400000000      0.4434316661
   7       4.6440000000      0.3554319088
   8       0.5118000000     -0.0087029018
 S 8 
   1   11420.0000000000     -0.0001987770
   2    1712.0000000000     -0.0015470035
   3     389.3000000000     -0.0079925633
   4     110.0000000000     -0.0320255651
   5      35.5700000000     -0.0991102048
   6      12.5400000000     -0.2282927747
   7       4.6440000000     -0.2981827627
   8       0.5118000000      1.0370005182
 S 1 
   1       1.2930000000      1.0000000000
 S 1 
   1       0.1787000000      1.0000000000
 P 3 
   1      26.6300000000      0.0398072123
   2       5.9480000000      0.2490026605
   3       1.7420000000      0.8104797267
 P 1 
   1       0.5550000000      1.0000000000
 P 1 
   1       0.1725000000      1.0000000000
 D 1 
   1       1.6540000000      1.0000000000
 D 1 
   1       0.4690000000      1.0000000000
 F 1 
   1       1.0930000000      1.0000000000
  end;

---------------------------------
AUXILIARY/J BASIS SET INFORMATION
---------------------------------
There are 3 groups of distinct atoms

 Group   1 Type C   : 14s11p10d5f3g contracted to 14s11p10d5f3g pattern {11111111111111/11111111111/1111111111/11111/111}
 Group   2 Type H   : 11s4p3d2f contracted to 11s4p3d2f pattern {11111111111/1111/111/11}
 Group   3 Type N   : 14s11p10d5f3g contracted to 14s11p10d5f3g pattern {11111111111111/11111111111/1111111111/11111/111}

Atom   0C    basis set group =>   1
Atom   1H    basis set group =>   2
Atom   2H    basis set group =>   2
Atom   3C    basis set group =>   1
Atom   4H    basis set group =>   2
Atom   5H    basis set group =>   2
Atom   6C    basis set group =>   1
Atom   7H    basis set group =>   2
Atom   8H    basis set group =>   2
Atom   9N    basis set group =>   3
Atom  10H    basis set group =>   2
Atom  11H    basis set group =>   2
Atom  12C    basis set group =>   1
Atom  13H    basis set group =>   2
Atom  14H    basis set group =>   2
Atom  15H    basis set group =>   2

-------------------------------------
AUXILIARY/J BASIS SET IN INPUT FORMAT
-------------------------------------

 # Auxiliary/J basis set for element : H 
 NewAuxJGTO H 
 S 1 
   1      73.3373968349      1.0000000000
 S 1 
   1      40.7429982416      1.0000000000
 S 1 
   1      22.6349990231      1.0000000000
 S 1 
   1      12.5749994573      1.0000000000
 S 1 
   1       6.9861108096      1.0000000000
 S 1 
   1       3.8811726720      1.0000000000
 S 1 
   1       2.1562070400      1.0000000000
 S 1 
   1       1.1978928000      1.0000000000
 S 1 
   1       0.6654960000      1.0000000000
 S 1 
   1       0.3697200000      1.0000000000
 S 1 
   1       0.2054000000      1.0000000000
 P 1 
   1       3.9256000000      1.0000000000
 P 1 
   1       1.9628000000      1.0000000000
 P 1 
   1       0.9814000000      1.0000000000
 P 1 
   1       0.4907000000      1.0000000000
 D 1 
   1       3.7558400000      1.0000000000
 D 1 
   1       1.7072000000      1.0000000000
 D 1 
   1       0.7760000000      1.0000000000
 F 1 
   1       3.1790000000      1.0000000000
 F 1 
   1       1.4450000000      1.0000000000
  end;

 # Auxiliary/J basis set for element : C 
 NewAuxJGTO C 
 S 1 
   1     503.4992904519      1.0000000000
 S 1 
   1     279.7218280288      1.0000000000
 S 1 
   1     155.4010155716      1.0000000000
 S 1 
   1      86.3338975398      1.0000000000
 S 1 
   1      47.9632764110      1.0000000000
 S 1 
   1      26.6462646728      1.0000000000
 S 1 
   1      14.8034803738      1.0000000000
 S 1 
   1       8.2241557632      1.0000000000
 S 1 
   1       4.5689754240      1.0000000000
 S 1 
   1       2.5383196800      1.0000000000
 S 1 
   1       1.4101776000      1.0000000000
 S 1 
   1       0.7834320000      1.0000000000
 S 1 
   1       0.4352400000      1.0000000000
 S 1 
   1       0.2418000000      1.0000000000
 P 1 
   1      86.3338975398      1.0000000000
 P 1 
   1      47.9632764110      1.0000000000
 P 1 
   1      26.6462646728      1.0000000000
 P 1 
   1      14.8034803738      1.0000000000
 P 1 
   1       8.2241557632      1.0000000000
 P 1 
   1       4.5689754240      1.0000000000
 P 1 
   1       2.5383196800      1.0000000000
 P 1 
   1       1.4101776000      1.0000000000
 P 1 
   1       0.7834320000      1.0000000000
 P 1 
   1       0.4352400000      1.0000000000
 P 1 
   1       0.2418000000      1.0000000000
 D 1 
   1      47.9632764110      1.0000000000
 D 1 
   1      26.6462646728      1.0000000000
 D 1 
   1      14.8034803738      1.0000000000
 D 1 
   1       8.2241557632      1.0000000000
 D 1 
   1       4.5689754240      1.0000000000
 D 1 
   1       2.5383196800      1.0000000000
 D 1 
   1       1.4101776000      1.0000000000
 D 1 
   1       0.7834320000      1.0000000000
 D 1 
   1       0.4352400000      1.0000000000
 D 1 
   1       0.2418000000      1.0000000000
 F 1 
   1      10.2814958400      1.0000000000
 F 1 
   1       4.6734072000      1.0000000000
 F 1 
   1       2.1242760000      1.0000000000
 F 1 
   1       0.9655800000      1.0000000000
 F 1 
   1       0.4389000000      1.0000000000
 G 1 
   1       3.0782400000      1.0000000000
 G 1 
   1       1.3992000000      1.0000000000
 G 1 
   1       0.6360000000      1.0000000000
  end;

 # Auxiliary/J basis set for element : N 
 NewAuxJGTO N 
 S 1 
   1     718.3922878657      1.0000000000
 S 1 
   1     399.1068265920      1.0000000000
 S 1 
   1     221.7260147734      1.0000000000
 S 1 
   1     123.1811193185      1.0000000000
 S 1 
   1      68.4339551770      1.0000000000
 S 1 
   1      38.0188639872      1.0000000000
 S 1 
   1      21.1215911040      1.0000000000
 S 1 
   1      11.7342172800      1.0000000000
 S 1 
   1       6.5190096000      1.0000000000
 S 1 
   1       3.6216720000      1.0000000000
 S 1 
   1       2.0120400000      1.0000000000
 S 1 
   1       1.1178000000      1.0000000000
 S 1 
   1       0.6210000000      1.0000000000
 S 1 
   1       0.3450000000      1.0000000000
 P 1 
   1     123.1811193185      1.0000000000
 P 1 
   1      68.4339551770      1.0000000000
 P 1 
   1      38.0188639872      1.0000000000
 P 1 
   1      21.1215911040      1.0000000000
 P 1 
   1      11.7342172800      1.0000000000
 P 1 
   1       6.5190096000      1.0000000000
 P 1 
   1       3.6216720000      1.0000000000
 P 1 
   1       2.0120400000      1.0000000000
 P 1 
   1       1.1178000000      1.0000000000
 P 1 
   1       0.6210000000      1.0000000000
 P 1 
   1       0.3450000000      1.0000000000
 D 1 
   1      68.4339551770      1.0000000000
 D 1 
   1      38.0188639872      1.0000000000
 D 1 
   1      21.1215911040      1.0000000000
 D 1 
   1      11.7342172800      1.0000000000
 D 1 
   1       6.5190096000      1.0000000000
 D 1 
   1       3.6216720000      1.0000000000
 D 1 
   1       2.0120400000      1.0000000000
 D 1 
   1       1.1178000000      1.0000000000
 D 1 
   1       0.6210000000      1.0000000000
 D 1 
   1       0.3450000000      1.0000000000
 F 1 
   1      15.0275224000      1.0000000000
 F 1 
   1       6.8306920000      1.0000000000
 F 1 
   1       3.1048600000      1.0000000000
 F 1 
   1       1.4113000000      1.0000000000
 F 1 
   1       0.6415000000      1.0000000000
 G 1 
   1       4.5399200000      1.0000000000
 G 1 
   1       2.0636000000      1.0000000000
 G 1 
   1       0.9380000000      1.0000000000
  end;

---------------------------------
AUXILIARY/C BASIS SET INFORMATION
---------------------------------
There are 3 groups of distinct atoms

 Group   1 Type C   : 14s11p10d5f3g contracted to 14s11p10d5f3g pattern {11111111111111/11111111111/1111111111/11111/111}
 Group   2 Type H   : 11s4p3d2f contracted to 11s4p3d2f pattern {11111111111/1111/111/11}
 Group   3 Type N   : 14s11p10d5f3g contracted to 14s11p10d5f3g pattern {11111111111111/11111111111/1111111111/11111/111}

Atom   0C    basis set group =>   1
Atom   1H    basis set group =>   2
Atom   2H    basis set group =>   2
Atom   3C    basis set group =>   1
Atom   4H    basis set group =>   2
Atom   5H    basis set group =>   2
Atom   6C    basis set group =>   1
Atom   7H    basis set group =>   2
Atom   8H    basis set group =>   2
Atom   9N    basis set group =>   3
Atom  10H    basis set group =>   2
Atom  11H    basis set group =>   2
Atom  12C    basis set group =>   1
Atom  13H    basis set group =>   2
Atom  14H    basis set group =>   2
Atom  15H    basis set group =>   2

-------------------------------------
AUXILIARY/C BASIS SET IN INPUT FORMAT
-------------------------------------

 # Auxiliary/C basis set for element : H 
 NewAuxCGTO H 
 S 1 
   1      73.3373968349      1.0000000000
 S 1 
   1      40.7429982416      1.0000000000
 S 1 
   1      22.6349990231      1.0000000000
 S 1 
   1      12.5749994573      1.0000000000
 S 1 
   1       6.9861108096      1.0000000000
 S 1 
   1       3.8811726720      1.0000000000
 S 1 
   1       2.1562070400      1.0000000000
 S 1 
   1       1.1978928000      1.0000000000
 S 1 
   1       0.6654960000      1.0000000000
 S 1 
   1       0.3697200000      1.0000000000
 S 1 
   1       0.2054000000      1.0000000000
 P 1 
   1       3.9256000000      1.0000000000
 P 1 
   1       1.9628000000      1.0000000000
 P 1 
   1       0.9814000000      1.0000000000
 P 1 
   1       0.4907000000      1.0000000000
 D 1 
   1       3.7558400000      1.0000000000
 D 1 
   1       1.7072000000      1.0000000000
 D 1 
   1       0.7760000000      1.0000000000
 F 1 
   1       3.1790000000      1.0000000000
 F 1 
   1       1.4450000000      1.0000000000
  end;

 # Auxiliary/C basis set for element : C 
 NewAuxCGTO C 
 S 1 
   1     503.4992904519      1.0000000000
 S 1 
   1     279.7218280288      1.0000000000
 S 1 
   1     155.4010155716      1.0000000000
 S 1 
   1      86.3338975398      1.0000000000
 S 1 
   1      47.9632764110      1.0000000000
 S 1 
   1      26.6462646728      1.0000000000
 S 1 
   1      14.8034803738      1.0000000000
 S 1 
   1       8.2241557632      1.0000000000
 S 1 
   1       4.5689754240      1.0000000000
 S 1 
   1       2.5383196800      1.0000000000
 S 1 
   1       1.4101776000      1.0000000000
 S 1 
   1       0.7834320000      1.0000000000
 S 1 
   1       0.4352400000      1.0000000000
 S 1 
   1       0.2418000000      1.0000000000
 P 1 
   1      86.3338975398      1.0000000000
 P 1 
   1      47.9632764110      1.0000000000
 P 1 
   1      26.6462646728      1.0000000000
 P 1 
   1      14.8034803738      1.0000000000
 P 1 
   1       8.2241557632      1.0000000000
 P 1 
   1       4.5689754240      1.0000000000
 P 1 
   1       2.5383196800      1.0000000000
 P 1 
   1       1.4101776000      1.0000000000
 P 1 
   1       0.7834320000      1.0000000000
 P 1 
   1       0.4352400000      1.0000000000
 P 1 
   1       0.2418000000      1.0000000000
 D 1 
   1      47.9632764110      1.0000000000
 D 1 
   1      26.6462646728      1.0000000000
 D 1 
   1      14.8034803738      1.0000000000
 D 1 
   1       8.2241557632      1.0000000000
 D 1 
   1       4.5689754240      1.0000000000
 D 1 
   1       2.5383196800      1.0000000000
 D 1 
   1       1.4101776000      1.0000000000
 D 1 
   1       0.7834320000      1.0000000000
 D 1 
   1       0.4352400000      1.0000000000
 D 1 
   1       0.2418000000      1.0000000000
 F 1 
   1      10.2814958400      1.0000000000
 F 1 
   1       4.6734072000      1.0000000000
 F 1 
   1       2.1242760000      1.0000000000
 F 1 
   1       0.9655800000      1.0000000000
 F 1 
   1       0.4389000000      1.0000000000
 G 1 
   1       3.0782400000      1.0000000000
 G 1 
   1       1.3992000000      1.0000000000
 G 1 
   1       0.6360000000      1.0000000000
  end;

 # Auxiliary/C basis set for element : N 
 NewAuxCGTO N 
 S 1 
   1     718.3922878657      1.0000000000
 S 1 
   1     399.1068265920      1.0000000000
 S 1 
   1     221.7260147734      1.0000000000
 S 1 
   1     123.1811193185      1.0000000000
 S 1 
   1      68.4339551770      1.0000000000
 S 1 
   1      38.0188639872      1.0000000000
 S 1 
   1      21.1215911040      1.0000000000
 S 1 
   1      11.7342172800      1.0000000000
 S 1 
   1       6.5190096000      1.0000000000
 S 1 
   1       3.6216720000      1.0000000000
 S 1 
   1       2.0120400000      1.0000000000
 S 1 
   1       1.1178000000      1.0000000000
 S 1 
   1       0.6210000000      1.0000000000
 S 1 
   1       0.3450000000      1.0000000000
 P 1 
   1     123.1811193185      1.0000000000
 P 1 
   1      68.4339551770      1.0000000000
 P 1 
   1      38.0188639872      1.0000000000
 P 1 
   1      21.1215911040      1.0000000000
 P 1 
   1      11.7342172800      1.0000000000
 P 1 
   1       6.5190096000      1.0000000000
 P 1 
   1       3.6216720000      1.0000000000
 P 1 
   1       2.0120400000      1.0000000000
 P 1 
   1       1.1178000000      1.0000000000
 P 1 
   1       0.6210000000      1.0000000000
 P 1 
   1       0.3450000000      1.0000000000
 D 1 
   1      68.4339551770      1.0000000000
 D 1 
   1      38.0188639872      1.0000000000
 D 1 
   1      21.1215911040      1.0000000000
 D 1 
   1      11.7342172800      1.0000000000
 D 1 
   1       6.5190096000      1.0000000000
 D 1 
   1       3.6216720000      1.0000000000
 D 1 
   1       2.0120400000      1.0000000000
 D 1 
   1       1.1178000000      1.0000000000
 D 1 
   1       0.6210000000      1.0000000000
 D 1 
   1       0.3450000000      1.0000000000
 F 1 
   1      15.0275224000      1.0000000000
 F 1 
   1       6.8306920000      1.0000000000
 F 1 
   1       3.1048600000      1.0000000000
 F 1 
   1       1.4113000000      1.0000000000
 F 1 
   1       0.6415000000      1.0000000000
 G 1 
   1       4.5399200000      1.0000000000
 G 1 
   1       2.0636000000      1.0000000000
 G 1 
   1       0.9380000000      1.0000000000
  end;

----------------------------------
AUXILIARY/JK BASIS SET INFORMATION
----------------------------------
There are 3 groups of distinct atoms

 Group   1 Type C   : 14s11p10d5f3g contracted to 14s11p10d5f3g pattern {11111111111111/11111111111/1111111111/11111/111}
 Group   2 Type H   : 11s4p3d2f contracted to 11s4p3d2f pattern {11111111111/1111/111/11}
 Group   3 Type N   : 14s11p10d5f3g contracted to 14s11p10d5f3g pattern {11111111111111/11111111111/1111111111/11111/111}

Atom   0C    basis set group =>   1
Atom   1H    basis set group =>   2
Atom   2H    basis set group =>   2
Atom   3C    basis set group =>   1
Atom   4H    basis set group =>   2
Atom   5H    basis set group =>   2
Atom   6C    basis set group =>   1
Atom   7H    basis set group =>   2
Atom   8H    basis set group =>   2
Atom   9N    basis set group =>   3
Atom  10H    basis set group =>   2
Atom  11H    basis set group =>   2
Atom  12C    basis set group =>   1
Atom  13H    basis set group =>   2
Atom  14H    basis set group =>   2
Atom  15H    basis set group =>   2

--------------------------------------
AUXILIARY/JK BASIS SET IN INPUT FORMAT
--------------------------------------

 # Auxiliary/JK basis set for element : H 
 NewAuxJKGTO H 
 S 1 
   1      73.3373968349      1.0000000000
 S 1 
   1      40.7429982416      1.0000000000
 S 1 
   1      22.6349990231      1.0000000000
 S 1 
   1      12.5749994573      1.0000000000
 S 1 
   1       6.9861108096      1.0000000000
 S 1 
   1       3.8811726720      1.0000000000
 S 1 
   1       2.1562070400      1.0000000000
 S 1 
   1       1.1978928000      1.0000000000
 S 1 
   1       0.6654960000      1.0000000000
 S 1 
   1       0.3697200000      1.0000000000
 S 1 
   1       0.2054000000      1.0000000000
 P 1 
   1       3.9256000000      1.0000000000
 P 1 
   1       1.9628000000      1.0000000000
 P 1 
   1       0.9814000000      1.0000000000
 P 1 
   1       0.4907000000      1.0000000000
 D 1 
   1       3.7558400000      1.0000000000
 D 1 
   1       1.7072000000      1.0000000000
 D 1 
   1       0.7760000000      1.0000000000
 F 1 
   1       3.1790000000      1.0000000000
 F 1 
   1       1.4450000000      1.0000000000
  end;

 # Auxiliary/JK basis set for element : C 
 NewAuxJKGTO C 
 S 1 
   1     503.4992904519      1.0000000000
 S 1 
   1     279.7218280288      1.0000000000
 S 1 
   1     155.4010155716      1.0000000000
 S 1 
   1      86.3338975398      1.0000000000
 S 1 
   1      47.9632764110      1.0000000000
 S 1 
   1      26.6462646728      1.0000000000
 S 1 
   1      14.8034803738      1.0000000000
 S 1 
   1       8.2241557632      1.0000000000
 S 1 
   1       4.5689754240      1.0000000000
 S 1 
   1       2.5383196800      1.0000000000
 S 1 
   1       1.4101776000      1.0000000000
 S 1 
   1       0.7834320000      1.0000000000
 S 1 
   1       0.4352400000      1.0000000000
 S 1 
   1       0.2418000000      1.0000000000
 P 1 
   1      86.3338975398      1.0000000000
 P 1 
   1      47.9632764110      1.0000000000
 P 1 
   1      26.6462646728      1.0000000000
 P 1 
   1      14.8034803738      1.0000000000
 P 1 
   1       8.2241557632      1.0000000000
 P 1 
   1       4.5689754240      1.0000000000
 P 1 
   1       2.5383196800      1.0000000000
 P 1 
   1       1.4101776000      1.0000000000
 P 1 
   1       0.7834320000      1.0000000000
 P 1 
   1       0.4352400000      1.0000000000
 P 1 
   1       0.2418000000      1.0000000000
 D 1 
   1      47.9632764110      1.0000000000
 D 1 
   1      26.6462646728      1.0000000000
 D 1 
   1      14.8034803738      1.0000000000
 D 1 
   1       8.2241557632      1.0000000000
 D 1 
   1       4.5689754240      1.0000000000
 D 1 
   1       2.5383196800      1.0000000000
 D 1 
   1       1.4101776000      1.0000000000
 D 1 
   1       0.7834320000      1.0000000000
 D 1 
   1       0.4352400000      1.0000000000
 D 1 
   1       0.2418000000      1.0000000000
 F 1 
   1      10.2814958400      1.0000000000
 F 1 
   1       4.6734072000      1.0000000000
 F 1 
   1       2.1242760000      1.0000000000
 F 1 
   1       0.9655800000      1.0000000000
 F 1 
   1       0.4389000000      1.0000000000
 G 1 
   1       3.0782400000      1.0000000000
 G 1 
   1       1.3992000000      1.0000000000
 G 1 
   1       0.6360000000      1.0000000000
  end;

 # Auxiliary/JK basis set for element : N 
 NewAuxJKGTO N 
 S 1 
   1     718.3922878657      1.0000000000
 S 1 
   1     399.1068265920      1.0000000000
 S 1 
   1     221.7260147734      1.0000000000
 S 1 
   1     123.1811193185      1.0000000000
 S 1 
   1      68.4339551770      1.0000000000
 S 1 
   1      38.0188639872      1.0000000000
 S 1 
   1      21.1215911040      1.0000000000
 S 1 
   1      11.7342172800      1.0000000000
 S 1 
   1       6.5190096000      1.0000000000
 S 1 
   1       3.6216720000      1.0000000000
 S 1 
   1       2.0120400000      1.0000000000
 S 1 
   1       1.1178000000      1.0000000000
 S 1 
   1       0.6210000000      1.0000000000
 S 1 
   1       0.3450000000      1.0000000000
 P 1 
   1     123.1811193185      1.0000000000
 P 1 
   1      68.4339551770      1.0000000000
 P 1 
   1      38.0188639872      1.0000000000
 P 1 
   1      21.1215911040      1.0000000000
 P 1 
   1      11.7342172800      1.0000000000
 P 1 
   1       6.5190096000      1.0000000000
 P 1 
   1       3.6216720000      1.0000000000
 P 1 
   1       2.0120400000      1.0000000000
 P 1 
   1       1.1178000000      1.0000000000
 P 1 
   1       0.6210000000      1.0000000000
 P 1 
   1       0.3450000000      1.0000000000
 D 1 
   1      68.4339551770      1.0000000000
 D 1 
   1      38.0188639872      1.0000000000
 D 1 
   1      21.1215911040      1.0000000000
 D 1 
   1      11.7342172800      1.0000000000
 D 1 
   1       6.5190096000      1.0000000000
 D 1 
   1       3.6216720000      1.0000000000
 D 1 
   1       2.0120400000      1.0000000000
 D 1 
   1       1.1178000000      1.0000000000
 D 1 
   1       0.6210000000      1.0000000000
 D 1 
   1       0.3450000000      1.0000000000
 F 1 
   1      15.0275224000      1.0000000000
 F 1 
   1       6.8306920000      1.0000000000
 F 1 
   1       3.1048600000      1.0000000000
 F 1 
   1       1.4113000000      1.0000000000
 F 1 
   1       0.6415000000      1.0000000000
 G 1 
   1       4.5399200000      1.0000000000
 G 1 
   1       2.0636000000      1.0000000000
 G 1 
   1       0.9380000000      1.0000000000
  end;



           ************************************************************
           *        Program running with 8 parallel MPI-processes     *
           *              working on a common directory               *
           ************************************************************
------------------------------------------------------------------------------
                           ORCA GTO INTEGRAL CALCULATION
                           -- RI-GTO INTEGRALS CHOSEN --
------------------------------------------------------------------------------

                         BASIS SET STATISTICS AND STARTUP INFO

Gaussian basis set:
 # of primitive gaussian shells          ...  218
 # of primitive gaussian functions       ...  426
 # of contracted shells                  ...  116
 # of contracted basis functions         ...  304
 Highest angular momentum                ...    3
 Maximum contraction depth               ...    8
Auxiliary gaussian basis set:
 # of primitive gaussian shells          ...  435
 # of primitive gaussian functions       ... 1367
 # of contracted shells                  ...  435
 # of contracted aux-basis functions     ... 1367
 Highest angular momentum                ...    4
 Maximum contraction depth               ...    1
Ratio of auxiliary to basis functions    ...  4.50
Integral package used                  ... LIBINT
 One Electron integrals                  ... done
 Ordering auxiliary basis shells         ... done
 Integral threshhold             Thresh  ...  2.500e-11
 Primitive cut-off               TCut    ...  2.500e-12
 Pre-screening matrix                    ... done
 Shell pair data                         ... 
 Ordering of the shell pairs             ... done (   0.001 sec) 6333 of 6786 pairs
 Determination of significant pairs      ... done (   0.000 sec)
 Creation of shell pair data             ... done (   0.001 sec)
 Storage of shell pair data              ... done (   0.022 sec)
 Shell pair data done in (   0.024 sec)
 Computing two index integrals           ... done
 Cholesky decomposition of the V-matrix  ... done


Timings:
 Total evaluation time                   ...   0.375 sec (  0.006 min)
 One electron matrix time                ...   0.047 sec (  0.001 min) = 12.6%
 Schwartz matrix evaluation time         ...   0.131 sec (  0.002 min) = 34.9%
 Two index repulsion integral time       ...   0.051 sec (  0.001 min) = 13.5%
 Cholesky decomposition of V             ...   0.106 sec (  0.002 min) = 28.1%
 Three index repulsion integral time     ...   0.000 sec (  0.000 min) =  0.0%



           ************************************************************
           *        Program running with 8 parallel MPI-processes     *
           *              working on a common directory               *
           ************************************************************
-------------------------------------------------------------------------------
                                 ORCA SCF
-------------------------------------------------------------------------------

------------
SCF SETTINGS
------------
Hamiltonian:
 Density Functional     Method          .... DFT(GTOs)
 Exchange Functional    Exchange        .... B88
   X-Alpha parameter    XAlpha          ....  0.666667
   Becke's b parameter  XBeta           ....  0.004200
 Correlation Functional Correlation     .... LYP
 LDA part of GGA corr.  LDAOpt          .... VWN-5
 Gradients option       PostSCFGGA      .... off
 Hybrid DFT is turned on
   Fraction HF Exchange ScalHFX         ....  0.200000
   Scaling of DF-GGA-X  ScalDFX         ....  0.720000
   Scaling of DF-GGA-C  ScalDFC         ....  0.810000
   Scaling of DF-LDA-C  ScalLDAC        ....  1.000000
   Perturbative correction              ....  0.000000
   Density functional embedding theory  .... OFF
   NL short-range parameter             ....  4.800000
 RI-approximation to the Coulomb term is turned on
   Number of auxiliary basis functions  .... 1367
   RIJ-COSX (HFX calculated with COS-X)).... on


General Settings:
 Integral files         IntName         .... /tmp/slurm-scratch/opt+freq.42/opt+freq
 Hartree-Fock type      HFTyp           .... RHF
 Total Charge           Charge          ....    0
 Multiplicity           Mult            ....    1
 Number of Electrons    NEL             ....   42
 Basis Dimension        Dim             ....  304
 Nuclear Repulsion      ENuc            ....    185.7417691422 Eh

Convergence Acceleration:
 DIIS                   CNVDIIS         .... on
   Start iteration      DIISMaxIt       ....    12
   Startup error        DIISStart       ....  0.200000
   # of expansion vecs  DIISMaxEq       ....     5
   Bias factor          DIISBfac        ....   1.050
   Max. coefficient     DIISMaxC        ....  10.000
 Newton-Raphson         CNVNR           .... off
 SOSCF                  CNVSOSCF        .... on
   Start iteration      SOSCFMaxIt      ....   150
   Startup grad/error   SOSCFStart      ....  0.003300
 Level Shifting         CNVShift        .... on
   Level shift para.    LevelShift      ....    0.2500
   Turn off err/grad.   ShiftErr        ....    0.0010
 Zerner damping         CNVZerner       .... off
 Static damping         CNVDamp         .... on
   Fraction old density DampFac         ....    0.7000
   Max. Damping (<1)    DampMax         ....    0.9800
   Min. Damping (>=0)   DampMin         ....    0.0000
   Turn off err/grad.   DampErr         ....    0.1000
 Fernandez-Rico         CNVRico         .... off

SCF Procedure:
 Maximum # iterations   MaxIter         ....   125
 SCF integral mode      SCFMode         .... Direct
   Integral package                     .... LIBINT
 Reset frequency        DirectResetFreq ....    20
 Integral Threshold     Thresh          ....  2.500e-11 Eh
 Primitive CutOff       TCut            ....  2.500e-12 Eh

Convergence Tolerance:
 Convergence Check Mode ConvCheckMode   .... Total+1el-Energy
 Convergence forced     ConvForced      .... 0
 Energy Change          TolE            ....  1.000e-08 Eh
 1-El. energy change                    ....  1.000e-05 Eh
 Orbital Gradient       TolG            ....  1.000e-05
 Orbital Rotation angle TolX            ....  1.000e-05
 DIIS Error             TolErr          ....  5.000e-07


Diagonalization of the overlap matrix:
Smallest eigenvalue                        ... 4.311e-04
Time for diagonalization                   ...    0.033 sec
Threshold for overlap eigenvalues          ... 1.000e-08
Number of eigenvalues below threshold      ... 0
Time for construction of square roots      ...    0.006 sec
Total time needed                          ...    0.039 sec

-------------------
DFT GRID GENERATION
-------------------

General Integration Accuracy     IntAcc      ...  4.670
Radial Grid Type                 RadialGrid  ... Gauss-Chebyshev
Angular Grid (max. acc.)         AngularGrid ... Lebedev-302
Angular grid pruning method      GridPruning ... 3 (G Style)
Weight generation scheme         WeightScheme... Becke
Basis function cutoff            BFCut       ...    1.0000e-11
Integration weight cutoff        WCut        ...    1.0000e-14
Grids for H and He will be reduced by one unit

# of grid points (after initial pruning)     ...  68394 (   0.0 sec)
# of grid points (after weights+screening)   ...  62761 (   0.0 sec)
nearest neighbour list constructed           ...    0.0 sec
Grid point re-assignment to atoms done       ...    0.0 sec
Grid point division into batches done        ...    0.2 sec
Reduced shell lists constructed in    0.2 sec

Total number of grid points                  ...    62761
Total number of batches                      ...      988
Average number of points per batch           ...       63
Average number of grid points per atom       ...     3923
Average number of shells per batch           ...    80.97 (69.80%)
Average number of basis functions per batch  ...   203.48 (66.93%)
Average number of large shells per batch     ...    63.01 (77.82%)
Average number of large basis fcns per batch ...   155.33 (76.34%)
Maximum spatial batch extension              ...  15.02, 16.29, 16.05 au
Average spatial batch extension              ...   0.30,  0.31,  0.31 au

Time for grid setup =    0.295 sec

------------------------------
INITIAL GUESS: MODEL POTENTIAL
------------------------------
Loading Hartree-Fock densities                     ... done
Calculating cut-offs                               ... done
Setting up the integral package                    ... done
Initializing the effective Hamiltonian             ... done
Starting the Coulomb interaction                   ... done (   0.0 sec)
Reading the grid                                   ... done
Mapping shells                                     ... done
Starting the XC term evaluation                    ... done (   0.2 sec)
  promolecular density results
     # of electrons  =     41.994287496
     EX              =    -30.409933057
     EC              =     -1.339170500
     EX+EC           =    -31.749103557
Transforming the Hamiltonian                       ... done (   0.0 sec)
Diagonalizing the Hamiltonian                      ... done (   0.0 sec)
Back transforming the eigenvectors                 ... done (   0.0 sec)
Now organizing SCF variables                       ... done
                      ------------------
                      INITIAL GUESS DONE (   0.6 sec)
                      ------------------
--------------------
COSX GRID GENERATION
--------------------

General Integration Accuracy     IntAcc      ...  3.340
Radial Grid Type                 RadialGrid  ... Gauss-Chebyshev
Angular Grid (max. acc.)         AngularGrid ... Lebedev-50
Angular grid pruning method      GridPruning ... 3 (G Style)
Weight generation scheme         WeightScheme... Becke
Basis function cutoff            BFCut       ...    1.0000e-11
Integration weight cutoff        WCut        ...    1.0000e-14
Grids for H and He will be reduced by one unit

# of grid points (after initial pruning)     ...   6406 (   0.0 sec)
# of grid points (after weights+screening)   ...   5958 (   0.0 sec)
nearest neighbour list constructed           ...    0.0 sec
Grid point re-assignment to atoms done       ...    0.0 sec
Grid point division into batches done        ...    0.0 sec
Reduced shell lists constructed in    0.0 sec

Total number of grid points                  ...     5958
Total number of batches                      ...      102
Average number of points per batch           ...       58
Average number of grid points per atom       ...      372
Average number of shells per batch           ...    92.71 (79.93%)
Average number of basis functions per batch  ...   236.43 (77.77%)
Average number of large shells per batch     ...    75.36 (81.28%)
Average number of large basis fcns per batch ...   190.07 (80.39%)
Maximum spatial batch extension              ...  10.91, 13.43, 15.49 au
Average spatial batch extension              ...   0.46,  0.45,  0.51 au

Overlap Fitting                  UseSFitting ... on
Constructing numerical overlap ... done (      0.0 sec)
Inverting numerical overlap    ... done (      0.0 sec)
Obtaining analytic overlap     ... done (      0.0 sec)
Final contraction and storage  ... done (      0.0 sec)


General Integration Accuracy     IntAcc      ...  4.010
Radial Grid Type                 RadialGrid  ... Gauss-Chebyshev
Angular Grid (max. acc.)         AngularGrid ... Lebedev-50
Angular grid pruning method      GridPruning ... 3 (G Style)
Weight generation scheme         WeightScheme... Becke
Basis function cutoff            BFCut       ...    1.0000e-11
Integration weight cutoff        WCut        ...    1.0000e-14
Grids for H and He will be reduced by one unit

# of grid points (after initial pruning)     ...  10198 (   0.0 sec)
# of grid points (after weights+screening)   ...   9447 (   0.0 sec)
nearest neighbour list constructed           ...    0.0 sec
Grid point re-assignment to atoms done       ...    0.0 sec
Grid point division into batches done        ...    0.0 sec
Reduced shell lists constructed in    0.0 sec

Total number of grid points                  ...     9447
Total number of batches                      ...      155
Average number of points per batch           ...       60
Average number of grid points per atom       ...      590
Average number of shells per batch           ...    90.00 (77.59%)
Average number of basis functions per batch  ...   227.90 (74.97%)
Average number of large shells per batch     ...    70.48 (78.31%)
Average number of large basis fcns per batch ...   175.90 (77.18%)
Maximum spatial batch extension              ...  12.22, 16.09, 17.99 au
Average spatial batch extension              ...   0.50,  0.57,  0.60 au

Overlap Fitting                  UseSFitting ... on
Constructing numerical overlap ... done (      0.0 sec)
Inverting numerical overlap    ... done (      0.0 sec)
Obtaining analytic overlap     ... done (      0.0 sec)
Final contraction and storage  ... done (      0.0 sec)


General Integration Accuracy     IntAcc      ...  4.340
Radial Grid Type                 RadialGrid  ... Gauss-Chebyshev
Angular Grid (max. acc.)         AngularGrid ... Lebedev-194
Angular grid pruning method      GridPruning ... 3 (G Style)
Weight generation scheme         WeightScheme... Becke
Basis function cutoff            BFCut       ...    1.0000e-11
Integration weight cutoff        WCut        ...    1.0000e-14
Grids for H and He will be reduced by one unit

# of grid points (after initial pruning)     ...  33260 (   0.0 sec)
# of grid points (after weights+screening)   ...  30833 (   0.0 sec)
nearest neighbour list constructed           ...    0.0 sec
Grid point re-assignment to atoms done       ...    0.0 sec
Grid point division into batches done        ...    0.0 sec
Reduced shell lists constructed in    0.1 sec

Total number of grid points                  ...    30833
Total number of batches                      ...      490
Average number of points per batch           ...       62
Average number of grid points per atom       ...     1927
Average number of shells per batch           ...    84.60 (72.93%)
Average number of basis functions per batch  ...   213.17 (70.12%)
Average number of large shells per batch     ...    66.67 (78.80%)
Average number of large basis fcns per batch ...   165.75 (77.75%)
Maximum spatial batch extension              ...  15.06, 20.44, 14.71 au
Average spatial batch extension              ...   0.36,  0.38,  0.38 au

Overlap Fitting                  UseSFitting ... on
Constructing numerical overlap ... done (      0.0 sec)
Inverting numerical overlap    ... done (      0.0 sec)
Obtaining analytic overlap     ... done (      0.0 sec)
Final contraction and storage  ... done (      0.0 sec)

Time for X-Grid setup             =    0.282 sec

--------------------
CPCM SOLVATION MODEL
--------------------
CPCM parameters:
  Epsilon                                         ...       8.9300
  Refrac                                          ...       1.0000
  Rsolv                                           ...       1.3000
  Surface type                                    ...    GEPOL SES
  Epsilon function type                           ...         CPCM
Solvent:                                     ... DICHLOROMETHANE
SMD-CDS solvent descriptors:
  Soln                                       ...    1.4242
  Soln25                                     ...    1.4212
  Sola                                       ...    0.1000
  Solb                                       ...    0.0500
  Solg                                       ...   39.1500
  Solc                                       ...    0.0000
  Solh                                       ...    0.6670
Radii:
 Radius for C  used is    3.4960 Bohr (=   1.8500 Ang.)
 Radius for H  used is    2.2677 Bohr (=   1.2000 Ang.)
 Radius for N  used is    3.5716 Bohr (=   1.8900 Ang.)
Calculating surface                               ...        done! (  0.0s)
GEPOL surface points                              ...          631
GEPOL Volume                                      ...     696.6462
GEPOL Surface-area                                ...     453.8385
Calculating surface distance matrix               ...        done! (  0.0s)
Performing Cholesky decomposition & store         ...        done! (  0.0s)
Overall time for CPCM initialization              ...                 0.0s
--------------
SCF ITERATIONS
--------------
ITER       Energy         Delta-E        Max-DP      RMS-DP      [F,P]     Damp
               ***  Starting incremental Fock matrix formation  ***
  0   -213.4876520691   0.000000000000 0.08181320  0.00098819  0.2898578 0.7000
  1   -213.6068445799  -0.119192510857 0.05954155  0.00076085  0.1291073 0.7000
                               ***Turning on DIIS***
  2   -213.6533699638  -0.046525383872 0.07405417  0.00118315  0.0407809 0.0000
  3   -213.7195320730  -0.066162109211 0.04462381  0.00054365  0.0729202 0.0000
  4   -213.7390050597  -0.019472986707 0.01035748  0.00016209  0.0143493 0.0000
  5   -213.7399858031  -0.000980743399 0.00520297  0.00006948  0.0071016 0.0000
                      *** Initiating the SOSCF procedure ***
                           *** Shutting down DIIS ***
                      *** Re-Reading the Fockian *** 
                      *** Removing any level shift *** 
ITER      Energy       Delta-E        Grad      Rot      Max-DP    RMS-DP
  6   -213.74007484  -0.0000890395  0.000321  0.000321  0.001868  0.000036
               *** Restarting incremental Fock matrix formation ***
  7   -213.74007062   0.0000042218  0.000066  0.000110  0.000246  0.000004
  8   -213.74007053   0.0000000887  0.000078  0.000076  0.000095  0.000002
                  ***Gradient check signals convergence***
              ***Rediagonalizing the Fockian in SOSCF/NRSCF***

               *****************************************************
               *                     SUCCESS                       *
               *           SCF CONVERGED AFTER   9 CYCLES          *
               *****************************************************

Setting up the final grid:

General Integration Accuracy     IntAcc      ...  5.010
Radial Grid Type                 RadialGrid  ... Gauss-Chebyshev
Angular Grid (max. acc.)         AngularGrid ... Lebedev-434
Angular grid pruning method      GridPruning ... 3 (G Style)
Weight generation scheme         WeightScheme... Becke
Basis function cutoff            BFCut       ...    1.0000e-11
Integration weight cutoff        WCut        ...    1.0000e-14
Grids for H and He will be reduced by one unit

# of grid points (after initial pruning)     ... 126994 (   0.0 sec)
# of grid points (after weights+screening)   ... 116312 (   0.0 sec)
nearest neighbour list constructed           ...    0.0 sec
Grid point re-assignment to atoms done       ...    0.0 sec
Grid point division into batches done        ...    0.7 sec
Reduced shell lists constructed in    0.8 sec

Total number of grid points                  ...   116312
Total number of batches                      ...     1823
Average number of points per batch           ...       63
Average number of grid points per atom       ...     7270
Average number of shells per batch           ...    79.40 (68.45%)
Average number of basis functions per batch  ...   198.94 (65.44%)
Average number of large shells per batch     ...    61.52 (77.48%)
Average number of large basis fcns per batch ...   151.07 (75.93%)
Maximum spatial batch extension              ...  12.85, 14.30, 13.62 au
Average spatial batch extension              ...   0.25,  0.25,  0.25 au

Final grid set up in    0.9 sec
Final integration                            ... done (   0.4 sec)
Change in XC energy                          ...    -0.000004739
Integrated number of electrons               ...    41.999984287
Previous integrated no of electrons          ...    41.999913452
Old exchange energy                            =     -6.256077971 Eh
New exchange energy                            =     -6.255846878 Eh
Exchange energy change after final integration =      0.000231093 Eh
Total energy after final integration           =   -213.739844581 Eh
Final COS-X integration done in                =     4.376 sec

SMD CDS free energy correction energy :                -1.45340     Kcal/mol
Total Energy after SMD CDS correction =              -213.742160729 Eh

----------------
TOTAL SCF ENERGY
----------------

Total Energy       :         -213.74216073 Eh           -5816.21988 eV

Components:
Nuclear Repulsion  :          185.74176914 Eh            5054.29049 eV
Electronic Energy  :         -399.48392987 Eh          -10870.51038 eV
One Electron Energy:         -654.73895666 Eh          -17816.35278 eV
Two Electron Energy:          255.25502679 Eh            6945.84240 eV
CPCM Dielectric    :           -0.00748495 Eh              -0.20368 eV
SMD CDS (Gcds)     :           -0.00231615 Eh              -0.06303 eV

Virial components:
Potential Energy   :         -426.09010380 Eh          -11594.50118 eV
Kinetic Energy     :          212.34794307 Eh            5778.28129 eV
Virial Ratio       :            2.00656572


DFT components:
N(Alpha)           :       20.999992143659 electrons
N(Beta)            :       20.999992143659 electrons
N(Total)           :       41.999984287318 electrons
E(X)               :      -24.799568389222 Eh       
E(C)               :       -1.593171852828 Eh       
E(XC)              :      -26.392740242050 Eh       
DFET-embed. en.    :        0.000000000000 Eh       
CPCM Solvation Model Properties:
Surface-charge          :           -0.04374413
Charge-correction       :           -0.00012408 Eh              -0.00338 eV
Free-energy (cav+disp)  :            0.00347503 Eh               0.09456 eV
Corrected G(solv)       :         -213.73880978 Eh           -5816.12870 eV

---------------
SCF CONVERGENCE
---------------

  Last Energy change         ...   -4.0256e-07  Tolerance :   1.0000e-08
  Last MAX-Density change    ...    3.5527e-15  Tolerance :   1.0000e-07
  Last RMS-Density change    ...    1.7472e-17  Tolerance :   5.0000e-09
  Last Orbital Gradient      ...    2.0415e-06  Tolerance :   1.0000e-05
  Last Orbital Rotation      ...    7.0040e-06  Tolerance :   1.0000e-05

             **** THE GBW FILE WAS UPDATED (/tmp/slurm-scratch/opt+freq.42/opt+freq.gbw) ****
             **** DENSITY FILE WAS UPDATED (/tmp/slurm-scratch/opt+freq.42/opt+freq.scfp) ****
             **** ENERGY FILE WAS UPDATED (/tmp/slurm-scratch/opt+freq.42/opt+freq.en.tmp) ****
             **** THE GBW FILE WAS UPDATED (/tmp/slurm-scratch/opt+freq.42/opt+freq.gbw) ****
             **** DENSITY FILE WAS UPDATED (/tmp/slurm-scratch/opt+freq.42/opt+freq.scfp) ****
----------------
ORBITAL ENERGIES
----------------

  NO   OCC          E(Eh)            E(eV) 
   0   2.0000     -14.283181      -388.6651 
   1   2.0000     -10.179563      -277.0000 
   2   2.0000     -10.156368      -276.3688 
   3   2.0000     -10.152734      -276.2699 
   4   2.0000     -10.148952      -276.1670 
   5   2.0000      -0.869789       -23.6682 
   6   2.0000      -0.778012       -21.1708 
   7   2.0000      -0.698369       -19.0036 
   8   2.0000      -0.607492       -16.5307 
   9   2.0000      -0.570155       -15.5147 
  10   2.0000      -0.478743       -13.0273 
  11   2.0000      -0.458648       -12.4805 
  12   2.0000      -0.434554       -11.8248 
  13   2.0000      -0.410569       -11.1722 
  14   2.0000      -0.398954       -10.8561 
  15   2.0000      -0.368920       -10.0388 
  16   2.0000      -0.345345        -9.3973 
  17   2.0000      -0.325306        -8.8520 
  18   2.0000      -0.320975        -8.7342 
  19   2.0000      -0.315692        -8.5904 
  20   2.0000      -0.237151        -6.4532 
  21   0.0000       0.046235         1.2581 
  22   0.0000       0.055129         1.5001 
  23   0.0000       0.075157         2.0451 
  24   0.0000       0.082682         2.2499 
  25   0.0000       0.091678         2.4947 
  26   0.0000       0.117512         3.1977 
  27   0.0000       0.133807         3.6411 
  28   0.0000       0.140374         3.8198 
  29   0.0000       0.141162         3.8412 
  30   0.0000       0.151704         4.1281 
  31   0.0000       0.162961         4.4344 
  32   0.0000       0.186843         5.0843 
  33   0.0000       0.203957         5.5500 
  34   0.0000       0.211231         5.7479 
  35   0.0000       0.246556         6.7091 
  36   0.0000       0.265351         7.2206 
  37   0.0000       0.275719         7.5027 
  38   0.0000       0.314550         8.5593 
  39   0.0000       0.319403         8.6914 
  40   0.0000       0.322923         8.7872 
  41   0.0000       0.338529         9.2118 
  42   0.0000       0.349943         9.5224 
  43   0.0000       0.386411        10.5148 
  44   0.0000       0.412835        11.2338 
  45   0.0000       0.422110        11.4862 
  46   0.0000       0.425255        11.5718 
  47   0.0000       0.436442        11.8762 
  48   0.0000       0.447455        12.1759 
  49   0.0000       0.466019        12.6810 
  50   0.0000       0.476577        12.9683 
  51   0.0000       0.481076        13.0908 
  52   0.0000       0.484535        13.1849 
  53   0.0000       0.490084        13.3359 
  54   0.0000       0.494966        13.4687 
  55   0.0000       0.501542        13.6476 
  56   0.0000       0.507302        13.8044 
  57   0.0000       0.515298        14.0220 
  58   0.0000       0.519793        14.1443 
  59   0.0000       0.548948        14.9376 
  60   0.0000       0.563715        15.3395 
  61   0.0000       0.578439        15.7401 
  62   0.0000       0.607258        16.5243 
  63   0.0000       0.625175        17.0119 
  64   0.0000       0.679479        18.4896 
  65   0.0000       0.718879        19.5617 
  66   0.0000       0.734022        19.9737 
  67   0.0000       0.749721        20.4009 
  68   0.0000       0.766879        20.8678 
  69   0.0000       0.769910        20.9503 
  70   0.0000       0.811675        22.0868 
  71   0.0000       0.821637        22.3579 
  72   0.0000       0.851078        23.1590 
  73   0.0000       0.867579        23.6080 
  74   0.0000       0.892621        24.2894 
  75   0.0000       0.907757        24.7013 
  76   0.0000       0.935569        25.4581 
  77   0.0000       0.946269        25.7493 
  78   0.0000       0.983331        26.7578 
  79   0.0000       1.007979        27.4285 
  80   0.0000       1.021390        27.7934 
  81   0.0000       1.033879        28.1333 
  82   0.0000       1.039344        28.2820 
  83   0.0000       1.075583        29.2681 
  84   0.0000       1.080746        29.4086 
  85   0.0000       1.093345        29.7514 
  86   0.0000       1.104437        30.0533 
  87   0.0000       1.111227        30.2380 
  88   0.0000       1.127501        30.6809 
  89   0.0000       1.141772        31.0692 
  90   0.0000       1.170764        31.8581 
  91   0.0000       1.186248        32.2795 
  92   0.0000       1.195448        32.5298 
  93   0.0000       1.204128        32.7660 
  94   0.0000       1.204853        32.7857 
  95   0.0000       1.227993        33.4154 
  96   0.0000       1.248426        33.9714 
  97   0.0000       1.262320        34.3495 
  98   0.0000       1.266930        34.4749 
  99   0.0000       1.285337        34.9758 
 100   0.0000       1.291215        35.1357 
 101   0.0000       1.325566        36.0705 
 102   0.0000       1.337694        36.4005 
 103   0.0000       1.340793        36.4848 
 104   0.0000       1.368851        37.2483 
 105   0.0000       1.389142        37.8005 
 106   0.0000       1.404706        38.2240 
 107   0.0000       1.406334        38.2683 
 108   0.0000       1.442828        39.2613 
 109   0.0000       1.456394        39.6305 
 110   0.0000       1.470540        40.0154 
 111   0.0000       1.488667        40.5087 
 112   0.0000       1.511247        41.1231 
 113   0.0000       1.554001        42.2865 
 114   0.0000       1.559556        42.4377 
 115   0.0000       1.579674        42.9851 
 116   0.0000       1.583547        43.0905 
 117   0.0000       1.628849        44.3232 
 118   0.0000       1.642223        44.6872 
 119   0.0000       1.676773        45.6273 
 120   0.0000       1.695891        46.1476 
 121   0.0000       1.706081        46.4248 
 122   0.0000       1.783066        48.5197 
 123   0.0000       1.806572        49.1593 
 124   0.0000       1.853017        50.4232 
 125   0.0000       2.217923        60.3527 
 126   0.0000       2.267142        61.6921 
 127   0.0000       2.297958        62.5306 
 128   0.0000       2.317592        63.0649 
 129   0.0000       2.343861        63.7797 
 130   0.0000       2.379549        64.7508 
 131   0.0000       2.395063        65.1730 
 132   0.0000       2.430131        66.1272 
 133   0.0000       2.434869        66.2561 
 134   0.0000       2.479578        67.4728 
 135   0.0000       2.486865        67.6710 
 136   0.0000       2.491044        67.7848 
 137   0.0000       2.512040        68.3561 
 138   0.0000       2.546866        69.3037 
 139   0.0000       2.582743        70.2800 
 140   0.0000       2.593440        70.5711 
 141   0.0000       2.614351        71.1401 
 142   0.0000       2.640779        71.8593 
 143   0.0000       2.679798        72.9210 
 144   0.0000       2.695272        73.3421 
 145   0.0000       2.698236        73.4227 
 146   0.0000       2.725330        74.1600 
 147   0.0000       2.740693        74.5781 
 148   0.0000       2.789039        75.8936 
 149   0.0000       2.802163        76.2507 
 150   0.0000       2.825108        76.8751 
 151   0.0000       2.827475        76.9395 
 152   0.0000       2.853380        77.6444 
 153   0.0000       2.861951        77.8776 
 154   0.0000       2.884252        78.4845 
 155   0.0000       2.919340        79.4393 
 156   0.0000       2.958209        80.4970 
 157   0.0000       2.965472        80.6946 
 158   0.0000       3.003778        81.7370 
 159   0.0000       3.011771        81.9544 
 160   0.0000       3.027759        82.3895 
 161   0.0000       3.043320        82.8130 
 162   0.0000       3.062994        83.3483 
 163   0.0000       3.077940        83.7550 
 164   0.0000       3.084367        83.9299 
 165   0.0000       3.091164        84.1149 
 166   0.0000       3.102245        84.4164 
 167   0.0000       3.115026        84.7642 
 168   0.0000       3.123154        84.9853 
 169   0.0000       3.132699        85.2451 
 170   0.0000       3.152457        85.7827 
 171   0.0000       3.174145        86.3729 
 172   0.0000       3.203729        87.1779 
 173   0.0000       3.211004        87.3759 
 174   0.0000       3.222160        87.6794 
 175   0.0000       3.254889        88.5700 
 176   0.0000       3.274868        89.1137 
 177   0.0000       3.283218        89.3409 
 178   0.0000       3.288779        89.4922 
 179   0.0000       3.310270        90.0770 
 180   0.0000       3.352115        91.2157 
 181   0.0000       3.354404        91.2780 
 182   0.0000       3.380378        91.9848 
 183   0.0000       3.410979        92.8174 
 184   0.0000       3.423888        93.1687 
 185   0.0000       3.445133        93.7468 
 186   0.0000       3.460750        94.1718 
 187   0.0000       3.474825        94.5548 
 188   0.0000       3.487167        94.8907 
 189   0.0000       3.499343        95.2220 
 190   0.0000       3.525457        95.9326 
 191   0.0000       3.540651        96.3460 
 192   0.0000       3.563331        96.9632 
 193   0.0000       3.570810        97.1667 
 194   0.0000       3.580792        97.4383 
 195   0.0000       3.599853        97.9570 
 196   0.0000       3.613736        98.3348 
 197   0.0000       3.631716        98.8240 
 198   0.0000       3.690595       100.4262 
 199   0.0000       3.715809       101.1123 
 200   0.0000       3.723948       101.3338 
 201   0.0000       3.740185       101.7756 
 202   0.0000       3.765310       102.4593 
 203   0.0000       3.770631       102.6041 
 204   0.0000       3.785395       103.0058 
 205   0.0000       3.791268       103.1656 
 206   0.0000       3.808886       103.6451 
 207   0.0000       3.813402       103.7679 
 208   0.0000       3.828253       104.1721 
 209   0.0000       3.869842       105.3037 
 210   0.0000       3.875846       105.4671 
 211   0.0000       3.896801       106.0373 
 212   0.0000       3.915301       106.5408 
 213   0.0000       3.917862       106.6104 
 214   0.0000       3.942542       107.2820 
 215   0.0000       3.958552       107.7177 
 216   0.0000       3.964474       107.8788 
 217   0.0000       3.989795       108.5678 
 218   0.0000       4.006766       109.0296 
 219   0.0000       4.028459       109.6199 
 220   0.0000       4.036327       109.8341 
 221   0.0000       4.039861       109.9302 
 222   0.0000       4.083861       111.1275 
 223   0.0000       4.102406       111.6321 
 224   0.0000       4.117567       112.0447 
 225   0.0000       4.129826       112.3783 
 226   0.0000       4.147351       112.8552 
 227   0.0000       4.154881       113.0601 
 228   0.0000       4.176488       113.6480 
 229   0.0000       4.189866       114.0121 
 230   0.0000       4.220121       114.8353 
 231   0.0000       4.226472       115.0082 
 232   0.0000       4.243854       115.4811 
 233   0.0000       4.258733       115.8860 
 234   0.0000       4.280446       116.4769 
 235   0.0000       4.302251       117.0702 
 236   0.0000       4.320242       117.5598 
 237   0.0000       4.336131       117.9921 
 238   0.0000       4.357286       118.5678 
 239   0.0000       4.380877       119.2097 
 240   0.0000       4.408454       119.9601 
 241   0.0000       4.416456       120.1779 
 242   0.0000       4.428507       120.5058 
 243   0.0000       4.454617       121.2163 
 244   0.0000       4.467602       121.5696 
 245   0.0000       4.510098       122.7260 
 246   0.0000       4.598842       125.1408 
 247   0.0000       4.633525       126.0846 
 248   0.0000       4.668909       127.0475 
 249   0.0000       4.676608       127.2570 
 250   0.0000       4.687882       127.5638 
 251   0.0000       4.735242       128.8525 
 252   0.0000       4.759065       129.5007 
 253   0.0000       4.787216       130.2668 
 254   0.0000       4.832002       131.4855 
 255   0.0000       4.863865       132.3525 
 256   0.0000       4.872819       132.5961 
 257   0.0000       4.890748       133.0840 
 258   0.0000       4.925356       134.0257 
 259   0.0000       4.940617       134.4410 
 260   0.0000       4.945905       134.5849 
 261   0.0000       4.968962       135.2123 
 262   0.0000       4.992736       135.8593 
 263   0.0000       5.011403       136.3672 
 264   0.0000       5.026339       136.7736 
 265   0.0000       5.062865       137.7676 
 266   0.0000       5.092175       138.5651 
 267   0.0000       5.146858       140.0531 
 268   0.0000       5.177277       140.8809 
 269   0.0000       5.194488       141.3492 
 270   0.0000       5.230595       142.3317 
 271   0.0000       5.251309       142.8954 
 272   0.0000       5.326363       144.9377 
 273   0.0000       5.337194       145.2324 
[...]
     30       0.038061   0.000324  -0.000135  -0.000408  -0.002693   0.003557
     31       0.087474  -0.002390  -0.005128  -0.002993  -0.010275   0.011536
     32       0.262280   0.004263   0.001793  -0.001936  -0.009815   0.015591
     33      -0.140208  -0.007844  -0.010562  -0.001875  -0.006640   0.012459
     34      -0.069756  -0.000828  -0.000920   0.000059   0.001434  -0.000394
     35      -0.183892  -0.002908  -0.008194   0.000443  -0.005679   0.018663
     36      -0.008897  -0.000158  -0.000181   0.004730   0.002228   0.000417
     37       0.001042  -0.008824   0.014414   0.042829  -0.018199  -0.004010
     38      -0.000262  -0.015413   0.028529  -0.024465  -0.027991  -0.006542
     39       0.050240  -0.086562   0.125270   0.317322  -0.152581  -0.037115
     40       0.016455  -0.022340   0.030838   0.124877  -0.044551  -0.010886
     41      -0.014168   0.243485  -0.427235   0.352378   0.362648   0.081810
     42       0.032819   0.139506  -0.253339  -0.077638   0.210604   0.043793
     43      -0.012460  -0.046732   0.110556  -0.600554  -0.057815  -0.015525
     44      -0.010029  -0.043385   0.070948   0.361574  -0.086372  -0.017476
     45       0.043239  -0.060673   0.106633  -0.318819  -0.091987  -0.026883
     46      -0.030143   0.234531  -0.388063  -0.219873   0.371020   0.082586
     47       0.010680   0.085785  -0.136936  -0.319958   0.134763   0.026133
                 36         37         38         39         40         41    
      0      -0.001824   0.001479   0.007294  -0.036155   0.000776  -0.002295
      1       0.001299  -0.000492  -0.015473   0.028586  -0.004954  -0.050288
      2      -0.000411  -0.002128  -0.006492   0.046007   0.002292   0.024972
      3       0.002779  -0.005803  -0.058106   0.152235  -0.015043  -0.122444
      4       0.002516   0.022640   0.235004  -0.634463   0.050710   0.470646
      5       0.005329  -0.001104  -0.003781   0.018105  -0.000052   0.000890
      6       0.000799  -0.013567  -0.036589   0.279245   0.010762   0.154496
      7       0.000386  -0.014388  -0.043708   0.293631   0.011495   0.141749
      8       0.000602   0.024325   0.079353  -0.571677  -0.024574  -0.304804
      9       0.005592   0.001251  -0.029938  -0.005967  -0.001062   0.019234
     10       0.000292   0.005828   0.053808   0.017777   0.008373   0.034573
     11      -0.001460  -0.003527   0.026359   0.001735  -0.001239  -0.045547
     12      -0.015843   0.013321   0.197955   0.056079   0.022236   0.046060
     13      -0.009804  -0.053322  -0.831344  -0.228352  -0.093017  -0.158609
     14      -0.004207  -0.001954   0.021910   0.004648   0.000196  -0.007771
     15       0.010390  -0.026758   0.161322   0.010336  -0.009960  -0.276533
     16       0.001747  -0.024841   0.180374   0.015312  -0.007563  -0.267359
     17       0.002177   0.056248  -0.337639  -0.021213   0.017069   0.560586
     18      -0.017520  -0.037308   0.003386   0.000626   0.001108   0.006957
     19      -0.013049  -0.021431  -0.008198  -0.009220  -0.001915  -0.024501
     20       0.013492   0.063033   0.000393   0.003087  -0.000676  -0.000270
     21       0.027478   0.410133  -0.006218   0.018076  -0.003804  -0.003484
     22       0.005202   0.383491  -0.008069   0.012392  -0.004465  -0.012460
     23       0.051419  -0.805832   0.010092  -0.031092   0.008066   0.011741
     24       0.016215   0.019231  -0.028981  -0.023927  -0.006456  -0.077355
     25      -0.008070  -0.138825   0.116129   0.100982   0.027577   0.311410
     26      -0.043718   0.023790  -0.006433  -0.004549  -0.001399  -0.016033
     27      -0.042573   0.001053  -0.000274   0.000212  -0.000171  -0.000302
     28      -0.045845   0.001019   0.000019   0.000083   0.000025   0.000389
     29      -0.039644   0.001844  -0.000279  -0.000041  -0.000078  -0.000072
     30       0.054138  -0.006161   0.000479  -0.000897   0.000165   0.000476
     31       0.672511   0.007661  -0.002501   0.000364  -0.000707  -0.000804
     32       0.165521  -0.000483  -0.002079  -0.000222  -0.000395  -0.000008
     33       0.658765   0.007064  -0.002178  -0.000505  -0.000273   0.000552
     34       0.113369  -0.004041  -0.003425  -0.003230  -0.000566  -0.006027
     35       0.241228  -0.001735  -0.000896  -0.000219   0.000040   0.001178
     36       0.000232  -0.000359   0.004638   0.000408  -0.048614   0.005369
     37      -0.000281  -0.000207   0.001130  -0.004479   0.009012   0.010262
     38      -0.000526  -0.000168   0.000864  -0.007900   0.003136  -0.005496
     39       0.000988   0.000807  -0.007755  -0.010448   0.156322   0.013933
     40      -0.000077  -0.002187   0.038459   0.038280  -0.593172  -0.047224
     41       0.000150   0.000256  -0.000532  -0.004041   0.017735  -0.000652
     42      -0.002988   0.000500  -0.019421   0.025862   0.171359  -0.018192
     43      -0.000272   0.001594  -0.029877   0.035989   0.228724  -0.020839
     44       0.001142   0.003270  -0.054095   0.065501   0.417015  -0.045645
     45      -0.000043   0.002889  -0.022482  -0.019415   0.246550  -0.062027
     46      -0.000583   0.002324  -0.023867  -0.021261   0.255327  -0.058963
     47      -0.000969  -0.004118   0.046280   0.033795  -0.474474   0.115390
                 42         43         44         45         46         47    
      0       0.007976  -0.004122  -0.003336  -0.004213   0.000070  -0.000032
      1       0.043285  -0.033304  -0.026248   0.004468  -0.000127   0.000009
      2      -0.030778   0.020322   0.016303   0.005664  -0.000099   0.000133
      3       0.090301  -0.070760  -0.056272   0.019102  -0.000380  -0.000172
      4      -0.342728   0.282923   0.215371  -0.075108   0.000527  -0.000312
      5      -0.001815   0.002977  -0.000892   0.000764  -0.000213  -0.000249
      6      -0.184416   0.119825   0.095313   0.028840  -0.000250   0.000226
      7      -0.176950   0.115634   0.091622   0.028627  -0.000232   0.000210
      8       0.372356  -0.246939  -0.189760  -0.058302   0.000628  -0.000509
      9       0.005322  -0.011406  -0.001820  -0.000209  -0.000108   0.000325
     10       0.008343  -0.050277  -0.009279  -0.000022   0.000037  -0.000242
     11      -0.012235   0.039148   0.006768  -0.000184   0.000136  -0.000162
     12       0.006489  -0.096845  -0.017023   0.000124   0.001155   0.001525
     13      -0.030333   0.376124   0.073229  -0.004524   0.000478   0.000480
     14      -0.002880   0.000208   0.001278  -0.000693  -0.000053   0.000422
     15      -0.070654   0.230839   0.038495   0.000540  -0.000485   0.000110
     16      -0.070290   0.220822   0.037360   0.001028  -0.000175   0.000010
     17       0.148827  -0.466642  -0.082100  -0.003473   0.000189   0.000542
     18       0.012883   0.005861   0.000179  -0.000419   0.000618  -0.000956
     19      -0.063559  -0.045767  -0.003308   0.000602   0.002035   0.001729
     20       0.008387   0.011320   0.001168   0.000181  -0.002692   0.000345
     21       0.035833   0.058415   0.007740   0.001882  -0.006011   0.000798
     22       0.015761   0.042075   0.005553   0.001400  -0.006752  -0.000088
     23      -0.059850  -0.102378  -0.012221  -0.002690   0.005027  -0.000004
     24      -0.184957  -0.127311  -0.009889   0.002558   0.003230   0.003300
     25       0.743445   0.498117   0.034573  -0.008452  -0.012716  -0.014226
     26      -0.039945  -0.027866  -0.002200   0.000598   0.002490   0.000747
     27      -0.000638  -0.000319  -0.000010   0.000062   0.033493  -0.061799
     28       0.001134   0.001051   0.000103  -0.000027   0.046478   0.050746
     29      -0.000292  -0.000338  -0.000049   0.000017   0.002946  -0.005890
     30       0.001336   0.000383  -0.000077   0.000032  -0.626196   0.764649
     31      -0.000316   0.001166   0.000186   0.000229   0.102089  -0.085158
     32      -0.002668  -0.002700  -0.000208   0.000152  -0.047915   0.041612
     33       0.003139   0.004246   0.000524  -0.000114   0.156433   0.096317
     34      -0.016018  -0.010935  -0.000595   0.000014  -0.752453  -0.623792
     35       0.003784   0.004168   0.000536  -0.000061   0.030215   0.035818
     36      -0.002019   0.001923  -0.008673   0.005121  -0.000002   0.000011
     37      -0.013699   0.020442  -0.072832   0.048618   0.000015  -0.000026
     38       0.010114  -0.012204   0.046288   0.077500   0.000036  -0.000034
     39      -0.033287   0.049361  -0.178993   0.102901   0.000018  -0.000047
     40       0.117717  -0.179741   0.621978  -0.359495  -0.000019   0.000175
     41      -0.000283   0.001503  -0.007286   0.028060  -0.000003   0.000008
     42      -0.004016   0.003456  -0.009821  -0.307441   0.000160  -0.000148
     43      -0.009593   0.009125  -0.025943  -0.380053  -0.000020   0.000045
     44      -0.005584   0.001401  -0.008407  -0.698930   0.000006   0.000030
     45       0.061171  -0.074909   0.292785   0.147377   0.000035  -0.000036
     46       0.058949  -0.072239   0.275823   0.157236   0.000077  -0.000021
     47      -0.115816   0.142880  -0.538446  -0.256578  -0.000113   0.000076


-----------
IR SPECTRUM
-----------

 Mode    freq (cm**-1)   T**2         TX         TY         TZ
-------------------------------------------------------------------
   6:        98.52   10.364428  (  2.059975  -2.471413  -0.114235)
   7:       112.05    1.827283  (  0.200699   1.068892   0.802791)
   8:       176.00    4.411220  ( -1.339620   1.601245   0.229466)
   9:       223.69   55.480993  ( -5.872298   4.267905  -1.667961)
  10:       248.49    0.469066  ( -0.597334   0.173458  -0.286654)
  11:       395.49    0.119776  (  0.037077  -0.039956  -0.341767)
  12:       434.07   11.865076  ( -2.500101   0.578111  -2.297903)
  13:       740.92   10.426731  (  0.764805   2.394476  -2.026891)
  14:       801.25   17.621158  (  0.728995  -0.726761  -4.069587)
  15:       865.05  176.670951  ( -0.835891  -0.276649  13.262568)
  16:       901.44    5.213793  (  1.273912   1.042372  -1.582531)
  17:       954.95   12.585179  ( -1.016269  -0.445700   3.369529)
  18:       974.02   13.505771  (  0.592753   0.839571   3.528390)
  19:      1052.33    0.481520  ( -0.646605  -0.251818   0.003113)
  20:      1065.35    8.341659  (  1.922227   1.066051   1.873563)
  21:      1091.15   10.189493  ( -2.259661  -1.730171  -1.445660)
  22:      1159.00   15.943328  (  1.828290   0.694681  -3.481107)
  23:      1221.40    0.968419  ( -0.043440   0.979066  -0.089228)
  24:      1269.25    2.612241  (  0.810834   1.332973  -0.421868)
  25:      1307.84    0.480366  ( -0.579200   0.062221  -0.375530)
  26:      1322.47    0.568393  ( -0.548726  -0.516889  -0.010922)
  27:      1330.32    1.438243  ( -0.477483  -1.093247  -0.122733)
  28:      1381.73    0.308930  ( -0.493991  -0.204505  -0.151925)
  29:      1401.62    3.488055  (  1.851045  -0.236125  -0.077024)
  30:      1420.13   14.119298  ( -2.736490  -1.621780  -2.000187)
  31:      1465.38    0.736767  (  0.255701   0.357053   0.737493)
  32:      1478.25    0.563415  ( -0.612571  -0.081898  -0.425987)
  33:      1482.00    9.311746  ( -0.330147  -2.586586   1.585030)
  34:      1494.15    7.286360  ( -0.251983   1.344568   2.327016)
  35:      1508.10    5.465027  ( -1.958247   1.046457   0.731590)
  36:      1623.80   41.533209  (  4.035123   5.004507   0.453761)
  37:      2945.15  124.142962  ( -4.179248  -0.247538  10.325482)
  38:      2991.27   22.849554  ( -1.501973   3.648426   2.698632)
  39:      3002.62   77.480549  ( -5.051533   4.303984   5.782585)
  40:      3010.48   47.898205  ( -6.833282   1.097461  -0.006683)
  41:      3016.27   34.196434  (  3.524693  -3.396388  -3.199612)
  42:      3026.78   24.351442  (  2.767166  -2.835222  -2.942066)
  43:      3042.59  131.876706  ( -0.755736 -10.153575   5.311354)
  44:      3067.08  129.933530  ( -1.224034  -9.573569   6.064821)
  45:      3070.32   73.631063  (  0.286478   4.624769   7.222223)
  46:      3467.44    0.092398  ( -0.021645   0.300292  -0.041883)
  47:      3538.09    1.200015  (  0.775192  -0.773996  -0.004761)

The first frequency considered to be a vibration is 6
The total number of vibrations considered is 42


--------------------------
THERMOCHEMISTRY AT 298.15K
--------------------------

Temperature         ... 298.15 K
Pressure            ... 1.00 atm
Total Mass          ... 73.14 AMU

Throughout the following assumptions are being made:
  (1) The electronic state is orbitally nondegenerate
  (2) There are no thermally accessible electronically excited states
  (3) Hindered rotations indicated by low frequency modes are not
      treated as such but are treated as vibrations and this may
      cause some error
  (4) All equations used are the standard statistical mechanics
      equations for an ideal gas
  (5) All vibrations are strictly harmonic

freq.      98.52  E(vib)   ...       0.46 
freq.     112.05  E(vib)   ...       0.45 
freq.     176.00  E(vib)   ...       0.38 
freq.     223.69  E(vib)   ...       0.33 
freq.     248.49  E(vib)   ...       0.31 
freq.     395.49  E(vib)   ...       0.20 
freq.     434.07  E(vib)   ...       0.17 
freq.     740.92  E(vib)   ...       0.06 
freq.     801.25  E(vib)   ...       0.05 
freq.     865.05  E(vib)   ...       0.04 
freq.     901.44  E(vib)   ...       0.03 
freq.     954.95  E(vib)   ...       0.03 
freq.     974.02  E(vib)   ...       0.03 
freq.    1052.33  E(vib)   ...       0.02 
freq.    1065.35  E(vib)   ...       0.02 
freq.    1091.15  E(vib)   ...       0.02 
freq.    1159.00  E(vib)   ...       0.01 
freq.    1221.40  E(vib)   ...       0.01 
freq.    1269.25  E(vib)   ...       0.01 
freq.    1307.84  E(vib)   ...       0.01 
freq.    1322.47  E(vib)   ...       0.01 
freq.    1330.32  E(vib)   ...       0.01 
freq.    1381.73  E(vib)   ...       0.01 
freq.    1401.62  E(vib)   ...       0.00 
freq.    1420.13  E(vib)   ...       0.00 
freq.    1465.38  E(vib)   ...       0.00 
freq.    1478.25  E(vib)   ...       0.00 
freq.    1482.00  E(vib)   ...       0.00 
freq.    1494.15  E(vib)   ...       0.00 
freq.    1508.10  E(vib)   ...       0.00 
freq.    1623.80  E(vib)   ...       0.00 
freq.    2945.15  E(vib)   ...       0.00 
freq.    2991.27  E(vib)   ...       0.00 
freq.    3002.62  E(vib)   ...       0.00 
freq.    3010.48  E(vib)   ...       0.00 
freq.    3016.27  E(vib)   ...       0.00 
freq.    3026.78  E(vib)   ...       0.00 
freq.    3042.59  E(vib)   ...       0.00 
freq.    3067.08  E(vib)   ...       0.00 
freq.    3070.32  E(vib)   ...       0.00 
freq.    3467.44  E(vib)   ...       0.00 
freq.    3538.09  E(vib)   ...       0.00 

------------
INNER ENERGY
------------

The inner energy is: U= E(el) + E(ZPE) + E(vib) + E(rot) + E(trans)
    E(el)   - is the total energy from the electronic structure calculation
              = E(kin-el) + E(nuc-el) + E(el-el) + E(nuc-nuc)
    E(ZPE)  - the the zero temperature vibrational energy from the frequency calculation
    E(vib)  - the the finite temperature correction to E(ZPE) due to population
              of excited vibrational states
    E(rot)  - is the rotational thermal energy
    E(trans)- is the translational thermal energy

Summary of contributions to the inner energy U:
Electronic energy                ...   -213.76016824 Eh
Zero point energy                ...      0.14848704 Eh      93.18 kcal/mol
Thermal vibrational correction   ...      0.00424304 Eh       2.66 kcal/mol
Thermal rotational correction    ...      0.00141627 Eh       0.89 kcal/mol
Thermal translational correction ...      0.00141627 Eh       0.89 kcal/mol
-----------------------------------------------------------------------
Total thermal energy                   -213.60460561 Eh


Summary of corrections to the electronic energy:
(perhaps to be used in another calculation)
Total thermal correction                  0.00707559 Eh       4.44 kcal/mol
Non-thermal (ZPE) correction              0.14848704 Eh      93.18 kcal/mol
-----------------------------------------------------------------------
Total correction                          0.15556263 Eh      97.62 kcal/mol


--------
ENTHALPY
--------

The enthalpy is H = U + kB*T
                kB is Boltzmann's constant
Total free energy                 ...   -213.60460561 Eh 
Thermal Enthalpy correction       ...      0.00094421 Eh       0.59 kcal/mol
-----------------------------------------------------------------------
Total Enthalpy                    ...   -213.60366140 Eh


Note: Only C1 symmetry has been detected, increase convergence thresholds 
      if your molecule has a higher symmetry. Symmetry factor of 1.0 is   
      used for the rotational entropy correction. 
 

Note: Rotational entropy computed according to Herzberg 
Infrared and Raman Spectra, Chapter V,1, Van Nostrand Reinhold, 1945 
Point Group:  C1, Symmetry Number:   1  
Rotational constants in cm-1:     0.605344     0.065335     0.061967 

Vibrational entropy computed according to the QRRHO of S. Grimme
Chem.Eur.J. 2012 18 9955


-------
ENTROPY
-------

The entropy contributions are T*S = T*(S(el)+S(vib)+S(rot)+S(trans))
     S(el)   - electronic entropy
     S(vib)  - vibrational entropy
     S(rot)  - rotational entropy
     S(trans)- translational entropy
The entropies will be listed as mutliplied by the temperature to get
units of energy

Electronic entropy                ...      0.00000000 Eh      0.00 kcal/mol
Vibrational entropy               ...      0.00740963 Eh      4.65 kcal/mol
Rotational entropy                ...      0.01234871 Eh      7.75 kcal/mol
Translational entropy             ...      0.01842822 Eh     11.56 kcal/mol
-----------------------------------------------------------------------
Final entropy term                ...      0.03818656 Eh     23.96 kcal/mol

In case the symmetry of your molecule has not been determined correctly
or in case you have a reason to use a different symmetry number we print 
out the resulting rotational entropy values for sn=1,12 :
 --------------------------------------------------------
|  sn= 1 | S(rot)=       0.01234871 Eh      7.75 kcal/mol|
|  sn= 2 | S(rot)=       0.01169425 Eh      7.34 kcal/mol|
|  sn= 3 | S(rot)=       0.01131142 Eh      7.10 kcal/mol|
|  sn= 4 | S(rot)=       0.01103979 Eh      6.93 kcal/mol|
|  sn= 5 | S(rot)=       0.01082911 Eh      6.80 kcal/mol|
|  sn= 6 | S(rot)=       0.01065696 Eh      6.69 kcal/mol|
|  sn= 7 | S(rot)=       0.01051142 Eh      6.60 kcal/mol|
|  sn= 8 | S(rot)=       0.01038534 Eh      6.52 kcal/mol|
|  sn= 9 | S(rot)=       0.01027413 Eh      6.45 kcal/mol|
|  sn=10 | S(rot)=       0.01017465 Eh      6.38 kcal/mol|
|  sn=11 | S(rot)=       0.01008466 Eh      6.33 kcal/mol|
|  sn=12 | S(rot)=       0.01000251 Eh      6.28 kcal/mol|
 --------------------------------------------------------


-------------------
GIBBS FREE ENERGY
-------------------

The Gibbs free energy is G = H - T*S

Total enthalpy                    ...   -213.60366140 Eh 
Total entropy correction          ...     -0.03818656 Eh    -23.96 kcal/mol
-----------------------------------------------------------------------
Final Gibbs free energy         ...   -213.64184795 Eh

For completeness - the Gibbs free energy minus the electronic energy
G-E(el)                           ...      0.11832028 Eh     74.25 kcal/mol


Timings for individual modules:

Sum of individual times         ...      426.017 sec (=   7.100 min)
GTO integral calculation        ...        1.802 sec (=   0.030 min)   0.4 %
SCF iterations                  ...       64.461 sec (=   1.074 min)  15.1 %
SCF Gradient evaluation         ...       17.836 sec (=   0.297 min)   4.2 %
Geometry relaxation             ...        0.750 sec (=   0.013 min)   0.2 %
Analytical frequency calculation...      341.168 sec (=   5.686 min)  80.1 %
                             ****ORCA TERMINATED NORMALLY****
TOTAL RUN TIME: 0 days 0 hours 7 minutes 6 seconds 813 msec
(SLURM) EXECUTION TIME: 426.860836915 seconds.
