(SLURM) JOB ID:         636

                                 *****************
                                 * O   R   C   A *
                                 *****************

           --- An Ab Initio, DFT and Semiempirical electronic structure package ---

                  #######################################################
                  #                        -***-                        #
                  #          Department of theory and spectroscopy      #
                  #               Directorship: Frank Neese             #
                  #        Max Planck Institute fuer Kohlenforschung    #
                  #                Kaiser Wilhelm Platz 1               #
                  #                 D-45470 Muelheim/Ruhr               #
                  #                      Germany                        #
                  #                                                     #
                  #                  All rights reserved                #
                  #                        -***-                        #
                  #######################################################


                         Program Version 4.2.1 -  RELEASE  -


 With contributions from (in alphabetic order):
   Daniel Aravena         : Magnetic Suceptibility
   Michael Atanasov       : Ab Initio Ligand Field Theory (pilot matlab implementation)
   Alexander A. Auer      : GIAO ZORA, VPT2
   Ute Becker             : Parallelization
   Giovanni Bistoni       : ED, misc. LED, open-shell LED, HFLD
   Martin Brehm           : Molecular dynamics
   Dmytro Bykov           : SCF Hessian
   Vijay G. Chilkuri      : MRCI spin determinant printing, contributions to CSF-ICE
   Dipayan Datta          : RHF DLPNO-CCSD density
   Achintya Kumar Dutta   : EOM-CC, STEOM-CC
   Dmitry Ganyushin       : Spin-Orbit,Spin-Spin,Magnetic field MRCI
   Miquel Garcia          : C-PCM Hessian, Gaussian charge scheme
   Yang Guo               : DLPNO-NEVPT2, CIM, IAO-localization
   Andreas Hansen         : Spin unrestricted coupled pair/coupled cluster methods
   Benjamin Helmich-Paris : CASSCF linear response (MC-RPA)
   Lee Huntington         : MR-EOM, pCC
   Robert Izsak           : Overlap fitted RIJCOSX, COSX-SCS-MP3, EOM
   Christian Kollmar      : KDIIS, OOCD, Brueckner-CCSD(T), CCSD density
   Simone Kossmann        : Meta GGA functionals, TD-DFT gradient, OOMP2, MP2 Hessian
   Martin Krupicka        : AUTO-CI
   Lucas Lang             : DCDCAS
   Dagmar Lenk            : GEPOL surface, SMD
   Dimitrios Liakos       : Extrapolation schemes; Compound Job, initial MDCI parallelization
   Dimitrios Manganas     : Further ROCIS development; embedding schemes
   Dimitrios Pantazis     : SARC Basis sets
   Taras Petrenko         : DFT Hessian,TD-DFT gradient, ASA, ECA, R-Raman, ABS, FL, XAS/XES, NRVS
   Peter Pinski           : DLPNO-MP2, DLPNO-MP2 Gradient
   Christoph Reimann      : Effective Core Potentials
   Marius Retegan         : Local ZFS, SOC
   Christoph Riplinger    : Optimizer, TS searches, QM/MM, DLPNO-CCSD(T), (RO)-DLPNO pert. Triples
   Tobias Risthaus        : Range-separated hybrids, TD-DFT gradient, RPA, STAB
   Michael Roemelt        : Original ROCIS implementation
   Masaaki Saitow         : Open-shell DLPNO-CCSD energy and density
   Barbara Sandhoefer     : DKH picture change effects
   Avijit Sen             : IP-ROCIS
   Kantharuban Sivalingam : CASSCF convergence, NEVPT2, FIC-MRCI
   Bernardo de Souza      : ESD, SOC TD-DFT
   Georgi Stoychev        : AutoAux, RI-MP2 NMR
   Willem Van den Heuvel  : Paramagnetic NMR
   Boris Wezisla          : Elementary symmetry handling
   Frank Wennmohs         : Technical directorship


 We gratefully acknowledge several colleagues who have allowed us to
 interface, adapt or use parts of their codes:
   Stefan Grimme, W. Hujo, H. Kruse,             : VdW corrections, initial TS optimization,
                  C. Bannwarth                     DFT functionals, gCP, sTDA/sTD-DF
   Ed Valeev, F. Pavosevic, A. Kumar             : LibInt (2-el integral package), F12 methods
   Garnet Chan, S. Sharma, J. Yang, R. Olivares  : DMRG
   Ulf Ekstrom                                   : XCFun DFT Library
   Mihaly Kallay                                 : mrcc  (arbitrary order and MRCC methods)
   Andreas Klamt, Michael Diedenhofen            : otool_cosmo (COSMO solvation model)
   Jiri Pittner, Ondrej Demel                    : Mk-CCSD
   Frank Weinhold                                : gennbo (NPA and NBO analysis)
   Christopher J. Cramer and Donald G. Truhlar   : smd solvation model
   Lars Goerigk                                  : TD-DFT with DH, B97 family of functionals
   V. Asgeirsson, H. Jonsson                     : NEB implementation
   FAccTs GmbH                                   : IRC, NEB, NEB-TS, Multilevel, MM, QM/MM, CI optimization
   S Lehtola, MJT Oliveira, MAL Marques          : LibXC Library


 Your calculation uses the libint2 library for the computation of 2-el integrals
 For citations please refer to: http://libint.valeyev.net

 Your ORCA version has been built with support for libXC version: 4.2.3
 For citations please refer to: https://tddft.org/programs/libxc/

 This ORCA versions uses:
   CBLAS   interface :  Fast vector & matrix operations
   LAPACKE interface :  Fast linear algebra routines
   SCALAPACK package :  Parallel linear algebra routines




***************************************
The coordinates will be read from file: init.xyz
***************************************


Your calculation utilizes the SMD solvation module
Please cite in your paper:
A.V. Marenich, C.J. Cramer, D.G. Truhlar J. Phys. Chem. B, 113, (2009), 6378 

Your calculation utilizes the semiempirical GFN2-xTB method
Please cite in your paper:
C. Bannwarth, Ehlert S., S. Grimme,  J. Chem. Theory Comput., 15, (2019), 1652.
   

----- Orbital basis set information -----
Your calculation utilizes the basis: def2-SVP
   F. Weigend and R. Ahlrichs, Phys. Chem. Chem. Phys. 7, 3297 (2005).

================================================================================
                                        WARNINGS
                       Please study these warnings very carefully!
================================================================================

WARNING: Gradients needed for Numerical Frequencies
  ===> : Setting RunTyp to EnGrad

WARNING: The environment variable RSH_COMMAND is not set!
  ===> : All Displacements for the Numerical Hessian calculation
         will be started on localhost

WARNING: Found dipole moment calculation with XTB calculation
  ===> : Switching off dipole moment calculation


INFO   : the flag for use of LIBINT has been found!

================================================================================
                                       INPUT FILE
================================================================================
NAME = /tmp/slurm-scratch/freq.636/freq.inp
|  1> ! XTB2 NumFreq
|  2> %maxcore 1450
|  3> 
|  4> * xyzfile 0 1 init.xyz
|  5> 
|  6> %cpcm
|  7>  smd true
|  8>  smdsolvent "ch2cl2"
|  9> end
| 10> %pal nprocs 9 end
| 11> 
| 12>                          ****END OF INPUT****
================================================================================

                     *******************************
                     * Energy+Gradient Calculation *
                     *******************************

      -----------------------------------------------------------      
     |                   =====================                   |     
     |                           x T B                           |     
     |                   =====================                   |     
     |                         S. Grimme                         |     
     |          Mulliken Center for Theoretical Chemistry        |     
     |                    University of Bonn                     |     
      -----------------------------------------------------------      

   * xtb version 6.3.2 (30e43eb) compiled by 'schneider@apollo14' on 2020-08-08

   xtb is free software: you can redistribute it and/or modify it under
   the terms of the GNU Lesser General Public License as published by
   the Free Software Foundation, either version 3 of the License, or
   (at your option) any later version.
   
   xtb is distributed in the hope that it will be useful,
   but WITHOUT ANY WARRANTY; without even the implied warranty of
   MERCHANTABILITY or FITNESS FOR A PARTICULAR PURPOSE.  See the
   GNU Lesser General Public License for more details.
   
   Cite this work as:
   * S. Grimme, C. Bannwarth, P. Shushkov, J. Chem. Theory Comput., 2017,
     13, 1989-2009. DOI: 10.1021/acs.jctc.7b00118
   * C. Bannwarth, S. Ehlert and S. Grimme., J. Chem. Theory Comput., 2019,
     15, 1652-1671. DOI: 10.1021/acs.jctc.8b01176
   * P. Pracht, E. Caldeweyher, S. Ehlert, S. Grimme, ChemRxiv, 2019, preprint.
     DOI: 10.26434/chemrxiv.8326202.v1
   
   for GFN-FF:
   * S. Spicher and S. Grimme, Angew. Chem. Int. Ed., 2020,
     DOI: 10.1002/anie.202004239
   
   for DFT-D4:
   * E. Caldeweyher, C. Bannwarth and S. Grimme, J. Chem. Phys., 2017,
     147, 034112. DOI: 10.1063/1.4993215
   * E. Caldeweyher, S. Ehlert, A. Hansen, H. Neugebauer, S. Spicher,
     C. Bannwarth and S. Grimme, J. Chem. Phys., 2019, 150, 154122.
     DOI: 10.1063/1.5090222
   
   for sTDA-xTB:
   * S. Grimme and C. Bannwarth, J. Chem. Phys., 2016, 145, 054103.
     DOI: 10.1063/1.4959605
   
   in the mass-spec context:
   * V. Asgeirsson, C. Bauer and S. Grimme, Chem. Sci., 2017, 8, 4879.
     DOI: 10.1039/c7sc00601b
   * J. Koopman and S. Grimme, ACS Omega 2019, 4, 12, 15120-15133.
     DOI: 10.1021/acsomega.9b02011
   
   for metadynamics refer to:
   * S. Grimme, J. Chem. Theory Comput., 2019, 155, 2847-2862
     DOI: 10.1021/acs.jctc.9b00143
   
   with help from (in alphabetical order)
   C. Bannwarth, F. Bohle, G. Brandenburg, E. Caldeweyher, M. Checinski,
   S. Dohm, S. Ehlert, S. Ehrlich, F. März, H. Neugebauer, J. Pisarek,
   P. Pracht, P. Shushkov, and S. Spicher.
   
 * started run on 2021/02/17 at 18:01:38.186     

           -------------------------------------------------
          |                Calculation Setup                |
           -------------------------------------------------

          program call               : /opt/orca/otool_xtb /tmp/slurm-scratch/freq.636/freq_XTB.xyz --grad -c 0 -u 0 -P 9 --namespace /tmp/slurm-scratch/freq.636/freq --gbsa CH2Cl2
          hostname                   : apollo14
          calculation namespace      : /tmp/slurm-scratch/freq.636/freq
          coordinate file            : /tmp/slurm-scratch/freq.636/freq_XTB.xyz
          omp threads                :                     9
          number of atoms            :                    46
          number of electrons        :                   104
          charge                     :                     0
          spin                       :                   0.0
          first test random number   :      0.67677356102056

   ID    Z sym.   atoms
    1    6 C      1-6, 12, 18, 21, 25, 28, 31, 34, 39, 43
    2    1 H      7-9, 11, 13-15, 17, 19, 20, 22, 24, 26, 27, 29, 30, 32, 33,
                  35-38, 40-42, 44-46
    3    7 N      10, 16
    4    8 O      23

molecular fragmentation (1/2 indicates fragments):
1111111111211122222211221112222221111122221111
# atoms in fragment 1/2:    27    19
 fragment masses (1/2) :      161.24       91.15
CMA distance (Bohr)    :   8.721
constraining FC (au)   :  0.0500
########################################################################
[WARNING] Please study the warnings concerning your input carefully
-1- prog_main_parseArguments: Process number higher than OMP_NUM_THREADS, I hope you know what you are doing.
########################################################################

           -------------------------------------------------
          |                 G F N 2 - x T B                 |
           -------------------------------------------------

        Reference                      10.1021/acs.jctc.8b01176
      * Hamiltonian:
        H0-scaling (s, p, d)           1.850000    2.230000    2.230000
        zeta-weighting                 0.500000
      * Dispersion:
        s8                             2.700000
        a1                             0.520000
        a2                             5.000000
        s9                             5.000000
      * Repulsion:
        kExp                           1.500000    1.000000
        rExp                           1.000000
      * Coulomb:
        alpha                          2.000000
        third order                    shell-resolved
        anisotropic                    true
        a3                             3.000000
        a5                             4.000000
        cn-shift                       1.200000
        cn-exp                         4.000000
        max-rad                        5.000000

      * Solvation model:               GBSA
        Solvent                        CH2Cl2
        Parameter file                 internal GFN2-xTB/GBSA
        Dielectric constant                8.9300E+00
        Reference state                gsolv [1 M gas/solution]
        Free energy shift                  4.4408E-03 Eh       2.7867E+00 kcal/mol
        Temperature                        2.9815E+02 K
        Density                            1.3300E+00 kg/L
        Solvent mass                       8.4930E+01 g/mol
        Interaction kernel             Still
        Born radius scaling (c1)           1.4917E+00
        Born radii integrator          GBOBC
        Born offset                        0.0000E+00 a0       0.0000E+00 AA
        H-bond correction              false
        Ion screening                  false
        Surface tension                    1.0000E-05 Eh       1.5569E+01 dyn/cm
        Grid points                               230 per atom

          ...................................................
          :                      SETUP                      :
          :.................................................:
          :  # basis functions                 100          :
          :  # atomic orbitals                 100          :
          :  # shells                           64          :
          :  # electrons                       104          :
          :  max. iterations                   250          :
          :  Hamiltonian                  GFN2-xTB          :
          :  restarted?                      false          :
          :  GBSA solvation                   true          :
          :  PC potential                    false          :
          :  electronic temp.          300.0000000     K    :
          :  accuracy                    1.0000000          :
          :  -> integral cutoff          0.2500000E+02      :
          :  -> integral neglect         0.1000000E-07      :
          :  -> SCF convergence          0.1000000E-05 Eh   :
          :  -> wf. convergence          0.1000000E-03 e    :
          :  Broyden damping             0.4000000          :
          ...................................................

 iter      E             dE          RMSdq      gap      omega  full diag
   1    -57.0564371 -0.570564E+02  0.333E+00    3.09       0.0  T
   2    -57.1185338 -0.620967E-01  0.194E+00    3.09       1.0  T
   3    -57.1180436  0.490147E-03  0.692E-01    2.77       1.0  T
   4    -57.1203579 -0.231425E-02  0.328E-01    2.83       1.0  T
   5    -57.1237638 -0.340586E-02  0.666E-02    2.77       1.0  T
   6    -57.1237820 -0.182214E-04  0.322E-02    2.78       1.0  T
   7    -57.1237890 -0.707340E-05  0.141E-02    2.79       1.0  T
   8    -57.1237915 -0.246637E-05  0.363E-03    2.79       4.1  T
   9    -57.1237917 -0.210713E-06  0.139E-03    2.79      10.6  T
  10    -57.1237917 -0.476652E-08  0.712E-04    2.79      20.7  T
  11    -57.1237917 -0.590332E-08  0.295E-04    2.79      50.0  T

   *** convergence criteria satisfied after 11 iterations ***

         #    Occupation            Energy/Eh            Energy/eV
      -------------------------------------------------------------
         1        2.0000           -0.6605672             -17.9749
       ...           ...                  ...                  ...
        46        2.0000           -0.4274018             -11.6302
        47        2.0000           -0.4244776             -11.5506
        48        2.0000           -0.4199338             -11.4270
        49        2.0000           -0.4150366             -11.2937
        50        2.0000           -0.4051023             -11.0234
        51        2.0000           -0.3873139             -10.5393
        52        2.0000           -0.3796412             -10.3306 (HOMO)
        53                         -0.2772590              -7.5446 (LUMO)
        54                         -0.2347328              -6.3874
        55                         -0.1961601              -5.3378
        56                         -0.0951462              -2.5891
        57                          0.0116619               0.3173
       ...                                ...                  ...
       100                          0.6427923              17.4913
      -------------------------------------------------------------
                  HL-Gap            0.1023822 Eh            2.7860 eV
             Fermi-level           -0.3284501 Eh           -8.9376 eV

 SCC (total)                   0 d,  0 h,  0 min,  0.141 sec
 SCC setup                      ...        0 min,  0.006 sec (  4.539%)
 Dispersion                     ...        0 min,  0.004 sec (  2.574%)
 classical contributions        ...        0 min,  0.004 sec (  3.167%)
 integral evaluation            ...        0 min,  0.018 sec ( 12.911%)
 iterations                     ...        0 min,  0.057 sec ( 40.179%)
 molecular gradient             ...        0 min,  0.050 sec ( 35.208%)
 printout                       ...        0 min,  0.002 sec (  1.404%)

         :::::::::::::::::::::::::::::::::::::::::::::::::::::
         ::                     SUMMARY                     ::
         :::::::::::::::::::::::::::::::::::::::::::::::::::::
         :: total energy             -56.295373345087 Eh    ::
         :: total w/o Gsasa/hb       -56.271550363683 Eh    ::
         :: gradient norm              0.029289609666 Eh/a0 ::
         :: HOMO-LUMO gap              2.785961455843 eV    ::
         ::.................................................::
         :: SCC energy               -57.123791734638 Eh    ::
         :: -> isotropic ES            0.063412706526 Eh    ::
         :: -> anisotropic ES          0.004462880431 Eh    ::
         :: -> anisotropic XC          0.040715469936 Eh    ::
         :: -> dispersion             -0.036102680433 Eh    ::
         :: -> Gsolv                  -0.029919245459 Eh    ::
         ::    -> Gborn               -0.006096264055 Eh    ::
         ::    -> Gsasa               -0.028263810578 Eh    ::
         ::    -> Ghb                  0.000000000000 Eh    ::
         ::    -> Gshift               0.004440829173 Eh    ::
         :: repulsion energy           0.827902486057 Eh    ::
         :: add. restraining           0.000000000000 Eh    ::
         :: total charge              -0.000000000000 e     ::
         :::::::::::::::::::::::::::::::::::::::::::::::::::::

           -------------------------------------------------
          |                Property Printout                |
           -------------------------------------------------

    * Orbital Energies and Occupations

         #    Occupation            Energy/Eh            Energy/eV
      -------------------------------------------------------------
         1        2.0000           -0.6605672             -17.9749
       ...           ...                  ...                  ...
        40        2.0000           -0.4410295             -12.0010
        41        2.0000           -0.4393118             -11.9543
        42        2.0000           -0.4369668             -11.8905
        43        2.0000           -0.4366634             -11.8822
        44        2.0000           -0.4325551             -11.7704
        45        2.0000           -0.4297433             -11.6939
        46        2.0000           -0.4274018             -11.6302
        47        2.0000           -0.4244776             -11.5506
        48        2.0000           -0.4199338             -11.4270
        49        2.0000           -0.4150366             -11.2937
        50        2.0000           -0.4051023             -11.0234
        51        2.0000           -0.3873139             -10.5393
        52        2.0000           -0.3796412             -10.3306 (HOMO)
        53                         -0.2772590              -7.5446 (LUMO)
        54                         -0.2347328              -6.3874
        55                         -0.1961601              -5.3378
        56                         -0.0951462              -2.5891
        57                          0.0116619               0.3173
        58                          0.0291314               0.7927
        59                          0.0719021               1.9566
        60                          0.0904727               2.4619
        61                          0.0969313               2.6376
        62                          0.0982286               2.6729
        63                          0.1064961               2.8979
       ...                                ...                  ...
       100                          0.6427923              17.4913
      -------------------------------------------------------------
                  HL-Gap            0.1023822 Eh            2.7860 eV
             Fermi-level           -0.3284501 Eh           -8.9376 eV

     #   Z          covCN         q      C6AA      α(0)
     1   6 C        2.913    -0.028    28.697     8.784
     2   6 C        2.922    -0.029    28.735     8.791
     3   6 C        2.969     0.004    27.938     8.670
     4   6 C        2.918    -0.026    28.663     8.779
     5   6 C        2.914    -0.028    28.706     8.786
     6   6 C        2.916    -0.025    28.619     8.773
     7   1 H        0.925     0.038     2.473     2.459
     8   1 H        0.926     0.047     2.357     2.401
     9   1 H        0.925     0.044     2.391     2.418
    10   7 N        1.824    -0.263    27.679     7.796
    11   1 H        0.801     0.305     0.705     1.320
    12   6 C        3.768     0.020    20.266     6.416
    13   1 H        0.924     0.042     2.419     2.432
    14   1 H        0.923     0.009     2.905     2.665
    15   1 H        0.860     0.176     1.234     1.740
    16   7 N        2.628    -0.376    29.718     8.096
    17   1 H        0.805     0.277     0.793     1.399
    18   6 C        3.731     0.019    20.345     6.438
    19   1 H        0.924     0.010     2.884     2.656
    20   1 H        0.924     0.032     2.558     2.501
    21   6 C        2.859     0.078    26.260     8.399
    22   1 H        0.924     0.002     3.022     2.718
    23   8 O        1.606    -0.630    25.914     6.870
    24   1 H        0.860     0.144     1.442     1.881
    25   6 C        3.802    -0.062    21.688     6.630
    26   1 H        0.924     0.057     2.235     2.338
    27   1 H        0.924     0.030     2.588     2.516
    28   6 C        3.802    -0.067    21.777     6.644
    29   1 H        0.924     0.035     2.511     2.478
    30   1 H        0.924     0.044     2.395     2.420
    31   6 C        3.800    -0.054    21.540     6.608
    32   1 H        0.924     0.031     2.579     2.511
    33   1 H        0.924     0.031     2.566     2.505
    34   6 C        3.800    -0.052    21.513     6.604
    35   1 H        0.924     0.033     2.548     2.496
    36   1 H        0.924     0.029     2.601     2.522
    37   1 H        0.925     0.043     2.406     2.426
    38   1 H        0.925     0.043     2.411     2.428
    39   6 C        3.750    -0.103    22.526     6.769
    40   1 H        0.924     0.036     2.500     2.472
    41   1 H        0.924     0.036     2.509     2.477
    42   1 H        0.924     0.036     2.497     2.471
    43   6 C        3.750    -0.104    22.545     6.772
    44   1 H        0.924     0.042     2.427     2.436
    45   1 H        0.924     0.036     2.499     2.472
    46   1 H        0.924     0.034     2.529     2.487

 Mol. C6AA /au·bohr⁶  :      17446.767113
 Mol. C8AA /au·bohr⁸  :     382497.060764
 Mol. α(0) /au        :        202.672655


Wiberg/Mayer (AO) data.
largest (>0.10) Wiberg bond orders for each atom

 ---------------------------------------------------------------------------
     #   Z sym  total        # sym  WBO       # sym  WBO       # sym  WBO
 ---------------------------------------------------------------------------
     1   6 C    3.991 --     2 C    1.450     6 C    1.437    38 H    0.970
                             4 C    0.106
     2   6 C    3.987 --     1 C    1.450     3 C    1.381     7 H    0.968
                             5 C    0.105
     3   6 C    3.988 --     2 C    1.381     4 C    1.367    21 C    1.082
                             6 C    0.100
     4   6 C    3.990 --     5 C    1.466     3 C    1.367     8 H    0.965
                             1 C    0.106
     5   6 C    3.991 --     4 C    1.466     6 C    1.423    37 H    0.970
                             2 C    0.105
     6   6 C    3.987 --     1 C    1.437     5 C    1.423     9 H    0.971
                             3 C    0.100
     7   1 H    0.999 --     2 C    0.968
     8   1 H    0.998 --     4 C    0.965
     9   1 H    0.998 --     6 C    0.971
    10   7 N    3.079 --    21 C    1.841    12 C    1.021
    11   1 H    0.907 --    23 O    0.841
    12   6 C    3.983 --    10 N    1.021    25 C    0.986    14 H    0.966
                            13 H    0.960
    13   1 H    0.995 --    12 C    0.960
    14   1 H    1.000 --    12 C    0.966
    15   1 H    0.969 --    16 N    0.934
    16   7 N    3.059 --    18 C    1.013    24 H    0.965    15 H    0.934
    17   1 H    0.923 --    23 O    0.921
    18   6 C    3.983 --    16 N    1.013    28 C    1.007    20 H    0.975
                            19 H    0.971
    19   1 H    1.000 --    18 C    0.971
    20   1 H    0.999 --    18 C    0.975
    21   6 C    3.969 --    10 N    1.841     3 C    1.082    22 H    0.940
    22   1 H    1.000 --    21 C    0.940
    23   8 O    1.801 --    17 H    0.921    11 H    0.841
    24   1 H    0.979 --    16 N    0.965
    25   6 C    3.990 --    34 C    1.006    12 C    0.986    27 H    0.978
                            26 H    0.971
    26   1 H    0.997 --    25 C    0.971
    27   1 H    0.999 --    25 C    0.978
    28   6 C    3.996 --    18 C    1.007    31 C    1.007    29 H    0.976
                            30 H    0.975
    29   1 H    0.999 --    28 C    0.976
    30   1 H    0.998 --    28 C    0.975
    31   6 C    3.997 --    39 C    1.020    28 C    1.007    33 H    0.978
                            32 H    0.978
    32   1 H    0.999 --    31 C    0.978
    33   1 H    0.999 --    31 C    0.978
    34   6 C    3.996 --    43 C    1.019    25 C    1.006    36 H    0.978
                            35 H    0.978
    35   1 H    0.999 --    34 C    0.978
    36   1 H    0.999 --    34 C    0.978
    37   1 H    0.998 --     5 C    0.970
    38   1 H    0.998 --     1 C    0.970
    39   6 C    3.996 --    31 C    1.020    41 H    0.988    42 H    0.988
                            40 H    0.987
    40   1 H    0.998 --    39 C    0.987
    41   1 H    0.999 --    39 C    0.988
    42   1 H    0.999 --    39 C    0.988
    43   6 C    3.995 --    34 C    1.019    46 H    0.988    44 H    0.987
                            45 H    0.987
    44   1 H    0.998 --    43 C    0.987
    45   1 H    0.998 --    43 C    0.987
    46   1 H    0.999 --    43 C    0.988
 ---------------------------------------------------------------------------

Topologies differ in total number of bonds
Writing topology from bond orders to xtbtopo.mol

molecular dipole:
                 x           y           z       tot (Debye)
 q only:        1.170       0.141      -0.913
   full:        1.614       0.683      -1.213       5.417
molecular quadrupole (traceless):
                xx          xy          yy          xz          yz          zz
 q only:       -4.520      -6.691       3.827       9.188       4.887       0.693
  q+dip:       -8.481     -13.171       9.311      11.364       3.059      -0.830
   full:       -9.361     -12.331       8.029      13.161       5.764       1.332


           -------------------------------------------------
          | TOTAL ENERGY              -56.295373345087 Eh   |
          | GRADIENT NORM               0.029289609666 Eh/α |
          | HOMO-LUMO GAP               2.785961455843 eV   |
           -------------------------------------------------

------------------------------------------------------------------------
 * finished run on 2021/02/17 at 18:01:38.412     
------------------------------------------------------------------------
 total:
 * wall-time:     0 d,  0 h,  0 min,  0.226 sec
 *  cpu-time:     0 d,  0 h,  0 min,  2.592 sec
 * ratio c/w:    11.477 speedup
 SCF:
 * wall-time:     0 d,  0 h,  0 min,  0.150 sec
 *  cpu-time:     0 d,  0 h,  0 min,  1.741 sec
 * ratio c/w:    11.608 speedup


-------------------------   --------------------
FINAL SINGLE POINT ENERGY       -56.295373345090
-------------------------   --------------------


----------------------------------------------------------------------------
                           ORCA NUMERICAL FREQUENCIES
                              (9-process run)
----------------------------------------------------------------------------

Number of atoms                ... 46
Central differences            ... used
Number of displacements        ... 276
Numerical increment            ... 5.000e-03 bohr
IR-spectrum generation         ... on
Raman-spectrum generation      ... off
Surface Crossing Hessian       ... off
List of participating nodes    ...  /tmp/slurm-scratch/freq.636/freq.hostnames

The output will be reduced. Please look at the following files:
SCF program output             ... >/tmp/slurm-scratch/freq.636/freq.lastscf
Integral program output        ... >/tmp/slurm-scratch/freq.636/freq.lastint
Gradient program output        ... >/tmp/slurm-scratch/freq.636/freq.lastgrad
Dipole moment program output   ... >/tmp/slurm-scratch/freq.636/freq.lastmom
AutoCI program output          ... >/tmp/slurm-scratch/freq.636/freq.lastautoci


         <<< Energy and Gradient at the input geometry >>>

        <<< Energy and Gradient at displaced geometries >>>
             <<<Displacing   2/coordinate 1 (+)>>>
             <<<Displacing   2/coordinate 3 (+)>>>
             <<<Displacing   2/coordinate 2 (+)>>>
             <<<Displacing   3/coordinate 1 (+)>>>
             <<<Displacing   2/coordinate 2 (-)>>>
             <<<Displacing   2/coordinate 1 (-)>>>
             <<<Displacing   2/coordinate 3 (-)>>>
             <<<Displacing   3/coordinate 3 (+)>>>
             <<<Displacing   3/coordinate 1 (-)>>>
             <<<Displacing   1/coordinate 1 (+)>>>
             <<<Displacing   3/coordinate 2 (+)>>>
             <<<Displacing   1/coordinate 2 (+)>>>
             <<<Displacing   1/coordinate 3 (+)>>>
             <<<Displacing   3/coordinate 2 (-)>>>
             <<<Displacing   3/coordinate 3 (-)>>>
             <<<Displacing   1/coordinate 1 (-)>>>
             <<<Displacing   1/coordinate 2 (-)>>>
             <<<Displacing   1/coordinate 3 (-)>>>
             <<<Displacing   4/coordinate 3 (+)>>>
             <<<Displacing   6/coordinate 1 (+)>>>
             <<<Displacing   4/coordinate 1 (+)>>>
             <<<Displacing   4/coordinate 3 (-)>>>
             <<<Displacing   6/coordinate 2 (+)>>>
             <<<Displacing   6/coordinate 1 (-)>>>
             <<<Displacing   6/coordinate 2 (-)>>>
             <<<Displacing   4/coordinate 1 (-)>>>
             <<<Displacing   5/coordinate 2 (+)>>>
             <<<Displacing   4/coordinate 2 (+)>>>
             <<<Displacing   5/coordinate 1 (+)>>>
             <<<Displacing   5/coordinate 2 (-)>>>
             <<<Displacing   4/coordinate 2 (-)>>>
             <<<Displacing   5/coordinate 3 (+)>>>
             <<<Displacing   5/coordinate 1 (-)>>>
             <<<Displacing   5/coordinate 3 (-)>>>
             <<<Displacing   6/coordinate 3 (+)>>>
             <<<Displacing   6/coordinate 3 (-)>>>
             <<<Displacing   7/coordinate 1 (+)>>>
             <<<Displacing   7/coordinate 2 (+)>>>
             <<<Displacing   7/coordinate 1 (-)>>>
             <<<Displacing   7/coordinate 3 (+)>>>
             <<<Displacing   7/coordinate 2 (-)>>>
             <<<Displacing   8/coordinate 1 (+)>>>
             <<<Displacing   7/coordinate 3 (-)>>>
             <<<Displacing   9/coordinate 2 (+)>>>
             <<<Displacing   8/coordinate 2 (+)>>>
             <<<Displacing   8/coordinate 1 (-)>>>
             <<<Displacing   8/coordinate 3 (+)>>>
             <<<Displacing   8/coordinate 3 (-)>>>
             <<<Displacing   9/coordinate 2 (-)>>>
             <<<Displacing   8/coordinate 2 (-)>>>
             <<<Displacing   9/coordinate 1 (+)>>>
             <<<Displacing   9/coordinate 1 (-)>>>
             <<<Displacing   9/coordinate 3 (+)>>>
             <<<Displacing   9/coordinate 3 (-)>>>
             <<<Displacing  10/coordinate 1 (+)>>>
             <<<Displacing  10/coordinate 2 (+)>>>
             <<<Displacing  10/coordinate 1 (-)>>>
             <<<Displacing  11/coordinate 1 (+)>>>
             <<<Displacing  10/coordinate 2 (-)>>>
             <<<Displacing  11/coordinate 1 (-)>>>
             <<<Displacing  10/coordinate 3 (+)>>>
             <<<Displacing  11/coordinate 3 (+)>>>
             <<<Displacing  12/coordinate 1 (+)>>>
             <<<Displacing  11/coordinate 2 (+)>>>
             <<<Displacing  10/coordinate 3 (-)>>>
             <<<Displacing  11/coordinate 3 (-)>>>
             <<<Displacing  12/coordinate 1 (-)>>>
             <<<Displacing  11/coordinate 2 (-)>>>
             <<<Displacing  12/coordinate 2 (+)>>>
             <<<Displacing  12/coordinate 2 (-)>>>
             <<<Displacing  12/coordinate 3 (+)>>>
             <<<Displacing  12/coordinate 3 (-)>>>
             <<<Displacing  13/coordinate 1 (+)>>>
             <<<Displacing  13/coordinate 1 (-)>>>
             <<<Displacing  14/coordinate 1 (+)>>>
             <<<Displacing  14/coordinate 1 (-)>>>
             <<<Displacing  13/coordinate 3 (+)>>>
             <<<Displacing  14/coordinate 2 (+)>>>
             <<<Displacing  13/coordinate 3 (-)>>>
             <<<Displacing  15/coordinate 1 (+)>>>
             <<<Displacing  13/coordinate 2 (+)>>>
             <<<Displacing  14/coordinate 2 (-)>>>
             <<<Displacing  15/coordinate 1 (-)>>>
             <<<Displacing  13/coordinate 2 (-)>>>
             <<<Displacing  14/coordinate 3 (+)>>>
             <<<Displacing  14/coordinate 3 (-)>>>
             <<<Displacing  15/coordinate 3 (+)>>>
             <<<Displacing  15/coordinate 3 (-)>>>
             <<<Displacing  15/coordinate 2 (+)>>>
             <<<Displacing  15/coordinate 2 (-)>>>
             <<<Displacing  16/coordinate 1 (+)>>>
             <<<Displacing  16/coordinate 3 (+)>>>
             <<<Displacing  16/coordinate 3 (-)>>>
             <<<Displacing  16/coordinate 1 (-)>>>
             <<<Displacing  16/coordinate 2 (+)>>>
             <<<Displacing  16/coordinate 2 (-)>>>
             <<<Displacing  17/coordinate 2 (+)>>>
             <<<Displacing  17/coordinate 3 (+)>>>
             <<<Displacing  17/coordinate 2 (-)>>>
             <<<Displacing  17/coordinate 1 (+)>>>
             <<<Displacing  17/coordinate 3 (-)>>>
             <<<Displacing  17/coordinate 1 (-)>>>
             <<<Displacing  18/coordinate 1 (+)>>>
             <<<Displacing  18/coordinate 1 (-)>>>
             <<<Displacing  18/coordinate 2 (+)>>>
             <<<Displacing  18/coordinate 2 (-)>>>
             <<<Displacing  18/coordinate 3 (+)>>>
             <<<Displacing  18/coordinate 3 (-)>>>
             <<<Displacing  19/coordinate 1 (+)>>>
             <<<Displacing  19/coordinate 2 (+)>>>
             <<<Displacing  19/coordinate 1 (-)>>>
             <<<Displacing  19/coordinate 2 (-)>>>
             <<<Displacing  19/coordinate 3 (+)>>>
             <<<Displacing  20/coordinate 2 (+)>>>
             <<<Displacing  20/coordinate 1 (+)>>>
             <<<Displacing  19/coordinate 3 (-)>>>
             <<<Displacing  20/coordinate 2 (-)>>>
             <<<Displacing  20/coordinate 1 (-)>>>
             <<<Displacing  20/coordinate 3 (+)>>>
             <<<Displacing  20/coordinate 3 (-)>>>
             <<<Displacing  21/coordinate 1 (+)>>>
             <<<Displacing  21/coordinate 1 (-)>>>
             <<<Displacing  21/coordinate 2 (+)>>>
             <<<Displacing  21/coordinate 2 (-)>>>
             <<<Displacing  21/coordinate 3 (+)>>>
             <<<Displacing  21/coordinate 3 (-)>>>
             <<<Displacing  22/coordinate 2 (+)>>>
             <<<Displacing  22/coordinate 1 (+)>>>
             <<<Displacing  23/coordinate 2 (+)>>>
             <<<Displacing  22/coordinate 2 (-)>>>
             <<<Displacing  22/coordinate 1 (-)>>>
             <<<Displacing  23/coordinate 2 (-)>>>
             <<<Displacing  22/coordinate 3 (+)>>>
             <<<Displacing  23/coordinate 1 (+)>>>
             <<<Displacing  22/coordinate 3 (-)>>>
             <<<Displacing  23/coordinate 1 (-)>>>
             <<<Displacing  23/coordinate 3 (+)>>>
             <<<Displacing  24/coordinate 1 (+)>>>
             <<<Displacing  24/coordinate 1 (-)>>>
             <<<Displacing  23/coordinate 3 (-)>>>
             <<<Displacing  24/coordinate 2 (+)>>>
             <<<Displacing  24/coordinate 3 (+)>>>
             <<<Displacing  24/coordinate 3 (-)>>>
             <<<Displacing  24/coordinate 2 (-)>>>
             <<<Displacing  25/coordinate 3 (+)>>>
             <<<Displacing  25/coordinate 1 (+)>>>
             <<<Displacing  25/coordinate 3 (-)>>>
             <<<Displacing  25/coordinate 1 (-)>>>
             <<<Displacing  25/coordinate 2 (+)>>>
             <<<Displacing  25/coordinate 2 (-)>>>
             <<<Displacing  26/coordinate 1 (+)>>>
             <<<Displacing  26/coordinate 2 (+)>>>
             <<<Displacing  26/coordinate 1 (-)>>>
             <<<Displacing  26/coordinate 2 (-)>>>
             <<<Displacing  26/coordinate 3 (+)>>>
             <<<Displacing  26/coordinate 3 (-)>>>
             <<<Displacing  27/coordinate 1 (+)>>>
             <<<Displacing  27/coordinate 1 (-)>>>
             <<<Displacing  27/coordinate 2 (+)>>>
             <<<Displacing  27/coordinate 3 (+)>>>
             <<<Displacing  27/coordinate 2 (-)>>>
             <<<Displacing  27/coordinate 3 (-)>>>
             <<<Displacing  28/coordinate 1 (+)>>>
             <<<Displacing  28/coordinate 2 (+)>>>
             <<<Displacing  28/coordinate 3 (+)>>>
             <<<Displacing  28/coordinate 2 (-)>>>
             <<<Displacing  28/coordinate 1 (-)>>>
             <<<Displacing  29/coordinate 2 (+)>>>
             <<<Displacing  28/coordinate 3 (-)>>>
             <<<Displacing  29/coordinate 2 (-)>>>
             <<<Displacing  29/coordinate 1 (+)>>>
             <<<Displacing  29/coordinate 1 (-)>>>
             <<<Displacing  29/coordinate 3 (+)>>>
             <<<Displacing  30/coordinate 1 (+)>>>
             <<<Displacing  29/coordinate 3 (-)>>>
             <<<Displacing  30/coordinate 1 (-)>>>
             <<<Displacing  30/coordinate 2 (+)>>>
             <<<Displacing  30/coordinate 2 (-)>>>
             <<<Displacing  30/coordinate 3 (+)>>>
             <<<Displacing  30/coordinate 3 (-)>>>
             <<<Displacing  31/coordinate 1 (+)>>>
             <<<Displacing  31/coordinate 1 (-)>>>
             <<<Displacing  31/coordinate 3 (+)>>>
             <<<Displacing  31/coordinate 2 (+)>>>
             <<<Displacing  31/coordinate 3 (-)>>>
             <<<Displacing  32/coordinate 1 (+)>>>
             <<<Displacing  31/coordinate 2 (-)>>>
             <<<Displacing  32/coordinate 1 (-)>>>
             <<<Displacing  32/coordinate 2 (+)>>>
             <<<Displacing  32/coordinate 2 (-)>>>
             <<<Displacing  32/coordinate 3 (+)>>>
             <<<Displacing  32/coordinate 3 (-)>>>
             <<<Displacing  33/coordinate 1 (+)>>>
             <<<Displacing  33/coordinate 1 (-)>>>
             <<<Displacing  33/coordinate 3 (+)>>>
             <<<Displacing  33/coordinate 2 (+)>>>
             <<<Displacing  34/coordinate 1 (+)>>>
             <<<Displacing  33/coordinate 3 (-)>>>
             <<<Displacing  33/coordinate 2 (-)>>>
             <<<Displacing  34/coordinate 1 (-)>>>
             <<<Displacing  34/coordinate 2 (+)>>>
             <<<Displacing  35/coordinate 2 (+)>>>
             <<<Displacing  34/coordinate 2 (-)>>>
             <<<Displacing  34/coordinate 3 (+)>>>
             <<<Displacing  35/coordinate 1 (+)>>>
             <<<Displacing  35/coordinate 2 (-)>>>
             <<<Displacing  34/coordinate 3 (-)>>>
             <<<Displacing  35/coordinate 1 (-)>>>
             <<<Displacing  36/coordinate 1 (+)>>>
             <<<Displacing  35/coordinate 3 (+)>>>
             <<<Displacing  36/coordinate 1 (-)>>>
             <<<Displacing  35/coordinate 3 (-)>>>
             <<<Displacing  36/coordinate 2 (+)>>>
             <<<Displacing  36/coordinate 2 (-)>>>
             <<<Displacing  36/coordinate 3 (+)>>>
             <<<Displacing  36/coordinate 3 (-)>>>
             <<<Displacing  38/coordinate 1 (+)>>>
             <<<Displacing  37/coordinate 3 (+)>>>
             <<<Displacing  37/coordinate 1 (+)>>>
             <<<Displacing  37/coordinate 3 (-)>>>
             <<<Displacing  38/coordinate 1 (-)>>>
             <<<Displacing  37/coordinate 1 (-)>>>
             <<<Displacing  37/coordinate 2 (+)>>>
             <<<Displacing  38/coordinate 2 (+)>>>
             <<<Displacing  37/coordinate 2 (-)>>>
             <<<Displacing  38/coordinate 2 (-)>>>
             <<<Displacing  38/coordinate 3 (+)>>>
             <<<Displacing  39/coordinate 1 (+)>>>
             <<<Displacing  38/coordinate 3 (-)>>>
             <<<Displacing  39/coordinate 1 (-)>>>
             <<<Displacing  39/coordinate 2 (+)>>>
             <<<Displacing  39/coordinate 3 (+)>>>
             <<<Displacing  40/coordinate 1 (+)>>>
             <<<Displacing  39/coordinate 2 (-)>>>
             <<<Displacing  39/coordinate 3 (-)>>>
             <<<Displacing  40/coordinate 1 (-)>>>
             <<<Displacing  40/coordinate 2 (+)>>>
             <<<Displacing  40/coordinate 3 (+)>>>
             <<<Displacing  40/coordinate 2 (-)>>>
             <<<Displacing  40/coordinate 3 (-)>>>
             <<<Displacing  41/coordinate 1 (+)>>>
             <<<Displacing  41/coordinate 1 (-)>>>
             <<<Displacing  41/coordinate 2 (+)>>>
             <<<Displacing  41/coordinate 2 (-)>>>
             <<<Displacing  41/coordinate 3 (+)>>>
             <<<Displacing  42/coordinate 1 (+)>>>
             <<<Displacing  41/coordinate 3 (-)>>>
             <<<Displacing  42/coordinate 1 (-)>>>
             <<<Displacing  42/coordinate 3 (+)>>>
             <<<Displacing  42/coordinate 2 (+)>>>
             <<<Displacing  43/coordinate 2 (+)>>>
             <<<Displacing  42/coordinate 2 (-)>>>
             <<<Displacing  42/coordinate 3 (-)>>>
             <<<Displacing  43/coordinate 2 (-)>>>
             <<<Displacing  43/coordinate 1 (+)>>>
             <<<Displacing  43/coordinate 1 (-)>>>
             <<<Displacing  43/coordinate 3 (+)>>>
             <<<Displacing  44/coordinate 1 (+)>>>
             <<<Displacing  43/coordinate 3 (-)>>>
             <<<Displacing  44/coordinate 1 (-)>>>
             <<<Displacing  44/coordinate 2 (+)>>>
             <<<Displacing  44/coordinate 2 (-)>>>
             <<<Displacing  45/coordinate 1 (+)>>>
             <<<Displacing  44/coordinate 3 (+)>>>
             <<<Displacing  45/coordinate 1 (-)>>>
             <<<Displacing  44/coordinate 3 (-)>>>
             <<<Displacing  45/coordinate 2 (+)>>>
             <<<Displacing  45/coordinate 3 (+)>>>
             <<<Displacing  45/coordinate 2 (-)>>>
             <<<Displacing  45/coordinate 3 (-)>>>
             <<<Displacing  46/coordinate 1 (+)>>>
             <<<Displacing  46/coordinate 2 (+)>>>
             <<<Displacing  46/coordinate 1 (-)>>>
             <<<Displacing  46/coordinate 2 (-)>>>
             <<<Displacing  46/coordinate 3 (+)>>>
             <<<Displacing  46/coordinate 3 (-)>>>

-----------------------
VIBRATIONAL FREQUENCIES
-----------------------

Scaling factor for frequencies =  1.000000000 (already applied!)

   0:         0.00 cm**-1
   1:         0.00 cm**-1
   2:         0.00 cm**-1
   3:         0.00 cm**-1
   4:         0.00 cm**-1
   5:         0.00 cm**-1
   6:       -22.36 cm**-1 ***imaginary mode***
   7:        24.63 cm**-1
   8:        30.13 cm**-1
   9:        35.00 cm**-1
  10:        46.75 cm**-1
  11:        52.90 cm**-1
  12:        57.40 cm**-1
  13:        68.13 cm**-1
  14:        70.47 cm**-1
  15:        79.35 cm**-1
  16:        81.49 cm**-1
  17:       111.51 cm**-1
  18:       112.55 cm**-1
  19:       124.31 cm**-1
  20:       130.53 cm**-1
  21:       155.63 cm**-1
  22:       189.57 cm**-1
  23:       223.71 cm**-1
  24:       226.27 cm**-1
  25:       264.78 cm**-1
  26:       272.29 cm**-1
  27:       273.98 cm**-1
  28:       287.72 cm**-1
  29:       293.95 cm**-1
  30:       383.96 cm**-1
  31:       393.32 cm**-1
  32:       394.42 cm**-1
  33:       401.37 cm**-1
  34:       425.53 cm**-1
  35:       439.48 cm**-1
  36:       454.77 cm**-1
  37:       475.66 cm**-1
  38:       513.55 cm**-1
  39:       588.96 cm**-1
  40:       624.82 cm**-1
  41:       668.54 cm**-1
  42:       703.78 cm**-1
  43:       758.26 cm**-1
  44:       770.69 cm**-1
  45:       773.35 cm**-1
  46:       824.38 cm**-1
  47:       824.64 cm**-1
  48:       859.05 cm**-1
  49:       877.76 cm**-1
  50:       905.60 cm**-1
  51:       920.88 cm**-1
  52:       927.88 cm**-1
  53:       933.91 cm**-1
  54:       935.88 cm**-1
  55:       938.61 cm**-1
  56:       947.17 cm**-1
  57:       953.25 cm**-1
  58:       984.05 cm**-1
  59:       992.99 cm**-1
  60:      1016.49 cm**-1
  61:      1019.39 cm**-1
  62:      1065.91 cm**-1
  63:      1067.64 cm**-1
  64:      1069.27 cm**-1
  65:      1096.74 cm**-1
  66:      1098.62 cm**-1
  67:      1111.72 cm**-1
  68:      1122.71 cm**-1
  69:      1126.68 cm**-1
  70:      1144.40 cm**-1
  71:      1158.15 cm**-1
  72:      1177.61 cm**-1
  73:      1183.93 cm**-1
  74:      1199.15 cm**-1
  75:      1212.22 cm**-1
  76:      1218.76 cm**-1
  77:      1236.44 cm**-1
  78:      1254.69 cm**-1
  79:      1268.42 cm**-1
  80:      1275.63 cm**-1
  81:      1276.53 cm**-1
  82:      1278.99 cm**-1
  83:      1280.02 cm**-1
  84:      1291.75 cm**-1
  85:      1292.35 cm**-1
  86:      1325.42 cm**-1
  87:      1351.65 cm**-1
  88:      1355.67 cm**-1
  89:      1368.25 cm**-1
  90:      1379.23 cm**-1
  91:      1422.07 cm**-1
  92:      1426.26 cm**-1
  93:      1427.71 cm**-1
  94:      1454.04 cm**-1
  95:      1471.66 cm**-1
  96:      1497.82 cm**-1
  97:      1501.45 cm**-1
  98:      1503.43 cm**-1
  99:      1504.64 cm**-1
 100:      1506.21 cm**-1
 101:      1506.60 cm**-1
 102:      1506.96 cm**-1
 103:      1511.68 cm**-1
 104:      1512.57 cm**-1
 105:      1545.35 cm**-1
 106:      1559.42 cm**-1
 107:      1566.73 cm**-1
 108:      1568.92 cm**-1
 109:      1665.38 cm**-1
 110:      2855.90 cm**-1
 111:      2875.75 cm**-1
 112:      2892.48 cm**-1
 113:      2932.94 cm**-1
 114:      2938.04 cm**-1
 115:      2944.01 cm**-1
 116:      2945.56 cm**-1
 117:      2953.46 cm**-1
 118:      2963.18 cm**-1
 119:      2964.30 cm**-1
 120:      2967.38 cm**-1
 121:      2972.45 cm**-1
 122:      2978.12 cm**-1
 123:      2978.74 cm**-1
 124:      2984.48 cm**-1
 125:      2987.65 cm**-1
 126:      2996.80 cm**-1
 127:      2997.61 cm**-1
 128:      3000.07 cm**-1
 129:      3011.86 cm**-1
 130:      3046.37 cm**-1
 131:      3055.32 cm**-1
 132:      3060.60 cm**-1
 133:      3071.45 cm**-1
 134:      3088.35 cm**-1
 135:      3302.61 cm**-1
 136:      3400.36 cm**-1
 137:      3546.51 cm**-1


------------
NORMAL MODES
------------

These modes are the cartesian displacements weighted by the diagonal matrix
M(i,i)=1/sqrt(m[i]) where m[i] is the mass of the displaced atom
Thus, these vectors are normalized but *not* orthogonal

                  0          1          2          3          4          5    
      0       0.000000   0.000000   0.000000   0.000000   0.000000   0.000000
      1       0.000000   0.000000   0.000000   0.000000   0.000000   0.000000
      2       0.000000   0.000000   0.000000   0.000000   0.000000   0.000000
      3       0.000000   0.000000   0.000000   0.000000   0.000000   0.000000
      4       0.000000   0.000000   0.000000   0.000000   0.000000   0.000000
      5       0.000000   0.000000   0.000000   0.000000   0.000000   0.000000
      6       0.000000   0.000000   0.000000   0.000000   0.000000   0.000000
      7       0.000000   0.000000   0.000000   0.000000   0.000000   0.000000
      8       0.000000   0.000000   0.000000   0.000000   0.000000   0.000000
      9       0.000000   0.000000   0.000000   0.000000   0.000000   0.000000
     10       0.000000   0.000000   0.000000   0.000000   0.000000   0.000000
     11       0.000000   0.000000   0.000000   0.000000   0.000000   0.000000
     12       0.000000   0.000000   0.000000   0.000000   0.000000   0.000000
     13       0.000000   0.000000   0.000000   0.000000   0.000000   0.000000
     14       0.000000   0.000000   0.000000   0.000000   0.000000   0.000000
     15       0.000000   0.000000   0.000000   0.000000   0.000000   0.000000
     16       0.000000   0.000000   0.000000   0.000000   0.000000   0.000000
     17       0.000000   0.000000   0.000000   0.000000   0.000000   0.000000
     18       0.000000   0.000000   0.000000   0.000000   0.000000   0.000000
     19       0.000000   0.000000   0.000000   0.000000   0.000000   0.000000
     20       0.000000   0.000000   0.000000   0.000000   0.000000   0.000000
     21       0.000000   0.000000   0.000000   0.000000   0.000000   0.000000
     22       0.000000   0.000000   0.000000   0.000000   0.000000   0.000000
     23       0.000000   0.000000   0.000000   0.000000   0.000000   0.000000
     24       0.000000   0.000000   0.000000   0.000000   0.000000   0.000000
     25       0.000000   0.000000   0.000000   0.000000   0.000000   0.000000
     26       0.000000   0.000000   0.000000   0.000000   0.000000   0.000000
     27       0.000000   0.000000   0.000000   0.000000   0.000000   0.000000
     28       0.000000   0.000000   0.000000   0.000000   0.000000   0.000000
     29       0.000000   0.000000   0.000000   0.000000   0.000000   0.000000
     30       0.000000   0.000000   0.000000   0.000000   0.000000   0.000000
     31       0.000000   0.000000   0.000000   0.000000   0.000000   0.000000
     32       0.000000   0.000000   0.000000   0.000000   0.000000   0.000000
     33       0.000000   0.000000   0.000000   0.000000   0.000000   0.000000
     34       0.000000   0.000000   0.000000   0.000000   0.000000   0.000000
     35       0.000000   0.000000   0.000000   0.000000   0.000000   0.000000
     36       0.000000   0.000000   0.000000   0.000000   0.000000   0.000000
     37       0.000000   0.000000   0.000000   0.000000   0.000000   0.000000
     38       0.000000   0.000000   0.000000   0.000000   0.000000   0.000000
     39       0.000000   0.000000   0.000000   0.000000   0.000000   0.000000
     40       0.000000   0.000000   0.000000   0.000000   0.000000   0.000000
     41       0.000000   0.000000   0.000000   0.000000   0.000000   0.000000
     42       0.000000   0.000000   0.000000   0.000000   0.000000   0.000000
     43       0.000000   0.000000   0.000000   0.000000   0.000000   0.000000
     44       0.000000   0.000000   0.000000   0.000000   0.000000   0.000000
     45       0.000000   0.000000   0.000000   0.000000   0.000000   0.000000
     46       0.000000   0.000000   0.000000   0.000000   0.000000   0.000000
     47       0.000000   0.000000   0.000000   0.000000   0.000000   0.000000
     48       0.000000   0.000000   0.000000   0.000000   0.000000   0.000000
     49       0.000000   0.000000   0.000000   0.000000   0.000000   0.000000
     50       0.000000   0.000000   0.000000   0.000000   0.000000   0.000000
     51       0.000000   0.000000   0.000000   0.000000   0.000000   0.000000
     52       0.000000   0.000000   0.000000   0.000000   0.000000   0.000000
     53       0.000000   0.000000   0.000000   0.000000   0.000000   0.000000
     54       0.000000   0.000000   0.000000   0.000000   0.000000   0.000000
     55       0.000000   0.000000   0.000000   0.000000   0.000000   0.000000
     56       0.000000   0.000000   0.000000   0.000000   0.000000   0.000000
     57       0.000000   0.000000   0.000000   0.000000   0.000000   0.000000
     58       0.000000   0.000000   0.000000   0.000000   0.000000   0.000000
     59       0.000000   0.000000   0.000000   0.000000   0.000000   0.000000
     60       0.000000   0.000000   0.000000   0.000000   0.000000   0.000000
     61       0.000000   0.000000   0.000000   0.000000   0.000000   0.000000
     62       0.000000   0.000000   0.000000   0.000000   0.000000   0.000000
     63       0.000000   0.000000   0.000000   0.000000   0.000000   0.000000
     64       0.000000   0.000000   0.000000   0.000000   0.000000   0.000000
     65       0.000000   0.000000   0.000000   0.000000   0.000000   0.000000
     66       0.000000   0.000000   0.000000   0.000000   0.000000   0.000000
     67       0.000000   0.000000   0.000000   0.000000   0.000000   0.000000
     68       0.000000   0.000000   0.000000   0.000000   0.000000   0.000000
     69       0.000000   0.000000   0.000000   0.000000   0.000000   0.000000
     70       0.000000   0.000000   0.000000   0.000000   0.000000   0.000000
     71       0.000000   0.000000   0.000000   0.000000   0.000000   0.000000
     72       0.000000   0.000000   0.000000   0.000000   0.000000   0.000000
     73       0.000000   0.000000   0.000000   0.000000   0.000000   0.000000
     74       0.000000   0.000000   0.000000   0.000000   0.000000   0.000000
     75       0.000000   0.000000   0.000000   0.000000   0.000000   0.000000
     76       0.000000   0.000000   0.000000   0.000000   0.000000   0.000000
     77       0.000000   0.000000   0.000000   0.000000   0.000000   0.000000
     78       0.000000   0.000000   0.000000   0.000000   0.000000   0.000000
     79       0.000000   0.000000   0.000000   0.000000   0.000000   0.000000
     80       0.000000   0.000000   0.000000   0.000000   0.000000   0.000000
     81       0.000000   0.000000   0.000000   0.000000   0.000000   0.000000
     82       0.000000   0.000000   0.000000   0.000000   0.000000   0.000000
     83       0.000000   0.000000   0.000000   0.000000   0.000000   0.000000
     84       0.000000   0.000000   0.000000   0.000000   0.000000   0.000000
     85       0.000000   0.000000   0.000000   0.000000   0.000000   0.000000
     86       0.000000   0.000000   0.000000   0.000000   0.000000   0.000000
     87       0.000000   0.000000   0.000000   0.000000   0.000000   0.000000
     88       0.000000   0.000000   0.000000   0.000000   0.000000   0.000000
     89       0.000000   0.000000   0.000000   0.000000   0.000000   0.000000
     90       0.000000   0.000000   0.000000   0.000000   0.000000   0.000000
     91       0.000000   0.000000   0.000000   0.000000   0.000000   0.000000
     92       0.000000   0.000000   0.000000   0.000000   0.000000   0.000000
     93       0.000000   0.000000   0.000000   0.000000   0.000000   0.000000
     94       0.000000   0.000000   0.000000   0.000000   0.000000   0.000000
     95       0.000000   0.000000   0.000000   0.000000   0.000000   0.000000
     96       0.000000   0.000000   0.000000   0.000000   0.000000   0.000000
     97       0.000000   0.000000   0.000000   0.000000   0.000000   0.000000
     98       0.000000   0.000000   0.000000   0.000000   0.000000   0.000000
     99       0.000000   0.000000   0.000000   0.000000   0.000000   0.000000
    100       0.000000   0.000000   0.000000   0.000000   0.000000   0.000000
    101       0.000000   0.000000   0.000000   0.000000   0.000000   0.000000
    102       0.000000   0.000000   0.000000   0.000000   0.000000   0.000000
    103       0.000000   0.000000   0.000000   0.000000   0.000000   0.000000
    104       0.000000   0.000000   0.000000   0.000000   0.000000   0.000000
    105       0.000000   0.000000   0.000000   0.000000   0.000000   0.000000
    106       0.000000   0.000000   0.000000   0.000000   0.000000   0.000000
    107       0.000000   0.000000   0.000000   0.000000   0.000000   0.000000
    108       0.000000   0.000000   0.000000   0.000000   0.000000   0.000000
    109       0.000000   0.000000   0.000000   0.000000   0.000000   0.000000
    110       0.000000   0.000000   0.000000   0.000000   0.000000   0.000000
    111       0.000000   0.000000   0.000000   0.000000   0.000000   0.000000
    112       0.000000   0.000000   0.000000   0.000000   0.000000   0.000000
    113       0.000000   0.000000   0.000000   0.000000   0.000000   0.000000
    114       0.000000   0.000000   0.000000   0.000000   0.000000   0.000000
    115       0.000000   0.000000   0.000000   0.000000   0.000000   0.000000
    116       0.000000   0.000000   0.000000   0.000000   0.000000   0.000000
    117       0.000000   0.000000   0.000000   0.000000   0.000000   0.000000
    118       0.000000   0.000000   0.000000   0.000000   0.000000   0.000000
    119       0.000000   0.000000   0.000000   0.000000   0.000000   0.000000
    120       0.000000   0.000000   0.000000   0.000000   0.000000   0.000000
    121       0.000000   0.000000   0.000000   0.000000   0.000000   0.000000
    122       0.000000   0.000000   0.000000   0.000000   0.000000   0.000000
    123       0.000000   0.000000   0.000000   0.000000   0.000000   0.000000
    124       0.000000   0.000000   0.000000   0.000000   0.000000   0.000000
    125       0.000000   0.000000   0.000000   0.000000   0.000000   0.000000
    126       0.000000   0.000000   0.000000   0.000000   0.000000   0.000000
    127       0.000000   0.000000   0.000000   0.000000   0.000000   0.000000
    128       0.000000   0.000000   0.000000   0.000000   0.000000   0.000000
    129       0.000000   0.000000   0.000000   0.000000   0.000000   0.000000
    130       0.000000   0.000000   0.000000   0.000000   0.000000   0.000000
    131       0.000000   0.000000   0.000000   0.000000   0.000000   0.000000
    132       0.000000   0.000000   0.000000   0.000000   0.000000   0.000000
    133       0.000000   0.000000   0.000000   0.000000   0.000000   0.000000
    134       0.000000   0.000000   0.000000   0.000000   0.000000   0.000000
    135       0.000000   0.000000   0.000000   0.000000   0.000000   0.000000
    136       0.000000   0.000000   0.000000   0.000000   0.000000   0.000000
    137       0.000000   0.000000   0.000000   0.000000   0.000000   0.000000
                  6          7          8          9         10         11    
      0       0.002053   0.069392   0.045046  -0.061940  -0.054417  -0.060328
      1       0.041773   0.082445  -0.074989  -0.069265  -0.071394  -0.016057
      2      -0.000630   0.063139   0.010648  -0.078791   0.007646  -0.046193
      3      -0.000962   0.055670   0.039982  -0.054937  -0.054269  -0.052356
      4       0.032529   0.060641  -0.053549  -0.066494  -0.058055  -0.025197
      5       0.000831   0.042883  -0.035932  -0.057396  -0.009689  -0.005824
      6       0.005778   0.046665   0.012733  -0.030632  -0.048226  -0.014302
      7       0.026416   0.035636  -0.018250  -0.051123  -0.019300  -0.025112
      8       0.001865   0.010802  -0.030760  -0.018799   0.031972   0.032728
      9       0.015781   0.053001  -0.007503  -0.013740  -0.040351   0.015364
     10       0.030432   0.035163  -0.004704  -0.038714   0.007656  -0.015591
     11       0.002151   0.003207   0.024442  -0.003406   0.093735   0.028503
     12       0.018812   0.067822  -0.003719  -0.022366  -0.041908   0.006402
     13       0.039872   0.058543  -0.028229  -0.043409  -0.007582  -0.007405
     14       0.001014   0.026285   0.067844  -0.028300   0.107861  -0.014145
     15       0.011912   0.075543   0.022611  -0.046141  -0.048655  -0.031230
     16       0.045388   0.081482  -0.063473  -0.058238  -0.046928  -0.007370
     17      -0.000670   0.054828   0.061376  -0.065147   0.065465  -0.050980
     18      -0.008399   0.051763   0.057471  -0.068175  -0.059360  -0.076190
     19       0.029919   0.062077  -0.062583  -0.076072  -0.077744  -0.033262
     20       0.001100   0.050319  -0.075959  -0.069685  -0.055852  -0.004043
     21       0.021041   0.044062  -0.026393   0.007757  -0.029727   0.047152
     22       0.026056   0.014681   0.023239  -0.024003   0.040688  -0.014745
     23       0.003372  -0.024008   0.031221   0.030685   0.133539   0.060113
     24       0.014237   0.086062   0.025521  -0.052003  -0.049093  -0.037705
     25       0.052511   0.098235  -0.081590  -0.060825  -0.057560  -0.000474
     26      -0.001823   0.070326   0.096023  -0.082732   0.078232  -0.083307
     27       0.009218   0.030152  -0.004309  -0.013037  -0.061634   0.005849
     28       0.007991  -0.010969   0.056832  -0.047042   0.012781  -0.057962
     29       0.005746  -0.035781  -0.051347   0.021664   0.007326   0.071377
     30      -0.026792   0.032176  -0.011490   0.001576   0.256207   0.058183
     31       0.055092  -0.056370   0.036816   0.016676   0.061706   0.151325
     32      -0.091388   0.143878  -0.032293   0.090439   0.082686  -0.106960
     33       0.005438   0.011128  -0.002930  -0.015798  -0.057838  -0.007827
     34      -0.001604  -0.037834   0.083691  -0.053284   0.029022  -0.088810
     35       0.010629  -0.065678  -0.114011   0.024717  -0.014542   0.079850
     36       0.009438  -0.004154   0.054727  -0.044352  -0.052323  -0.042445
     37      -0.006085  -0.026945   0.297724  -0.108791   0.078936  -0.169590
     38       0.010988  -0.067647  -0.077442   0.012122  -0.007838   0.062950
     39      -0.002932  -0.011596  -0.032704  -0.005713  -0.052019  -0.013680
     40      -0.000554  -0.040105   0.040560  -0.042581   0.018990  -0.073379
     41       0.013718  -0.081313  -0.333610   0.080534  -0.063679   0.156888
     42       0.055641   0.037312  -0.003589   0.014150   0.157610   0.061388
     43      -0.031464  -0.037035   0.038958  -0.018165   0.034394   0.099131
     44      -0.006866   0.068941   0.018131   0.142091  -0.129228  -0.003536
     45      -0.004828   0.018318  -0.003778  -0.001423   0.195546   0.074288
     46      -0.019605  -0.029872   0.041982  -0.004502   0.019572   0.090217
     47      -0.010117   0.057000   0.008982   0.104265  -0.101835   0.013841
     48      -0.034350   0.015167  -0.010970  -0.008895   0.185168   0.103276
     49       0.114139  -0.085074   0.084760   0.013482   0.075845   0.217960
     50      -0.104751   0.181574  -0.050316   0.105390   0.185998  -0.203251
     51       0.133533  -0.046971  -0.000440   0.085001   0.158784   0.020944
     52      -0.070067   0.001834   0.057431   0.039176  -0.015649   0.074421
     53       0.022645   0.040968   0.008255   0.117236  -0.104153   0.005965
     54       0.244086  -0.045164   0.000262   0.144264   0.179629  -0.014666
     55      -0.297355  -0.028274   0.060131  -0.062675  -0.092556   0.134267
     56       0.147957   0.008217   0.014447   0.211381  -0.127350  -0.052579
     57       0.343106  -0.045982   0.000654   0.198667   0.193981  -0.046693
     58       0.092122   0.044340   0.063429   0.149198   0.027372   0.014090
     59      -0.057276   0.090723   0.014142   0.100491  -0.098129   0.021524
     60       0.002488   0.029449   0.007720  -0.024878  -0.048267  -0.011092
     61       0.016074   0.008262   0.006546  -0.049666  -0.003767  -0.039147
     62       0.004850  -0.015687  -0.088431   0.001394   0.009117   0.066799
     63      -0.006041   0.013767   0.013229  -0.032943  -0.036039  -0.028366
     64       0.015235   0.004306  -0.018762  -0.053436  -0.007837  -0.038006
     65       0.006816  -0.019585  -0.174500  -0.005444  -0.011180   0.082422
     66      -0.032302   0.037934  -0.015272   0.000980   0.254827   0.042564
     67       0.076703  -0.076692   0.055140   0.017346   0.083343   0.208860
     68      -0.099831   0.173264  -0.044574   0.101702   0.163054  -0.182818
     69      -0.125325   0.038426  -0.005175  -0.056625   0.224116   0.105671
     70      -0.076974  -0.046019   0.035937  -0.045765   0.053852   0.110284
     71       0.070483   0.015514   0.004115   0.124984  -0.099549  -0.002376
     72       0.007510   0.042164  -0.033264   0.004219  -0.067692   0.033632
     73      -0.007581  -0.078291  -0.099276  -0.007278   0.000851  -0.050323
     74       0.012722  -0.075764   0.075107  -0.040419   0.021769  -0.008267
     75       0.022146   0.060225  -0.016262  -0.002810  -0.095430   0.036069
     76      -0.009172  -0.073952  -0.058210  -0.017233   0.014072  -0.060899
     77       0.003671  -0.052553   0.294060  -0.094449   0.092871  -0.068577
     78      -0.002146   0.062891  -0.081515   0.034098  -0.056975   0.079403
     79       0.004280  -0.096298  -0.315391   0.046344  -0.074772   0.014185
     80       0.012214  -0.073684   0.038691  -0.027695   0.014762   0.009018
     81      -0.126003  -0.118614   0.000654  -0.038948   0.043254   0.086253
     82      -0.029368   0.022075   0.062216   0.084752  -0.010653   0.050044
     83      -0.012850   0.002988  -0.006566   0.019508  -0.080996   0.060291
     84      -0.341790  -0.120438  -0.003288  -0.185291   0.008294   0.218794
     85      -0.185542  -0.020586   0.056504  -0.029493  -0.053478   0.122171
     86       0.079426  -0.042848  -0.008086   0.072716  -0.086184  -0.023342
     87      -0.234818  -0.121229  -0.001182  -0.111444   0.023559   0.150645
     88       0.185288   0.050472   0.060719   0.191378   0.067969  -0.028625
     89      -0.159620   0.030160  -0.015981  -0.127457  -0.054144   0.213284
     90       0.051027  -0.181848   0.010060   0.131991  -0.003954  -0.116374
     91      -0.066598   0.059368   0.075418   0.139756  -0.053195   0.033313
     92       0.020460  -0.011864  -0.006452   0.040995  -0.083834   0.029832
     93       0.134055  -0.183369   0.011635   0.192589   0.014907  -0.174231
     94      -0.212444   0.042789   0.077338   0.063850  -0.128970   0.094590
     95       0.156574  -0.041626   0.002697   0.183546  -0.112974  -0.122055
     96       0.218099  -0.188894   0.013537   0.256496   0.028168  -0.237959
     97       0.032917   0.090692   0.079983   0.228063  -0.013291  -0.025247
     98      -0.073348   0.032822  -0.005544  -0.012755  -0.078158   0.114025
     99       0.002604   0.023564  -0.025437  -0.003210  -0.053593   0.009632
    100      -0.026971  -0.099525  -0.046553  -0.020858   0.062138  -0.093559
    101       0.027123  -0.117785   0.011310  -0.047988  -0.027750  -0.035392
    102       0.013325   0.000897  -0.005133  -0.025519  -0.077475  -0.018028
    103      -0.033329  -0.086968   0.119046  -0.061137   0.110801  -0.123167
    104       0.028482  -0.120743   0.030422  -0.055814  -0.027519  -0.043263
    105      -0.013755   0.010142  -0.028176   0.000570  -0.010502  -0.014832
    106      -0.026170  -0.102982  -0.081040  -0.012527   0.053776  -0.088903
    107       0.030956  -0.133883  -0.154327  -0.008026  -0.069206  -0.012333
    108       0.026652   0.072603  -0.020781  -0.009876  -0.037099   0.028685
    109       0.042846   0.058016  -0.019000  -0.034596   0.012278  -0.000604
    110       0.001465   0.020483   0.107002  -0.017456   0.153674  -0.017706
    111      -0.003108   0.075221   0.065643  -0.079652  -0.058793  -0.089061
    112       0.046200   0.100018  -0.100874  -0.080043  -0.100230  -0.015821
    113      -0.001604   0.085168   0.006841  -0.106197  -0.023416  -0.074161
    114      -0.092072  -0.230684   0.012625   0.063586  -0.115132  -0.086721
    115      -0.043512   0.075345   0.078977   0.176279  -0.049099   0.012037
    116      -0.000709  -0.045052  -0.018647  -0.050246  -0.056890   0.087508
    117      -0.018308  -0.260551   0.017403   0.143045  -0.140646  -0.185198
    118      -0.059772   0.097875   0.086996   0.218570  -0.078358  -0.008785
    119       0.013143  -0.052089  -0.018586  -0.040855  -0.058419   0.072998
    120      -0.211017  -0.232656   0.010497  -0.024296  -0.149981  -0.003978
    121      -0.130186   0.045657   0.075358   0.100024  -0.088720   0.061657
    122       0.050831  -0.079807  -0.020362  -0.027641  -0.059711   0.038224
    123      -0.151724  -0.233747   0.011838   0.021521  -0.136003  -0.048664
    124       0.076389   0.094092   0.077157   0.236947   0.023183  -0.032653
    125      -0.081830  -0.027412  -0.025672  -0.148917  -0.032824   0.194492
    126       0.005102   0.052785  -0.040400   0.013283  -0.065392   0.053501
    127      -0.039750  -0.129570  -0.163938   0.006861   0.075661  -0.112998
    128       0.034899  -0.132879   0.136619  -0.096193  -0.023033  -0.081004
    129       0.018710   0.061639  -0.014607   0.002608  -0.097198   0.074519
    130      -0.039693  -0.126004  -0.135207   0.000338   0.081405  -0.116174
    131       0.036855  -0.116170   0.268515  -0.126999  -0.001627  -0.092497
    132       0.001887   0.041182  -0.039622   0.009396  -0.055800   0.034584
    133      -0.049982  -0.139624  -0.148919   0.003717   0.107601  -0.141442
    134       0.040388  -0.161873   0.113488  -0.106498  -0.041236  -0.106956
    135      -0.002601   0.075540  -0.076421   0.039123  -0.052681   0.085174
    136      -0.039178  -0.144303  -0.293105   0.036781   0.048224  -0.096386
    137       0.033846  -0.130980   0.119438  -0.089690  -0.023728  -0.074934
                 12         13         14         15         16         17    
      0       0.030574   0.013984   0.053422   0.001343   0.047148  -0.034619
      1       0.046170  -0.048163   0.036596  -0.057141   0.059958  -0.001038
      2       0.053791   0.002854   0.053685  -0.004421   0.117530  -0.039988
      3       0.025634   0.022123   0.019694   0.033768   0.075033  -0.021988
      4       0.027991  -0.024908  -0.010324   0.018730   0.088500  -0.008140
      5       0.060042   0.002015  -0.004847   0.013374   0.179424   0.012407
      6       0.015270   0.013300   0.003848   0.000993   0.010446   0.020829
      7      -0.012902  -0.003859  -0.045506   0.065831   0.010004  -0.005860
      8       0.012105   0.012046  -0.052669   0.021925   0.042323   0.058150
      9       0.011085  -0.003086   0.026094  -0.064709  -0.069529   0.052541
     10      -0.034923  -0.005531  -0.030927   0.038809  -0.091448   0.005869
     11      -0.040310   0.024502  -0.036594   0.015860  -0.140556   0.056546
     12       0.017825  -0.010612   0.061623  -0.098574  -0.100284   0.045088
     13      -0.014598  -0.027897   0.017833  -0.038043  -0.124313   0.017520
     14      -0.042756   0.026636   0.025882  -0.002995  -0.207782   0.011460
     15       0.027057  -0.002207   0.075775  -0.066581  -0.045272  -0.000277
     16       0.025144  -0.049191   0.051262  -0.086050  -0.052898   0.012114
     17       0.002723   0.015484   0.070719  -0.015483  -0.087881  -0.038142
     18       0.029179   0.034484   0.005529   0.084224   0.144629  -0.050286
     19       0.044878  -0.024310  -0.019255   0.039134   0.171037  -0.018660
     20       0.100565  -0.008011  -0.014562   0.018371   0.327704   0.011883
     21       0.002766  -0.007955   0.018113  -0.091153  -0.104251   0.083404
     22      -0.068883   0.011275  -0.056669   0.079081  -0.147058   0.004769
     23      -0.078952   0.034946  -0.067883   0.026110  -0.226143   0.086604
     24       0.031289  -0.007969   0.103314  -0.092907  -0.072365  -0.008704
     25       0.039590  -0.065965   0.089118  -0.144642  -0.081510   0.017708
     26      -0.001301   0.017190   0.119604  -0.032535  -0.147464  -0.075838
     27       0.001050  -0.001036  -0.039326   0.000800  -0.030657  -0.012421
     28      -0.061493   0.000478  -0.104572   0.116419  -0.000714  -0.045062
     29      -0.027773  -0.035701  -0.149847  -0.005977  -0.044089  -0.010931
     30      -0.064339   0.024256   0.030700  -0.016092   0.081139  -0.063279
     31       0.218412  -0.002069   0.029662  -0.001725   0.003160  -0.007538
     32       0.152098  -0.022957  -0.001767   0.034979  -0.005506   0.006767
     33      -0.000554   0.001088  -0.023604  -0.000600  -0.026975  -0.007049
     34      -0.074113  -0.006072  -0.091439   0.113405   0.011250  -0.033250
     35      -0.002986  -0.011239  -0.095125  -0.016060  -0.057016  -0.008752
     36      -0.008641  -0.028083  -0.011093  -0.041806  -0.010107  -0.054045
     37      -0.139333  -0.117547  -0.184978   0.049408   0.070552  -0.124206
     38      -0.011870  -0.029730  -0.102138  -0.031857  -0.046207  -0.028715
     39       0.003494   0.019574   0.012276   0.005667  -0.029963   0.032883
     40      -0.060718   0.015909  -0.071209   0.125862   0.000367  -0.014209
     41       0.064071   0.103989   0.011063   0.047495  -0.113502   0.092272
     42      -0.035913  -0.031589   0.020013   0.036775   0.012640  -0.056714
     43       0.024657   0.184855  -0.037198  -0.130652   0.051694   0.013403
     44      -0.106974  -0.122080   0.074094   0.073206   0.006482  -0.026742
     45      -0.071660  -0.035643   0.047119   0.040260   0.047182  -0.039920
     46       0.024971   0.173435  -0.042864  -0.122329   0.040599   0.007189
     47      -0.092556  -0.086901   0.075549   0.050795   0.023336  -0.018403
     48      -0.165560   0.030495   0.057707  -0.010544   0.087366  -0.067877
     49       0.301390  -0.142803   0.061336   0.045234   0.003143  -0.041118
     50       0.279310   0.016804  -0.056829   0.012914  -0.017137   0.027819
     51      -0.099891  -0.004501   0.045379   0.041242   0.050927   0.006993
     52       0.003939   0.108299  -0.020857  -0.085700   0.022784   0.000577
     53      -0.096849  -0.073641   0.073569   0.046115   0.026822  -0.009176
     54      -0.116107   0.019300   0.037463   0.030742   0.057947  -0.010271
     55       0.033299   0.050592   0.000750  -0.052332   0.000086   0.065458
     56      -0.121267  -0.058995   0.072157   0.051228   0.024548   0.010342
     57      -0.131055   0.039741   0.032866   0.023415   0.064975  -0.023403
     58      -0.029380   0.118167  -0.024041  -0.090536   0.031042  -0.055216
     59      -0.095645  -0.119504   0.085918   0.063283   0.018779  -0.036438
     60       0.010391   0.020419  -0.016673   0.020631   0.017924   0.024538
     61      -0.029972   0.015804  -0.074430   0.115552   0.023345  -0.011141
     62       0.020264   0.013086  -0.084052   0.024512   0.053521   0.081227
     63       0.016545   0.048370  -0.000804   0.054487   0.060868   0.055163
     64      -0.011658   0.035832  -0.052592   0.128498   0.056315   0.020966
     65       0.076426   0.063746  -0.022743   0.046254   0.133989   0.166423
     66      -0.080454   0.046008   0.020581  -0.024413   0.081531  -0.058928
     67       0.336473  -0.121922   0.068286   0.053201  -0.011242  -0.021218
     68       0.247511   0.008894  -0.046247   0.016158  -0.013239   0.022295
     69      -0.074193  -0.052650   0.063926   0.041228   0.057042  -0.040251
     70       0.014548   0.188951  -0.028951  -0.132735   0.064519   0.026210
     71      -0.100515  -0.049564   0.070265   0.038251   0.037282   0.003356
     72       0.002837   0.014802  -0.079108   0.040864  -0.041950   0.002791
     73      -0.025546   0.083311   0.038441   0.141377  -0.034549   0.069071
     74      -0.046040  -0.102821  -0.123402  -0.095622  -0.000031  -0.104583
     75       0.019851   0.109328  -0.057362   0.168343  -0.067345  -0.051024
     76      -0.038929   0.041806   0.005350   0.106542  -0.017110   0.058649
     77      -0.122554  -0.320386  -0.299798  -0.272459   0.092097  -0.160417
     78      -0.009072  -0.043714  -0.170081  -0.006695  -0.039317   0.053016
     79       0.056837   0.317604   0.219301   0.341936  -0.131477   0.114733
     80      -0.038364  -0.086104  -0.119871  -0.080885  -0.011164  -0.087991
     81      -0.054569  -0.057667   0.065062   0.074672   0.023961   0.105949
     82      -0.009618   0.095449  -0.014884  -0.076602   0.021577  -0.015988
     83      -0.070268  -0.012879   0.049285   0.004332   0.042168   0.007759
     84      -0.087007  -0.131360   0.122993   0.143417   0.000102   0.160710
     85       0.013679   0.085365  -0.007728  -0.069396   0.011094   0.034152
     86      -0.003107   0.067770  -0.015077  -0.073610   0.059912  -0.004444
     87      -0.069360  -0.093204   0.092621   0.107226   0.012252   0.133464
     88      -0.014203   0.164494  -0.053540  -0.129369   0.047916  -0.078310
     89      -0.135240  -0.062342   0.108137   0.063967   0.030746   0.035898
     90       0.063069   0.032604  -0.032760  -0.029735   0.041156   0.071283
     91      -0.046075  -0.003556   0.039418   0.002951  -0.000469  -0.010618
     92      -0.047290   0.014522   0.026922  -0.023158   0.048122   0.001251
     93       0.069087   0.070534  -0.057041  -0.062467   0.064875   0.102481
     94      -0.016474  -0.080433   0.069805   0.056976  -0.059138  -0.108673
     95       0.018876   0.062708  -0.030298  -0.081936   0.063445  -0.007034
     96       0.082030   0.109301  -0.084443  -0.097505   0.086758   0.127351
     97      -0.086813   0.007787   0.042865   0.000975   0.035717   0.071955
     98      -0.117326  -0.067924   0.095058   0.058869   0.032650   0.025312
     99      -0.005394  -0.019028  -0.053164  -0.017730  -0.028162   0.015237
    100      -0.077311  -0.097533  -0.017418  -0.076276   0.027740   0.110124
    101       0.013403   0.083717   0.101077   0.047497  -0.051848  -0.120374
    102       0.028978   0.055560   0.049143   0.044039  -0.031177   0.103031
    103      -0.120896  -0.302714  -0.191487  -0.247936   0.125991   0.328455
    104       0.015518   0.078028   0.103477   0.042613  -0.043111  -0.083577
    105      -0.046155  -0.129577  -0.076023  -0.162644  -0.001294  -0.024879
    106      -0.069921  -0.059026   0.019154  -0.046452   0.008425   0.063130
    107       0.049913   0.271381   0.276092   0.194218  -0.144991  -0.341546
    108       0.014924  -0.023126   0.077925  -0.149269  -0.167914   0.072791
    109      -0.030732  -0.028277   0.029871  -0.059346  -0.206898   0.028079
    110      -0.081006   0.037192   0.041124  -0.009654  -0.353838   0.012489
    111       0.037200   0.020714   0.063425   0.028398   0.093739  -0.070655
    112       0.076500  -0.064580   0.063333  -0.094072   0.120700  -0.005520
    113       0.088507  -0.005733   0.088358  -0.012246   0.219845  -0.079502
    114       0.150109  -0.027497  -0.032358  -0.003043  -0.034201  -0.090994
    115      -0.064750  -0.019772   0.051352   0.018822   0.006479   0.017232
    116      -0.020023   0.088486  -0.010333  -0.083881   0.054421  -0.028602
[...]
  13:        68.13    0.000000  (  0.000000   0.000000   0.000000)
  14:        70.47    0.000000  (  0.000000   0.000000   0.000000)
  15:        79.35    0.000000  (  0.000000   0.000000   0.000000)
  16:        81.49    0.000000  (  0.000000   0.000000   0.000000)
  17:       111.51    0.000000  (  0.000000   0.000000   0.000000)
  18:       112.55    0.000000  (  0.000000   0.000000   0.000000)
  19:       124.31    0.000000  (  0.000000   0.000000   0.000000)
  20:       130.53    0.000000  (  0.000000   0.000000   0.000000)
  21:       155.63    0.000000  (  0.000000   0.000000   0.000000)
  22:       189.57    0.000000  (  0.000000   0.000000   0.000000)
  23:       223.71    0.000000  (  0.000000   0.000000   0.000000)
  24:       226.27    0.000000  (  0.000000   0.000000   0.000000)
  25:       264.78    0.000000  (  0.000000   0.000000   0.000000)
  26:       272.29    0.000000  (  0.000000   0.000000   0.000000)
  27:       273.98    0.000000  (  0.000000   0.000000   0.000000)
  28:       287.72    0.000000  (  0.000000   0.000000   0.000000)
  29:       293.95    0.000000  (  0.000000   0.000000   0.000000)
  30:       383.96    0.000000  (  0.000000   0.000000   0.000000)
  31:       393.32    0.000000  (  0.000000   0.000000   0.000000)
  32:       394.42    0.000000  (  0.000000   0.000000   0.000000)
  33:       401.37    0.000000  (  0.000000   0.000000   0.000000)
  34:       425.53    0.000000  (  0.000000   0.000000   0.000000)
  35:       439.48    0.000000  (  0.000000   0.000000   0.000000)
  36:       454.77    0.000000  (  0.000000   0.000000   0.000000)
  37:       475.66    0.000000  (  0.000000   0.000000   0.000000)
  38:       513.55    0.000000  (  0.000000   0.000000   0.000000)
  39:       588.96    0.000000  (  0.000000   0.000000   0.000000)
  40:       624.82    0.000000  (  0.000000   0.000000   0.000000)
  41:       668.54    0.000000  (  0.000000   0.000000   0.000000)
  42:       703.78    0.000000  (  0.000000   0.000000   0.000000)
  43:       758.26    0.000000  (  0.000000   0.000000   0.000000)
  44:       770.69    0.000000  (  0.000000   0.000000   0.000000)
  45:       773.35    0.000000  (  0.000000   0.000000   0.000000)
  46:       824.38    0.000000  (  0.000000   0.000000   0.000000)
  47:       824.64    0.000000  (  0.000000   0.000000   0.000000)
  48:       859.05    0.000000  (  0.000000   0.000000   0.000000)
  49:       877.76    0.000000  (  0.000000   0.000000   0.000000)
  50:       905.60    0.000000  (  0.000000   0.000000   0.000000)
  51:       920.88    0.000000  (  0.000000   0.000000   0.000000)
  52:       927.88    0.000000  (  0.000000   0.000000   0.000000)
  53:       933.91    0.000000  (  0.000000   0.000000   0.000000)
  54:       935.88    0.000000  (  0.000000   0.000000   0.000000)
  55:       938.61    0.000000  (  0.000000   0.000000   0.000000)
  56:       947.17    0.000000  (  0.000000   0.000000   0.000000)
  57:       953.25    0.000000  (  0.000000   0.000000   0.000000)
  58:       984.05    0.000000  (  0.000000   0.000000   0.000000)
  59:       992.99    0.000000  (  0.000000   0.000000   0.000000)
  60:      1016.49    0.000000  (  0.000000   0.000000   0.000000)
  61:      1019.39    0.000000  (  0.000000   0.000000   0.000000)
  62:      1065.91    0.000000  (  0.000000   0.000000   0.000000)
  63:      1067.64    0.000000  (  0.000000   0.000000   0.000000)
  64:      1069.27    0.000000  (  0.000000   0.000000   0.000000)
  65:      1096.74    0.000000  (  0.000000   0.000000   0.000000)
  66:      1098.62    0.000000  (  0.000000   0.000000   0.000000)
  67:      1111.72    0.000000  (  0.000000   0.000000   0.000000)
  68:      1122.71    0.000000  (  0.000000   0.000000   0.000000)
  69:      1126.68    0.000000  (  0.000000   0.000000   0.000000)
  70:      1144.40    0.000000  (  0.000000   0.000000   0.000000)
  71:      1158.15    0.000000  (  0.000000   0.000000   0.000000)
  72:      1177.61    0.000000  (  0.000000   0.000000   0.000000)
  73:      1183.93    0.000000  (  0.000000   0.000000   0.000000)
  74:      1199.15    0.000000  (  0.000000   0.000000   0.000000)
  75:      1212.22    0.000000  (  0.000000   0.000000   0.000000)
  76:      1218.76    0.000000  (  0.000000   0.000000   0.000000)
  77:      1236.44    0.000000  (  0.000000   0.000000   0.000000)
  78:      1254.69    0.000000  (  0.000000   0.000000   0.000000)
  79:      1268.42    0.000000  (  0.000000   0.000000   0.000000)
  80:      1275.63    0.000000  (  0.000000   0.000000   0.000000)
  81:      1276.53    0.000000  (  0.000000   0.000000   0.000000)
  82:      1278.99    0.000000  (  0.000000   0.000000   0.000000)
  83:      1280.02    0.000000  (  0.000000   0.000000   0.000000)
  84:      1291.75    0.000000  (  0.000000   0.000000   0.000000)
  85:      1292.35    0.000000  (  0.000000   0.000000   0.000000)
  86:      1325.42    0.000000  (  0.000000   0.000000   0.000000)
  87:      1351.65    0.000000  (  0.000000   0.000000   0.000000)
  88:      1355.67    0.000000  (  0.000000   0.000000   0.000000)
  89:      1368.25    0.000000  (  0.000000   0.000000   0.000000)
  90:      1379.23    0.000000  (  0.000000   0.000000   0.000000)
  91:      1422.07    0.000000  (  0.000000   0.000000   0.000000)
  92:      1426.26    0.000000  (  0.000000   0.000000   0.000000)
  93:      1427.71    0.000000  (  0.000000   0.000000   0.000000)
  94:      1454.04    0.000000  (  0.000000   0.000000   0.000000)
  95:      1471.66    0.000000  (  0.000000   0.000000   0.000000)
  96:      1497.82    0.000000  (  0.000000   0.000000   0.000000)
  97:      1501.45    0.000000  (  0.000000   0.000000   0.000000)
  98:      1503.43    0.000000  (  0.000000   0.000000   0.000000)
  99:      1504.64    0.000000  (  0.000000   0.000000   0.000000)
 100:      1506.21    0.000000  (  0.000000   0.000000   0.000000)
 101:      1506.60    0.000000  (  0.000000   0.000000   0.000000)
 102:      1506.96    0.000000  (  0.000000   0.000000   0.000000)
 103:      1511.68    0.000000  (  0.000000   0.000000   0.000000)
 104:      1512.57    0.000000  (  0.000000   0.000000   0.000000)
 105:      1545.35    0.000000  (  0.000000   0.000000   0.000000)
 106:      1559.42    0.000000  (  0.000000   0.000000   0.000000)
 107:      1566.73    0.000000  (  0.000000   0.000000   0.000000)
 108:      1568.92    0.000000  (  0.000000   0.000000   0.000000)
 109:      1665.38    0.000000  (  0.000000   0.000000   0.000000)
 110:      2855.90    0.000000  (  0.000000   0.000000   0.000000)
 111:      2875.75    0.000000  (  0.000000   0.000000   0.000000)
 112:      2892.48    0.000000  (  0.000000   0.000000   0.000000)
 113:      2932.94    0.000000  (  0.000000   0.000000   0.000000)
 114:      2938.04    0.000000  (  0.000000   0.000000   0.000000)
 115:      2944.01    0.000000  (  0.000000   0.000000   0.000000)
 116:      2945.56    0.000000  (  0.000000   0.000000   0.000000)
 117:      2953.46    0.000000  (  0.000000   0.000000   0.000000)
 118:      2963.18    0.000000  (  0.000000   0.000000   0.000000)
 119:      2964.30    0.000000  (  0.000000   0.000000   0.000000)
 120:      2967.38    0.000000  (  0.000000   0.000000   0.000000)
 121:      2972.45    0.000000  (  0.000000   0.000000   0.000000)
 122:      2978.12    0.000000  (  0.000000   0.000000   0.000000)
 123:      2978.74    0.000000  (  0.000000   0.000000   0.000000)
 124:      2984.48    0.000000  (  0.000000   0.000000   0.000000)
 125:      2987.65    0.000000  (  0.000000   0.000000   0.000000)
 126:      2996.80    0.000000  (  0.000000   0.000000   0.000000)
 127:      2997.61    0.000000  (  0.000000   0.000000   0.000000)
 128:      3000.07    0.000000  (  0.000000   0.000000   0.000000)
 129:      3011.86    0.000000  (  0.000000   0.000000   0.000000)
 130:      3046.37    0.000000  (  0.000000   0.000000   0.000000)
 131:      3055.32    0.000000  (  0.000000   0.000000   0.000000)
 132:      3060.60    0.000000  (  0.000000   0.000000   0.000000)
 133:      3071.45    0.000000  (  0.000000   0.000000   0.000000)
 134:      3088.35    0.000000  (  0.000000   0.000000   0.000000)
 135:      3302.61    0.000000  (  0.000000   0.000000   0.000000)
 136:      3400.36    0.000000  (  0.000000   0.000000   0.000000)
 137:      3546.51    0.000000  (  0.000000   0.000000   0.000000)

The first frequency considered to be a vibration is 7
The total number of vibrations considered is 131


--------------------------
THERMOCHEMISTRY AT 298.15K
--------------------------

Temperature         ... 298.15 K
Pressure            ... 1.00 atm
Total Mass          ... 252.40 AMU

Throughout the following assumptions are being made:
  (1) The electronic state is orbitally nondegenerate
  (2) There are no thermally accessible electronically excited states
  (3) Hindered rotations indicated by low frequency modes are not
      treated as such but are treated as vibrations and this may
      cause some error
  (4) All equations used are the standard statistical mechanics
      equations for an ideal gas
  (5) All vibrations are strictly harmonic

freq.      24.63  E(vib)   ...       0.56 
freq.      30.13  E(vib)   ...       0.55 
freq.      35.00  E(vib)   ...       0.54 
freq.      46.75  E(vib)   ...       0.53 
freq.      52.90  E(vib)   ...       0.52 
freq.      57.40  E(vib)   ...       0.51 
freq.      68.13  E(vib)   ...       0.50 
freq.      70.47  E(vib)   ...       0.50 
freq.      79.35  E(vib)   ...       0.49 
freq.      81.49  E(vib)   ...       0.48 
freq.     111.51  E(vib)   ...       0.45 
freq.     112.55  E(vib)   ...       0.45 
freq.     124.31  E(vib)   ...       0.43 
freq.     130.53  E(vib)   ...       0.43 
freq.     155.63  E(vib)   ...       0.40 
freq.     189.57  E(vib)   ...       0.36 
freq.     223.71  E(vib)   ...       0.33 
freq.     226.27  E(vib)   ...       0.33 
freq.     264.78  E(vib)   ...       0.29 
freq.     272.29  E(vib)   ...       0.29 
freq.     273.98  E(vib)   ...       0.28 
freq.     287.72  E(vib)   ...       0.27 
freq.     293.95  E(vib)   ...       0.27 
freq.     383.96  E(vib)   ...       0.20 
freq.     393.32  E(vib)   ...       0.20 
freq.     394.42  E(vib)   ...       0.20 
freq.     401.37  E(vib)   ...       0.19 
freq.     425.53  E(vib)   ...       0.18 
freq.     439.48  E(vib)   ...       0.17 
freq.     454.77  E(vib)   ...       0.16 
freq.     475.66  E(vib)   ...       0.15 
freq.     513.55  E(vib)   ...       0.13 
freq.     588.96  E(vib)   ...       0.10 
freq.     624.82  E(vib)   ...       0.09 
freq.     668.54  E(vib)   ...       0.08 
freq.     703.78  E(vib)   ...       0.07 
freq.     758.26  E(vib)   ...       0.06 
freq.     770.69  E(vib)   ...       0.05 
freq.     773.35  E(vib)   ...       0.05 
freq.     824.38  E(vib)   ...       0.04 
freq.     824.64  E(vib)   ...       0.04 
freq.     859.05  E(vib)   ...       0.04 
freq.     877.76  E(vib)   ...       0.04 
freq.     905.60  E(vib)   ...       0.03 
freq.     920.88  E(vib)   ...       0.03 
freq.     927.88  E(vib)   ...       0.03 
freq.     933.91  E(vib)   ...       0.03 
freq.     935.88  E(vib)   ...       0.03 
freq.     938.61  E(vib)   ...       0.03 
freq.     947.17  E(vib)   ...       0.03 
freq.     953.25  E(vib)   ...       0.03 
freq.     984.05  E(vib)   ...       0.02 
freq.     992.99  E(vib)   ...       0.02 
freq.    1016.49  E(vib)   ...       0.02 
freq.    1019.39  E(vib)   ...       0.02 
freq.    1065.91  E(vib)   ...       0.02 
freq.    1067.64  E(vib)   ...       0.02 
freq.    1069.27  E(vib)   ...       0.02 
freq.    1096.74  E(vib)   ...       0.02 
freq.    1098.62  E(vib)   ...       0.02 
freq.    1111.72  E(vib)   ...       0.01 
freq.    1122.71  E(vib)   ...       0.01 
freq.    1126.68  E(vib)   ...       0.01 
freq.    1144.40  E(vib)   ...       0.01 
freq.    1158.15  E(vib)   ...       0.01 
freq.    1177.61  E(vib)   ...       0.01 
freq.    1183.93  E(vib)   ...       0.01 
freq.    1199.15  E(vib)   ...       0.01 
freq.    1212.22  E(vib)   ...       0.01 
freq.    1218.76  E(vib)   ...       0.01 
freq.    1236.44  E(vib)   ...       0.01 
freq.    1254.69  E(vib)   ...       0.01 
freq.    1268.42  E(vib)   ...       0.01 
freq.    1275.63  E(vib)   ...       0.01 
freq.    1276.53  E(vib)   ...       0.01 
freq.    1278.99  E(vib)   ...       0.01 
freq.    1280.02  E(vib)   ...       0.01 
freq.    1291.75  E(vib)   ...       0.01 
freq.    1292.35  E(vib)   ...       0.01 
freq.    1325.42  E(vib)   ...       0.01 
freq.    1351.65  E(vib)   ...       0.01 
freq.    1355.67  E(vib)   ...       0.01 
freq.    1368.25  E(vib)   ...       0.01 
freq.    1379.23  E(vib)   ...       0.01 
freq.    1422.07  E(vib)   ...       0.00 
freq.    1426.26  E(vib)   ...       0.00 
freq.    1427.71  E(vib)   ...       0.00 
freq.    1454.04  E(vib)   ...       0.00 
freq.    1471.66  E(vib)   ...       0.00 
freq.    1497.82  E(vib)   ...       0.00 
freq.    1501.45  E(vib)   ...       0.00 
freq.    1503.43  E(vib)   ...       0.00 
freq.    1504.64  E(vib)   ...       0.00 
freq.    1506.21  E(vib)   ...       0.00 
freq.    1506.60  E(vib)   ...       0.00 
freq.    1506.96  E(vib)   ...       0.00 
freq.    1511.68  E(vib)   ...       0.00 
freq.    1512.57  E(vib)   ...       0.00 
freq.    1545.35  E(vib)   ...       0.00 
freq.    1559.42  E(vib)   ...       0.00 
freq.    1566.73  E(vib)   ...       0.00 
freq.    1568.92  E(vib)   ...       0.00 
freq.    1665.38  E(vib)   ...       0.00 
freq.    2855.90  E(vib)   ...       0.00 
freq.    2875.75  E(vib)   ...       0.00 
freq.    2892.48  E(vib)   ...       0.00 
freq.    2932.94  E(vib)   ...       0.00 
freq.    2938.04  E(vib)   ...       0.00 
freq.    2944.01  E(vib)   ...       0.00 
freq.    2945.56  E(vib)   ...       0.00 
freq.    2953.46  E(vib)   ...       0.00 
freq.    2963.18  E(vib)   ...       0.00 
freq.    2964.30  E(vib)   ...       0.00 
freq.    2967.38  E(vib)   ...       0.00 
freq.    2972.45  E(vib)   ...       0.00 
freq.    2978.12  E(vib)   ...       0.00 
freq.    2978.74  E(vib)   ...       0.00 
freq.    2984.48  E(vib)   ...       0.00 
freq.    2987.65  E(vib)   ...       0.00 
freq.    2996.80  E(vib)   ...       0.00 
freq.    2997.61  E(vib)   ...       0.00 
freq.    3000.07  E(vib)   ...       0.00 
freq.    3011.86  E(vib)   ...       0.00 
freq.    3046.37  E(vib)   ...       0.00 
freq.    3055.32  E(vib)   ...       0.00 
freq.    3060.60  E(vib)   ...       0.00 
freq.    3071.45  E(vib)   ...       0.00 
freq.    3088.35  E(vib)   ...       0.00 
freq.    3302.61  E(vib)   ...       0.00 
freq.    3400.36  E(vib)   ...       0.00 
freq.    3546.51  E(vib)   ...       0.00 

------------
INNER ENERGY
------------

The inner energy is: U= E(el) + E(ZPE) + E(vib) + E(rot) + E(trans)
    E(el)   - is the total energy from the electronic structure calculation
              = E(kin-el) + E(nuc-el) + E(el-el) + E(nuc-nuc)
    E(ZPE)  - the the zero temperature vibrational energy from the frequency calculation
    E(vib)  - the the finite temperature correction to E(ZPE) due to population
              of excited vibrational states
    E(rot)  - is the rotational thermal energy
    E(trans)- is the translational thermal energy

Summary of contributions to the inner energy U:
Electronic energy                ...    -56.29537335 Eh
Zero point energy                ...      0.39983042 Eh     250.90 kcal/mol
Thermal vibrational correction   ...      0.02027201 Eh      12.72 kcal/mol
Thermal rotational correction    ...      0.00141627 Eh       0.89 kcal/mol
Thermal translational correction ...      0.00141627 Eh       0.89 kcal/mol
-----------------------------------------------------------------------
Total thermal energy                    -55.87243837 Eh


Summary of corrections to the electronic energy:
(perhaps to be used in another calculation)
Total thermal correction                  0.02310456 Eh      14.50 kcal/mol
Non-thermal (ZPE) correction              0.39983042 Eh     250.90 kcal/mol
-----------------------------------------------------------------------
Total correction                          0.42293498 Eh     265.40 kcal/mol


--------
ENTHALPY
--------

The enthalpy is H = U + kB*T
                kB is Boltzmann's constant
Total free energy                 ...    -55.87243837 Eh 
Thermal Enthalpy correction       ...      0.00094421 Eh       0.59 kcal/mol
-----------------------------------------------------------------------
Total Enthalpy                    ...    -55.87149416 Eh


Note: Only C1 symmetry has been detected, increase convergence thresholds 
      if your molecule has a higher symmetry. Symmetry factor of 1.0 is   
      used for the rotational entropy correction. 
 

Note: Rotational entropy computed according to Herzberg 
Infrared and Raman Spectra, Chapter V,1, Van Nostrand Reinhold, 1945 
Point Group:  C1, Symmetry Number:   1  
Rotational constants in cm-1:     0.010394     0.007871     0.004998 

Vibrational entropy computed according to the QRRHO of S. Grimme
Chem.Eur.J. 2012 18 9955


-------
ENTROPY
-------

The entropy contributions are T*S = T*(S(el)+S(vib)+S(rot)+S(trans))
     S(el)   - electronic entropy
     S(vib)  - vibrational entropy
     S(rot)  - rotational entropy
     S(trans)- translational entropy
The entropies will be listed as mutliplied by the temperature to get
units of energy

Electronic entropy                ...      0.00000000 Eh      0.00 kcal/mol
Vibrational entropy               ...      0.03714449 Eh     23.31 kcal/mol
Rotational entropy                ...      0.01645514 Eh     10.33 kcal/mol
Translational entropy             ...      0.02018250 Eh     12.66 kcal/mol
-----------------------------------------------------------------------
Final entropy term                ...      0.07378213 Eh     46.30 kcal/mol

In case the symmetry of your molecule has not been determined correctly
or in case you have a reason to use a different symmetry number we print 
out the resulting rotational entropy values for sn=1,12 :
 --------------------------------------------------------
|  sn= 1 | S(rot)=       0.01645514 Eh     10.33 kcal/mol|
|  sn= 2 | S(rot)=       0.01580068 Eh      9.92 kcal/mol|
|  sn= 3 | S(rot)=       0.01541785 Eh      9.67 kcal/mol|
|  sn= 4 | S(rot)=       0.01514623 Eh      9.50 kcal/mol|
|  sn= 5 | S(rot)=       0.01493554 Eh      9.37 kcal/mol|
|  sn= 6 | S(rot)=       0.01476339 Eh      9.26 kcal/mol|
|  sn= 7 | S(rot)=       0.01461785 Eh      9.17 kcal/mol|
|  sn= 8 | S(rot)=       0.01449177 Eh      9.09 kcal/mol|
|  sn= 9 | S(rot)=       0.01438056 Eh      9.02 kcal/mol|
|  sn=10 | S(rot)=       0.01428108 Eh      8.96 kcal/mol|
|  sn=11 | S(rot)=       0.01419109 Eh      8.91 kcal/mol|
|  sn=12 | S(rot)=       0.01410894 Eh      8.85 kcal/mol|
 --------------------------------------------------------


-------------------
GIBBS FREE ENERGY
-------------------

The Gibbs free energy is G = H - T*S

Total enthalpy                    ...    -55.87149416 Eh 
Total entropy correction          ...     -0.07378213 Eh    -46.30 kcal/mol
-----------------------------------------------------------------------
Final Gibbs free energy         ...    -55.94527629 Eh

For completeness - the Gibbs free energy minus the electronic energy
G-E(el)                           ...      0.35009706 Eh    219.69 kcal/mol


Total Time for Numerical Frequencies  :       173.905 sec
Time for Reference State(s)           :         0.187 sec
Time for Displacements                :       157.978 sec

Timings for individual modules:

Sum of individual times         ...        0.422 sec (=   0.007 min)
XTB module                      ...        0.422 sec (=   0.007 min) 100.0 %
                             ****ORCA TERMINATED NORMALLY****
TOTAL RUN TIME: 0 days 0 hours 2 minutes 55 seconds 774 msec
(SLURM) EXECUTION TIME: 176.492651042 seconds.
