(SLURM) JOB ID:         263

                                 *****************
                                 * O   R   C   A *
                                 *****************

           --- An Ab Initio, DFT and Semiempirical electronic structure package ---

                  #######################################################
                  #                        -***-                        #
                  #          Department of theory and spectroscopy      #
                  #               Directorship: Frank Neese             #
                  #        Max Planck Institute fuer Kohlenforschung    #
                  #                Kaiser Wilhelm Platz 1               #
                  #                 D-45470 Muelheim/Ruhr               #
                  #                      Germany                        #
                  #                                                     #
                  #                  All rights reserved                #
                  #                        -***-                        #
                  #######################################################


                         Program Version 4.2.1 -  RELEASE  -


 With contributions from (in alphabetic order):
   Daniel Aravena         : Magnetic Suceptibility
   Michael Atanasov       : Ab Initio Ligand Field Theory (pilot matlab implementation)
   Alexander A. Auer      : GIAO ZORA, VPT2
   Ute Becker             : Parallelization
   Giovanni Bistoni       : ED, misc. LED, open-shell LED, HFLD
   Martin Brehm           : Molecular dynamics
   Dmytro Bykov           : SCF Hessian
   Vijay G. Chilkuri      : MRCI spin determinant printing, contributions to CSF-ICE
   Dipayan Datta          : RHF DLPNO-CCSD density
   Achintya Kumar Dutta   : EOM-CC, STEOM-CC
   Dmitry Ganyushin       : Spin-Orbit,Spin-Spin,Magnetic field MRCI
   Miquel Garcia          : C-PCM Hessian, Gaussian charge scheme
   Yang Guo               : DLPNO-NEVPT2, CIM, IAO-localization
   Andreas Hansen         : Spin unrestricted coupled pair/coupled cluster methods
   Benjamin Helmich-Paris : CASSCF linear response (MC-RPA)
   Lee Huntington         : MR-EOM, pCC
   Robert Izsak           : Overlap fitted RIJCOSX, COSX-SCS-MP3, EOM
   Christian Kollmar      : KDIIS, OOCD, Brueckner-CCSD(T), CCSD density
   Simone Kossmann        : Meta GGA functionals, TD-DFT gradient, OOMP2, MP2 Hessian
   Martin Krupicka        : AUTO-CI
   Lucas Lang             : DCDCAS
   Dagmar Lenk            : GEPOL surface, SMD
   Dimitrios Liakos       : Extrapolation schemes; Compound Job, initial MDCI parallelization
   Dimitrios Manganas     : Further ROCIS development; embedding schemes
   Dimitrios Pantazis     : SARC Basis sets
   Taras Petrenko         : DFT Hessian,TD-DFT gradient, ASA, ECA, R-Raman, ABS, FL, XAS/XES, NRVS
   Peter Pinski           : DLPNO-MP2, DLPNO-MP2 Gradient
   Christoph Reimann      : Effective Core Potentials
   Marius Retegan         : Local ZFS, SOC
   Christoph Riplinger    : Optimizer, TS searches, QM/MM, DLPNO-CCSD(T), (RO)-DLPNO pert. Triples
   Tobias Risthaus        : Range-separated hybrids, TD-DFT gradient, RPA, STAB
   Michael Roemelt        : Original ROCIS implementation
   Masaaki Saitow         : Open-shell DLPNO-CCSD energy and density
   Barbara Sandhoefer     : DKH picture change effects
   Avijit Sen             : IP-ROCIS
   Kantharuban Sivalingam : CASSCF convergence, NEVPT2, FIC-MRCI
   Bernardo de Souza      : ESD, SOC TD-DFT
   Georgi Stoychev        : AutoAux, RI-MP2 NMR
   Willem Van den Heuvel  : Paramagnetic NMR
   Boris Wezisla          : Elementary symmetry handling
   Frank Wennmohs         : Technical directorship


 We gratefully acknowledge several colleagues who have allowed us to
 interface, adapt or use parts of their codes:
   Stefan Grimme, W. Hujo, H. Kruse,             : VdW corrections, initial TS optimization,
                  C. Bannwarth                     DFT functionals, gCP, sTDA/sTD-DF
   Ed Valeev, F. Pavosevic, A. Kumar             : LibInt (2-el integral package), F12 methods
   Garnet Chan, S. Sharma, J. Yang, R. Olivares  : DMRG
   Ulf Ekstrom                                   : XCFun DFT Library
   Mihaly Kallay                                 : mrcc  (arbitrary order and MRCC methods)
   Andreas Klamt, Michael Diedenhofen            : otool_cosmo (COSMO solvation model)
   Jiri Pittner, Ondrej Demel                    : Mk-CCSD
   Frank Weinhold                                : gennbo (NPA and NBO analysis)
   Christopher J. Cramer and Donald G. Truhlar   : smd solvation model
   Lars Goerigk                                  : TD-DFT with DH, B97 family of functionals
   V. Asgeirsson, H. Jonsson                     : NEB implementation
   FAccTs GmbH                                   : IRC, NEB, NEB-TS, Multilevel, MM, QM/MM, CI optimization
   S Lehtola, MJT Oliveira, MAL Marques          : LibXC Library


 Your calculation uses the libint2 library for the computation of 2-el integrals
 For citations please refer to: http://libint.valeyev.net

 Your ORCA version has been built with support for libXC version: 4.2.3
 For citations please refer to: https://tddft.org/programs/libxc/

 This ORCA versions uses:
   CBLAS   interface :  Fast vector & matrix operations
   LAPACKE interface :  Fast linear algebra routines
   SCALAPACK package :  Parallel linear algebra routines




***************************************
The coordinates will be read from file: init.xyz
***************************************


Your calculation utilizes the SMD solvation module
Please cite in your paper:
A.V. Marenich, C.J. Cramer, D.G. Truhlar J. Phys. Chem. B, 113, (2009), 6378 

Your calculation utilizes the semiempirical GFN2-xTB method
Please cite in your paper:
C. Bannwarth, Ehlert S., S. Grimme,  J. Chem. Theory Comput., 15, (2019), 1652.
   

----- Orbital basis set information -----
Your calculation utilizes the basis: def2-SVP
   F. Weigend and R. Ahlrichs, Phys. Chem. Chem. Phys. 7, 3297 (2005).

================================================================================
                                        WARNINGS
                       Please study these warnings very carefully!
================================================================================

WARNING: Gradients needed for Numerical Frequencies
  ===> : Setting RunTyp to EnGrad

WARNING: The environment variable RSH_COMMAND is not set!
  ===> : All Displacements for the Numerical Hessian calculation
         will be started on localhost

WARNING: Found dipole moment calculation with XTB calculation
  ===> : Switching off dipole moment calculation


INFO   : the flag for use of LIBINT has been found!

================================================================================
                                       INPUT FILE
================================================================================
NAME = /tmp/slurm-scratch/freq.263/freq.inp
|  1> ! XTB2 NumFreq
|  2> %maxcore 1450
|  3> 
|  4> * xyzfile 0 1 init.xyz
|  5> 
|  6> %cpcm
|  7>  smd true
|  8>  smdsolvent "ch2cl2"
|  9> end
| 10> %pal nprocs 8 end
| 11> 
| 12>                          ****END OF INPUT****
================================================================================

                     *******************************
                     * Energy+Gradient Calculation *
                     *******************************

      -----------------------------------------------------------      
     |                   =====================                   |     
     |                           x T B                           |     
     |                   =====================                   |     
     |                         S. Grimme                         |     
     |          Mulliken Center for Theoretical Chemistry        |     
     |                    University of Bonn                     |     
      -----------------------------------------------------------      

   * xtb version 6.3.0 (preview) compiled by 'ehlert@majestix' on 2020-01-15

   This program is distributed in the hope that it will be useful,
   but WITHOUT ANY WARRANTY; without even the implied warranty of
   MERCHANTABILITY or FITNESS FOR A PARTICULAR PURPOSE.
   
   FOR NON-COMMERCIAL, ACADEMIA USE ONLY.
   
   Cite this work as:
   * S. Grimme, C. Bannwarth, P. Shushkov, J. Chem. Theory Comput., 2017,
     13, 1989-2009. DOI: 10.1021/acs.jctc.7b00118
   * C. Bannwarth, S. Ehlert and S. Grimme., J. Chem. Theory Comput., 2019,
     15, 1652-1671. DOI: 10.1021/acs.jctc.8b01176
   * P. Pracht, E. Caldeweyher, S. Ehlert, S. Grimme, ChemRxiv, 2019, preprint.
     DOI: 10.26434/chemrxiv.8326202.v1
   * S. Grimme, S. Spicher unpublished
   
   for DFT-D4:
   * E. Caldeweyher, C. Bannwarth and S. Grimme, J. Chem. Phys., 2017,
     147, 034112. DOI: 10.1063/1.4993215
   * E. Caldeweyher, S. Ehlert, A. Hansen, H. Neugebauer, S. Spicher,
     C. Bannwarth and S. Grimme, J. Chem. Phys., 2019, 150, 154122.
     DOI: 10.1063/1.5090222
   
   for sTDA-xTB:
   * S. Grimme and C. Bannwarth, J. Chem. Phys., 2016, 145, 054103.
     DOI: 10.1063/1.4959605
   
   in the mass-spec context:
   * V. Asgeirsson, C. Bauer and S. Grimme, Chem. Sci., 2017, 8, 4879.
     DOI: 10.1039/c7sc00601b
   
   for metadynamics refer to:
   * S. Grimme, J. Chem. Theory Comput., 2019, 155, 2847-2862
     DOI: 10.1021/acs.jctc.9b00143
   
   with help from (in alphabetical order)
   C. Bannwarth, F. Bohle, G. Brandenburg, E. Caldeweyher, M. Checinski,
   S. Dohm, S. Ehlert, S. Ehrlich, F. März, H. Neugebauer, J. Pisarek,
   P. Pracht, P. Shushkov, and S. Spicher.
   
 * started run on 2020/10/23 at 10:51:40.339     

           -------------------------------------------------
          |                Calculation Setup                |
           -------------------------------------------------

          program call               : /opt/orca/otool_xtb /tmp/slurm-scratch/freq.263/freq_XTB.xyz --grad -c 0 -u 0 -P 8 --namespace /tmp/slurm-scratch/freq.263/freq --gbsa CH2Cl2
          hostname                   : headnode-pbs
          calculation namespace      : /tmp/slurm-scratch/freq.263/freq
          coordinate file            : /tmp/slurm-scratch/freq.263/freq_XTB.xyz
          omp threads                :                     8
          number of atoms            :                    33
          number of electrons        :                    80
          charge                     :                     0
          spin                       :                   0.0
          first test random number   :      0.15858017722113


molecular fragmentation (1/2 indicates fragments):
111111111222222221112222222112222
# atoms in fragment 1/2:    14    19
 fragment masses (1/2) :      106.12       91.15
CMA distance (Bohr)    :   8.999
constraining FC (au)   :  0.0500

########################################################################
# WARNING! Please study the warnings concerning your input carefully
#  - Process number higher than OMP_NUM_THREADS, I hope you know what you are doing.
########################################################################

           ------------------------------------------------- 
          |                 G F N 2 - x T B                 |
          | Geometry, Frequencies, Noncovalent interactions |
          |            JCTC 2019 parametrisation            |
           ------------------------------------------------- 
             k(s)              :                1.8500
             k(p)              :                2.2300
             k(d)              :                2.2300
             k(f)              :                2.0000
             kEN (H0ij)        :               -2.0000
             D4 a1             :                0.5200
             D4 a2             :                5.0000
             D4 s6             :                1.0000
             D4 s8             :                2.7000
             D4 s9             :                5.0000
             alphaj            :                2.0000

  Z AO/shell   Hii/eV     exponent
  1     Wed Apr 25 08:07:45 CEST 2018   EN: 2.200 GM2: 0.406  GM3: 0.0800  RAES: 1.40
     1s    -10.707211    1.230000
  6     Wed Apr 25 08:07:45 CEST 2018   EN: 2.550 GM2: 0.538  GM3: 0.1500  RAES: 3.00
     2s    -13.970922    2.096432
     2p    -10.063292    1.800000
  7     Wed Apr 25 08:07:45 CEST 2018   EN: 3.040 GM2: 0.461  GM3:-0.0640  RAES: 1.90
     2s    -16.686243    2.339881
     2p    -12.523956    2.014332
  8     Wed Apr 25 08:07:45 CEST 2018   EN: 3.440 GM2: 0.452  GM3:-0.0517  RAES: 1.80
     2s    -20.229985    2.439742
     2p    -15.503117    2.137023

 Solvent             : CH2Cl2
 Using internal parameter file: .param_gbsa2_CH2Cl2
 Gsolv ref. state (COSMO-RS): gsolv [1 M gas/solution]
 temperature (mdtemp)       :    298.150000000000     
 dielectric constant        :    8.93000000000000     
 rho                        :    1.33000000000000     
 mass                       :    84.9300000000000     
 surface tension            :    15.5689454083859     
 probe radius               :   0.719875900000000     
 Gshift (Eh)                :   4.440829173451759E-003
 c1                         :    1.49173776000000     
 soset                      :   0.000000000000000E+000
 HB correction              :  F
           ------------------------------------------------- 
          |        Self-Consistent Charge Iterations        |
           ------------------------------------------------- 

          ...................................................
          :                      SETUP                      :
          :.................................................:
          :  # basis functions                  75          :
          :  # atomic orbitals                  75          :
          :  # shells                           47          :
          :  # electrons                        80          :
          :  max. iterations                   250          :
          :  Hamiltonian                  GFN2-xTB          :
          :  GBSA solvation                   true          :
          :  PC potential                    false          :
          :  electronic temp.          300.0000000     K    :
          :  accuracy                    1.0000000          :
          :  -> integral cutoff          0.2500000E+02      :
          :  -> integral neglect         0.1000000E-07      :
          :  -> SCF convergence          0.1000000E-05 Eh   :
          :  -> wf. convergence          0.1000000E-03 e    :
          :  Broyden damping             0.4000000          :
          ...................................................
  Checking positiv definite overlap ...  done.
 

 iter      E             dE          RMSdq      gap      omega  full diag
   1    -44.8058737 -0.448059E+02  0.382E+00    2.34       0.0  T
   2    -44.8643286 -0.584549E-01  0.206E+00    2.20       1.0  T
   3    -44.8642192  0.109393E-03  0.988E-01    2.38       1.0  T
   4    -44.8697566 -0.553732E-02  0.202E-01    2.21       1.0  T
   5    -44.8703536 -0.597049E-03  0.724E-02    2.22       1.0  T
   6    -44.8704037 -0.500764E-04  0.372E-02    2.24       1.0  T
   7    -44.8704169 -0.132205E-04  0.130E-02    2.24       1.3  T
   8    -44.8704175 -0.580587E-06  0.405E-03    2.24       4.3  T
   9    -44.8704176 -0.131060E-06  0.171E-03    2.24      10.2  T
  10    -44.8704176 -0.220718E-07  0.892E-04    2.24      19.5  T
  11    -44.8704176 -0.343562E-08  0.359E-04    2.24      48.4  T

   *** convergence criteria satisfied after 11 iterations ***

         #    Occupation            Energy/Eh            Energy/eV
      -------------------------------------------------------------
         1        2.0000           -0.7146899             -19.4477
       ...           ...                  ...                  ...
        34        2.0000           -0.4357105             -11.8563
        35        2.0000           -0.4309380             -11.7264
        36        2.0000           -0.4249553             -11.5636
        37        2.0000           -0.4184802             -11.3874
        38        2.0000           -0.4154988             -11.3063
        39        2.0000           -0.4046535             -11.0112
        40        2.0000           -0.3758667             -10.2279 (HOMO)
        41                         -0.2936535              -7.9907 (LUMO)
        42                         -0.2347333              -6.3874
        43                         -0.2028234              -5.5191
        44                         -0.0955368              -2.5997
        45                          0.0223285               0.6076
       ...                                ...                  ...
        75                          0.6490722              17.6622
      -------------------------------------------------------------
                  HL-Gap            0.0822131 Eh            2.2371 eV
             Fermi-level           -0.3347601 Eh           -9.1093 eV

 SCC (total)                   0 d,  0 h,  0 min,  0.075 sec
 SCC setup                      ...        0 min,  0.003 sec (  4.278%)
 Dispersion                     ...        0 min,  0.001 sec (  1.229%)
 integral evaluation            ...        0 min,  0.009 sec ( 11.916%)
 zeroth order Hamiltonian       ...        0 min,  0.000 sec (  0.016%)
 iterations                     ...        0 min,  0.045 sec ( 59.390%)
 molecular gradient             ...        0 min,  0.016 sec ( 21.707%)
 printout                       ...        0 min,  0.001 sec (  1.383%)

         :::::::::::::::::::::::::::::::::::::::::::::::::::::
         ::                     SUMMARY                     ::
         :::::::::::::::::::::::::::::::::::::::::::::::::::::
         :: total energy             -44.264690461165 Eh    ::
         :: total w/o Gsasa/hb       -44.247038711042 Eh    ::
         :: gradient norm              0.023821821806 Eh/a0 ::
         :: HOMO-LUMO gap              2.237132999009 eV    ::
         ::.................................................::
         :: SCC energy               -44.888069385075 Eh    ::
         :: -> isotropic ES            0.078665475896 Eh    ::
         :: -> anisotropic ES          0.000622725834 Eh    ::
         :: -> anisotropic XC          0.024592752165 Eh    ::
         :: -> dispersion             -0.025380111581 Eh    ::
         :: -> Gsolv                  -0.025316177598 Eh    ::
         ::    -> Gborn               -0.007664427475 Eh    ::
         ::    -> Gsasa               -0.022092579296 Eh    ::
         ::    -> Ghb                  0.000000000000 Eh    ::
         ::    -> Gshift               0.004440829173 Eh    ::
         :: repulsion energy           0.623194032779 Eh    ::
         :: add. restraining           0.000000000000 Eh    ::
         :::::::::::::::::::::::::::::::::::::::::::::::::::::

           -------------------------------------------------
          |                Property Printout                |
           -------------------------------------------------

    * Orbital Energies and Occupations

         #    Occupation            Energy/Eh            Energy/eV
      -------------------------------------------------------------
         1        2.0000           -0.7146899             -19.4477
       ...           ...                  ...                  ...
        28        2.0000           -0.4814802             -13.1017
        29        2.0000           -0.4669656             -12.7068
        30        2.0000           -0.4496539             -12.2357
        31        2.0000           -0.4482586             -12.1977
        32        2.0000           -0.4454134             -12.1203
        33        2.0000           -0.4379208             -11.9164
        34        2.0000           -0.4357105             -11.8563
        35        2.0000           -0.4309380             -11.7264
        36        2.0000           -0.4249553             -11.5636
        37        2.0000           -0.4184802             -11.3874
        38        2.0000           -0.4154988             -11.3063
        39        2.0000           -0.4046535             -11.0112
        40        2.0000           -0.3758667             -10.2279 (HOMO)
        41                         -0.2936535              -7.9907 (LUMO)
        42                         -0.2347333              -6.3874
        43                         -0.2028234              -5.5191
        44                         -0.0955368              -2.5997
        45                          0.0223285               0.6076
        46                          0.0772622               2.1024
        47                          0.0870074               2.3676
        48                          0.0917630               2.4970
        49                          0.1098545               2.9893
        50                          0.1175419               3.1985
        51                          0.1288241               3.5055
       ...                                ...                  ...
        75                          0.6490722              17.6622
      -------------------------------------------------------------
                  HL-Gap            0.0822131 Eh            2.2371 eV
             Fermi-level           -0.3347601 Eh           -9.1093 eV

     #   Z        covCN         q      C6AA      α(0)
     1   6 C      2.913    -0.025    28.618     8.772
     2   6 C      2.921    -0.022    28.562     8.764
     3   6 C      2.968    -0.008    28.212     8.712
     4   6 C      2.918    -0.013    28.348     8.731
     5   6 C      2.914    -0.025    28.625     8.773
     6   6 C      2.917    -0.017    28.440     8.745
     7   1 H      0.925     0.053     2.288     2.365
     8   1 H      0.926     0.058     2.228     2.334
     9   1 H      0.925     0.053     2.280     2.361
    10   7 N      2.629    -0.367    29.470     8.062
    11   1 H      0.860     0.159     1.341     1.814
    12   6 C      3.731     0.023    20.271     6.427
    13   1 H      0.923     0.007     2.941     2.682
    14   1 H      0.924     0.033     2.547     2.496
    15   1 H      0.860     0.144     1.439     1.879
    16   1 H      0.805     0.288     0.759     1.368
    17   1 H      0.804     0.313     0.684     1.299
    18   6 C      2.767     0.213    23.487     7.937
    19   1 H      0.923     0.033     2.539     2.492
    20   8 O      0.856    -0.414    21.957     6.282
    21   6 C      3.802    -0.063    21.717     6.635
    22   1 H      0.924     0.040     2.453     2.449
    23   1 H      0.924     0.034     2.525     2.485
    24   8 O      1.609    -0.615    25.538     6.820
    25   6 C      3.800    -0.053    21.529     6.606
    26   1 H      0.924     0.030     2.584     2.514
    27   1 H      0.924     0.031     2.573     2.509
    28   1 H      0.925     0.050     2.314     2.379
    29   1 H      0.925     0.053     2.285     2.364
    30   6 C      3.750    -0.102    22.511     6.767
    31   1 H      0.924     0.037     2.496     2.471
    32   1 H      0.924     0.036     2.502     2.474
    33   1 H      0.924     0.036     2.509     2.477

 Mol. C6AA /au·bohr⁶  :       9599.698658
 Mol. C8AA /au·bohr⁸  :     213689.862138
 Mol. α(0) /au        :        151.246350


Wiberg/Mayer (AO) data.
largest (>0.10) Wiberg bond orders for each atom
          total WBO             WBO to atom ...
     1  C   3.991        C    2 1.460    C    6 1.429    H   29 0.969    C    4 0.104
     2  C   3.989        C    1 1.460    C    3 1.366    H    7 0.966    C    5 0.105
     3  C   3.989        C    2 1.366    C    4 1.364    C   18 1.077
     4  C   3.988        C    5 1.462    C    3 1.364    H    8 0.965    C    1 0.104
     5  C   3.991        C    4 1.462    C    6 1.426    H   28 0.969    C    2 0.105
     6  C   3.989        C    1 1.429    C    5 1.426    H    9 0.970
     7  H   0.997        C    2 0.966
     8  H   0.997        C    4 0.965
     9  H   0.997        C    6 0.970
    10  N   3.039        C   12 1.018    H   15 0.965    H   11 0.951
    11  H   0.974        N   10 0.951
    12  C   3.984        N   10 1.018    C   21 1.006    H   14 0.975    H   13 0.970
    13  H   0.999        C   12 0.970
    14  H   0.999        C   12 0.975
    15  H   0.979        N   10 0.965
    16  H   0.917        O   24 0.916
    17  H   0.902        O   24 0.865
    18  C   3.908        O   20 1.774    C    3 1.077    H   19 0.936
    19  H   0.998        C   18 0.936
    20  O   2.034        C   18 1.774
    21  C   3.996        C   25 1.007    C   12 1.006    H   23 0.976    H   22 0.975
    22  H   0.998        C   21 0.975
    23  H   0.999        C   21 0.976
    24  O   1.822        H   16 0.916    H   17 0.865
    25  C   3.997        C   30 1.020    C   21 1.007    H   27 0.978    H   26 0.978
    26  H   0.999        C   25 0.978
    27  H   0.999        C   25 0.978
    28  H   0.997        C    5 0.969
    29  H   0.997        C    1 0.969
    30  C   3.996        C   25 1.020    H   33 0.988    H   32 0.988    H   31 0.987
    31  H   0.998        C   30 0.987
    32  H   0.999        C   30 0.988
    33  H   0.999        C   30 0.988

molecular dipole:
                 x           y           z       tot (Debye)
 q only:       -0.437       0.815      -0.940
   full:       -0.675       0.564      -0.828       3.070
molecular quadrupole (traceless):
                xx          xy          yy          xz          yz          zz
 q only:        4.498       2.341      -2.550      -5.386      -3.117      -1.948
  q+dip:        4.046       3.652      -2.083      -5.337      -5.738      -1.963
   full:        3.450       5.406      -0.813      -4.793      -4.344      -2.637

           -------------------------------------------------
          |                Property Printout                |
           -------------------------------------------------

    * Orbital Energies and Occupations

         #    Occupation            Energy/Eh            Energy/eV
      -------------------------------------------------------------
         1        2.0000           -0.7146899             -19.4477
       ...           ...                  ...                  ...
        28        2.0000           -0.4814802             -13.1017
        29        2.0000           -0.4669656             -12.7068
        30        2.0000           -0.4496539             -12.2357
        31        2.0000           -0.4482586             -12.1977
        32        2.0000           -0.4454134             -12.1203
        33        2.0000           -0.4379208             -11.9164
        34        2.0000           -0.4357105             -11.8563
        35        2.0000           -0.4309380             -11.7264
        36        2.0000           -0.4249553             -11.5636
        37        2.0000           -0.4184802             -11.3874
        38        2.0000           -0.4154988             -11.3063
        39        2.0000           -0.4046535             -11.0112
        40        2.0000           -0.3758667             -10.2279 (HOMO)
        41                         -0.2936535              -7.9907 (LUMO)
        42                         -0.2347333              -6.3874
        43                         -0.2028234              -5.5191
        44                         -0.0955368              -2.5997
        45                          0.0223285               0.6076
        46                          0.0772622               2.1024
        47                          0.0870074               2.3676
        48                          0.0917630               2.4970
        49                          0.1098545               2.9893
        50                          0.1175419               3.1985
        51                          0.1288241               3.5055
       ...                                ...                  ...
        75                          0.6490722              17.6622
      -------------------------------------------------------------
                  HL-Gap            0.0822131 Eh            2.2371 eV
             Fermi-level           -0.3347601 Eh           -9.1093 eV

     #   Z        covCN         q      C6AA      α(0)
     1   6 C      2.913    -0.025    28.618     8.772
     2   6 C      2.921    -0.022    28.562     8.764
     3   6 C      2.968    -0.008    28.212     8.712
     4   6 C      2.918    -0.013    28.348     8.731
     5   6 C      2.914    -0.025    28.625     8.773
     6   6 C      2.917    -0.017    28.440     8.745
     7   1 H      0.925     0.053     2.288     2.365
     8   1 H      0.926     0.058     2.228     2.334
     9   1 H      0.925     0.053     2.280     2.361
    10   7 N      2.629    -0.367    29.470     8.062
    11   1 H      0.860     0.159     1.341     1.814
    12   6 C      3.731     0.023    20.271     6.427
    13   1 H      0.923     0.007     2.941     2.682
    14   1 H      0.924     0.033     2.547     2.496
    15   1 H      0.860     0.144     1.439     1.879
    16   1 H      0.805     0.288     0.759     1.368
    17   1 H      0.804     0.313     0.684     1.299
    18   6 C      2.767     0.213    23.487     7.937
    19   1 H      0.923     0.033     2.539     2.492
    20   8 O      0.856    -0.414    21.957     6.282
    21   6 C      3.802    -0.063    21.717     6.635
    22   1 H      0.924     0.040     2.453     2.449
    23   1 H      0.924     0.034     2.525     2.485
    24   8 O      1.609    -0.615    25.538     6.820
    25   6 C      3.800    -0.053    21.529     6.606
    26   1 H      0.924     0.030     2.584     2.514
    27   1 H      0.924     0.031     2.573     2.509
    28   1 H      0.925     0.050     2.314     2.379
    29   1 H      0.925     0.053     2.285     2.364
    30   6 C      3.750    -0.102    22.511     6.767
    31   1 H      0.924     0.037     2.496     2.471
    32   1 H      0.924     0.036     2.502     2.474
    33   1 H      0.924     0.036     2.509     2.477

 Mol. C6AA /au·bohr⁶  :       9599.698658
 Mol. C8AA /au·bohr⁸  :     213689.862138
 Mol. α(0) /au        :        151.246350


Wiberg/Mayer (AO) data.
largest (>0.10) Wiberg bond orders for each atom
          total WBO             WBO to atom ...
     1  C   3.991        C    2 1.460    C    6 1.429    H   29 0.969    C    4 0.104
     2  C   3.989        C    1 1.460    C    3 1.366    H    7 0.966    C    5 0.105
     3  C   3.989        C    2 1.366    C    4 1.364    C   18 1.077
     4  C   3.988        C    5 1.462    C    3 1.364    H    8 0.965    C    1 0.104
     5  C   3.991        C    4 1.462    C    6 1.426    H   28 0.969    C    2 0.105
     6  C   3.989        C    1 1.429    C    5 1.426    H    9 0.970
     7  H   0.997        C    2 0.966
     8  H   0.997        C    4 0.965
     9  H   0.997        C    6 0.970
    10  N   3.039        C   12 1.018    H   15 0.965    H   11 0.951
    11  H   0.974        N   10 0.951
    12  C   3.984        N   10 1.018    C   21 1.006    H   14 0.975    H   13 0.970
    13  H   0.999        C   12 0.970
    14  H   0.999        C   12 0.975
    15  H   0.979        N   10 0.965
    16  H   0.917        O   24 0.916
    17  H   0.902        O   24 0.865
    18  C   3.908        O   20 1.774    C    3 1.077    H   19 0.936
    19  H   0.998        C   18 0.936
    20  O   2.034        C   18 1.774
    21  C   3.996        C   25 1.007    C   12 1.006    H   23 0.976    H   22 0.975
    22  H   0.998        C   21 0.975
    23  H   0.999        C   21 0.976
    24  O   1.822        H   16 0.916    H   17 0.865
    25  C   3.997        C   30 1.020    C   21 1.007    H   27 0.978    H   26 0.978
    26  H   0.999        C   25 0.978
    27  H   0.999        C   25 0.978
    28  H   0.997        C    5 0.969
    29  H   0.997        C    1 0.969
    30  C   3.996        C   25 1.020    H   33 0.988    H   32 0.988    H   31 0.987
    31  H   0.998        C   30 0.987
    32  H   0.999        C   30 0.988
    33  H   0.999        C   30 0.988

molecular dipole:
                 x           y           z       tot (Debye)
 q only:       -0.437       0.815      -0.940
   full:       -0.675       0.564      -0.828       3.070
molecular quadrupole (traceless):
                xx          xy          yy          xz          yz          zz
 q only:        4.498       2.341      -2.550      -5.386      -3.117      -1.948
  q+dip:        4.046       3.652      -2.083      -5.337      -5.738      -1.963
   full:        3.450       5.406      -0.813      -4.793      -4.344      -2.637


           -------------------------------------------------
          | TOTAL ENERGY              -44.264690461165 Eh   |
          | GRADIENT NORM               0.023821821806 Eh/α |
          | HOMO-LUMO GAP               2.237132999009 eV   |
           -------------------------------------------------

------------------------------------------------------------------------
 * finished run on 2020/10/23 at 10:51:40.579     
------------------------------------------------------------------------
 total:
 * wall-time:     0 d,  0 h,  0 min,  0.241 sec
 *  cpu-time:     0 d,  0 h,  0 min,  0.734 sec
 * ratio c/w:     3.050 speedup
 SCF:
 * wall-time:     0 d,  0 h,  0 min,  0.078 sec
 *  cpu-time:     0 d,  0 h,  0 min,  0.265 sec
 * ratio c/w:     3.414 speedup


-------------------------   --------------------
FINAL SINGLE POINT ENERGY       -44.264690461160
-------------------------   --------------------


----------------------------------------------------------------------------
                           ORCA NUMERICAL FREQUENCIES
                              (8-process run)
----------------------------------------------------------------------------

Number of atoms                ... 33
Central differences            ... used
Number of displacements        ... 198
Numerical increment            ... 5.000e-03 bohr
IR-spectrum generation         ... on
Raman-spectrum generation      ... off
Surface Crossing Hessian       ... off
List of participating nodes    ...  /tmp/slurm-scratch/freq.263/freq.hostnames

The output will be reduced. Please look at the following files:
SCF program output             ... >/tmp/slurm-scratch/freq.263/freq.lastscf
Integral program output        ... >/tmp/slurm-scratch/freq.263/freq.lastint
Gradient program output        ... >/tmp/slurm-scratch/freq.263/freq.lastgrad
Dipole moment program output   ... >/tmp/slurm-scratch/freq.263/freq.lastmom
AutoCI program output          ... >/tmp/slurm-scratch/freq.263/freq.lastautoci


         <<< Energy and Gradient at the input geometry >>>

        <<< Energy and Gradient at displaced geometries >>>
             <<<Displacing   2/coordinate 1 (+)>>>
             <<<Displacing   2/coordinate 3 (+)>>>
             <<<Displacing   3/coordinate 1 (+)>>>
             <<<Displacing   2/coordinate 2 (+)>>>
             <<<Displacing   1/coordinate 3 (+)>>>
             <<<Displacing   1/coordinate 2 (+)>>>
             <<<Displacing   3/coordinate 2 (+)>>>
             <<<Displacing   3/coordinate 1 (-)>>>
             <<<Displacing   2/coordinate 1 (-)>>>
             <<<Displacing   2/coordinate 3 (-)>>>
             <<<Displacing   1/coordinate 1 (+)>>>
             <<<Displacing   2/coordinate 2 (-)>>>
             <<<Displacing   1/coordinate 3 (-)>>>
             <<<Displacing   1/coordinate 2 (-)>>>
             <<<Displacing   3/coordinate 2 (-)>>>
             <<<Displacing   1/coordinate 1 (-)>>>
             <<<Displacing   4/coordinate 1 (+)>>>
             <<<Displacing   3/coordinate 3 (+)>>>
             <<<Displacing   5/coordinate 3 (+)>>>
             <<<Displacing   4/coordinate 1 (-)>>>
             <<<Displacing   5/coordinate 2 (+)>>>
             <<<Displacing   4/coordinate 2 (+)>>>
             <<<Displacing   3/coordinate 3 (-)>>>
             <<<Displacing   5/coordinate 3 (-)>>>
             <<<Displacing   4/coordinate 3 (+)>>>
             <<<Displacing   5/coordinate 2 (-)>>>
             <<<Displacing   6/coordinate 1 (+)>>>
             <<<Displacing   4/coordinate 2 (-)>>>
             <<<Displacing   5/coordinate 1 (+)>>>
             <<<Displacing   4/coordinate 3 (-)>>>
             <<<Displacing   6/coordinate 1 (-)>>>
             <<<Displacing   5/coordinate 1 (-)>>>
             <<<Displacing   7/coordinate 2 (+)>>>
             <<<Displacing   6/coordinate 2 (+)>>>
             <<<Displacing   6/coordinate 3 (+)>>>
             <<<Displacing   7/coordinate 2 (-)>>>
             <<<Displacing   8/coordinate 2 (+)>>>
             <<<Displacing   6/coordinate 2 (-)>>>
             <<<Displacing   7/coordinate 3 (+)>>>
             <<<Displacing   7/coordinate 1 (+)>>>
             <<<Displacing   6/coordinate 3 (-)>>>
             <<<Displacing   8/coordinate 2 (-)>>>
             <<<Displacing   7/coordinate 3 (-)>>>
             <<<Displacing   8/coordinate 1 (+)>>>
             <<<Displacing   7/coordinate 1 (-)>>>
             <<<Displacing   8/coordinate 3 (+)>>>
             <<<Displacing   8/coordinate 1 (-)>>>
             <<<Displacing   8/coordinate 3 (-)>>>
             <<<Displacing   9/coordinate 1 (+)>>>
             <<<Displacing   9/coordinate 1 (-)>>>
             <<<Displacing  10/coordinate 1 (+)>>>
             <<<Displacing   9/coordinate 3 (+)>>>
             <<<Displacing  10/coordinate 1 (-)>>>
             <<<Displacing   9/coordinate 2 (+)>>>
             <<<Displacing  10/coordinate 2 (+)>>>
             <<<Displacing  10/coordinate 3 (+)>>>
             <<<Displacing   9/coordinate 3 (-)>>>
             <<<Displacing   9/coordinate 2 (-)>>>
             <<<Displacing  10/coordinate 2 (-)>>>
             <<<Displacing  11/coordinate 1 (+)>>>
             <<<Displacing  11/coordinate 2 (+)>>>
             <<<Displacing  10/coordinate 3 (-)>>>
             <<<Displacing  11/coordinate 2 (-)>>>
             <<<Displacing  11/coordinate 1 (-)>>>
             <<<Displacing  11/coordinate 3 (+)>>>
             <<<Displacing  11/coordinate 3 (-)>>>
             <<<Displacing  12/coordinate 2 (+)>>>
             <<<Displacing  12/coordinate 1 (+)>>>
             <<<Displacing  12/coordinate 2 (-)>>>
             <<<Displacing  13/coordinate 2 (+)>>>
             <<<Displacing  13/coordinate 1 (+)>>>
             <<<Displacing  12/coordinate 1 (-)>>>
             <<<Displacing  13/coordinate 2 (-)>>>
             <<<Displacing  13/coordinate 1 (-)>>>
             <<<Displacing  13/coordinate 3 (+)>>>
             <<<Displacing  12/coordinate 3 (+)>>>
             <<<Displacing  13/coordinate 3 (-)>>>
             <<<Displacing  12/coordinate 3 (-)>>>
             <<<Displacing  14/coordinate 1 (+)>>>
             <<<Displacing  14/coordinate 1 (-)>>>
             <<<Displacing  14/coordinate 3 (+)>>>
             <<<Displacing  14/coordinate 3 (-)>>>
             <<<Displacing  14/coordinate 2 (+)>>>
             <<<Displacing  14/coordinate 2 (-)>>>
             <<<Displacing  15/coordinate 3 (+)>>>
             <<<Displacing  15/coordinate 2 (+)>>>
             <<<Displacing  15/coordinate 3 (-)>>>
             <<<Displacing  16/coordinate 1 (+)>>>
             <<<Displacing  15/coordinate 1 (+)>>>
             <<<Displacing  16/coordinate 2 (+)>>>
             <<<Displacing  15/coordinate 2 (-)>>>
             <<<Displacing  15/coordinate 1 (-)>>>
             <<<Displacing  16/coordinate 1 (-)>>>
             <<<Displacing  16/coordinate 2 (-)>>>
             <<<Displacing  16/coordinate 3 (+)>>>
             <<<Displacing  16/coordinate 3 (-)>>>
             <<<Displacing  17/coordinate 2 (+)>>>
             <<<Displacing  17/coordinate 1 (+)>>>
             <<<Displacing  17/coordinate 2 (-)>>>
             <<<Displacing  17/coordinate 1 (-)>>>
             <<<Displacing  17/coordinate 3 (+)>>>
             <<<Displacing  17/coordinate 3 (-)>>>
             <<<Displacing  18/coordinate 3 (+)>>>
             <<<Displacing  18/coordinate 2 (+)>>>
             <<<Displacing  18/coordinate 1 (+)>>>
             <<<Displacing  18/coordinate 3 (-)>>>
             <<<Displacing  19/coordinate 1 (+)>>>
             <<<Displacing  18/coordinate 1 (-)>>>
             <<<Displacing  18/coordinate 2 (-)>>>
             <<<Displacing  19/coordinate 1 (-)>>>
             <<<Displacing  19/coordinate 2 (+)>>>
             <<<Displacing  19/coordinate 2 (-)>>>
             <<<Displacing  19/coordinate 3 (+)>>>
             <<<Displacing  20/coordinate 1 (+)>>>
             <<<Displacing  20/coordinate 2 (+)>>>
             <<<Displacing  19/coordinate 3 (-)>>>
             <<<Displacing  20/coordinate 1 (-)>>>
             <<<Displacing  20/coordinate 2 (-)>>>
             <<<Displacing  22/coordinate 1 (+)>>>
             <<<Displacing  20/coordinate 3 (+)>>>
             <<<Displacing  22/coordinate 1 (-)>>>
             <<<Displacing  20/coordinate 3 (-)>>>
             <<<Displacing  21/coordinate 1 (+)>>>
             <<<Displacing  21/coordinate 3 (+)>>>
             <<<Displacing  21/coordinate 1 (-)>>>
             <<<Displacing  21/coordinate 3 (-)>>>
             <<<Displacing  21/coordinate 2 (+)>>>
             <<<Displacing  21/coordinate 2 (-)>>>
             <<<Displacing  22/coordinate 2 (+)>>>
             <<<Displacing  22/coordinate 3 (+)>>>
             <<<Displacing  23/coordinate 1 (+)>>>
             <<<Displacing  22/coordinate 2 (-)>>>
             <<<Displacing  23/coordinate 2 (+)>>>
             <<<Displacing  23/coordinate 1 (-)>>>
             <<<Displacing  22/coordinate 3 (-)>>>
             <<<Displacing  23/coordinate 2 (-)>>>
             <<<Displacing  24/coordinate 1 (+)>>>
             <<<Displacing  23/coordinate 3 (+)>>>
             <<<Displacing  24/coordinate 1 (-)>>>
             <<<Displacing  24/coordinate 2 (+)>>>
             <<<Displacing  23/coordinate 3 (-)>>>
             <<<Displacing  24/coordinate 2 (-)>>>
             <<<Displacing  24/coordinate 3 (+)>>>
             <<<Displacing  24/coordinate 3 (-)>>>
             <<<Displacing  26/coordinate 3 (+)>>>
             <<<Displacing  25/coordinate 2 (+)>>>
             <<<Displacing  25/coordinate 1 (+)>>>
             <<<Displacing  26/coordinate 2 (+)>>>
             <<<Displacing  25/coordinate 3 (+)>>>
             <<<Displacing  26/coordinate 3 (-)>>>
             <<<Displacing  26/coordinate 1 (+)>>>
             <<<Displacing  25/coordinate 1 (-)>>>
             <<<Displacing  25/coordinate 2 (-)>>>
             <<<Displacing  26/coordinate 2 (-)>>>
             <<<Displacing  25/coordinate 3 (-)>>>
             <<<Displacing  26/coordinate 1 (-)>>>
             <<<Displacing  27/coordinate 1 (+)>>>
             <<<Displacing  27/coordinate 1 (-)>>>
             <<<Displacing  27/coordinate 2 (+)>>>
             <<<Displacing  27/coordinate 2 (-)>>>
             <<<Displacing  28/coordinate 1 (+)>>>
             <<<Displacing  28/coordinate 3 (+)>>>
             <<<Displacing  28/coordinate 1 (-)>>>
             <<<Displacing  29/coordinate 1 (+)>>>
             <<<Displacing  28/coordinate 3 (-)>>>
             <<<Displacing  27/coordinate 3 (+)>>>
             <<<Displacing  29/coordinate 1 (-)>>>
             <<<Displacing  28/coordinate 2 (+)>>>
             <<<Displacing  29/coordinate 3 (+)>>>
             <<<Displacing  29/coordinate 2 (+)>>>
             <<<Displacing  27/coordinate 3 (-)>>>
             <<<Displacing  28/coordinate 2 (-)>>>
             <<<Displacing  29/coordinate 2 (-)>>>
             <<<Displacing  29/coordinate 3 (-)>>>
             <<<Displacing  30/coordinate 1 (+)>>>
             <<<Displacing  30/coordinate 1 (-)>>>
             <<<Displacing  30/coordinate 2 (+)>>>
             <<<Displacing  30/coordinate 3 (+)>>>
             <<<Displacing  30/coordinate 2 (-)>>>
             <<<Displacing  30/coordinate 3 (-)>>>
             <<<Displacing  31/coordinate 1 (+)>>>
             <<<Displacing  31/coordinate 1 (-)>>>
             <<<Displacing  31/coordinate 3 (+)>>>
             <<<Displacing  31/coordinate 2 (+)>>>
             <<<Displacing  31/coordinate 3 (-)>>>
             <<<Displacing  31/coordinate 2 (-)>>>
             <<<Displacing  32/coordinate 2 (+)>>>
             <<<Displacing  32/coordinate 2 (-)>>>
             <<<Displacing  32/coordinate 1 (+)>>>
             <<<Displacing  32/coordinate 1 (-)>>>
             <<<Displacing  32/coordinate 3 (+)>>>
             <<<Displacing  32/coordinate 3 (-)>>>
             <<<Displacing  33/coordinate 1 (+)>>>
             <<<Displacing  33/coordinate 2 (+)>>>
             <<<Displacing  33/coordinate 1 (-)>>>
             <<<Displacing  33/coordinate 2 (-)>>>
             <<<Displacing  33/coordinate 3 (+)>>>
             <<<Displacing  33/coordinate 3 (-)>>>

-----------------------
VIBRATIONAL FREQUENCIES
-----------------------

Scaling factor for frequencies =  1.000000000 (already applied!)

   0:         0.00 cm**-1
   1:         0.00 cm**-1
   2:         0.00 cm**-1
   3:         0.00 cm**-1
   4:         0.00 cm**-1
   5:         0.00 cm**-1
   6:       -80.43 cm**-1 ***imaginary mode***
   7:        36.99 cm**-1
   8:        42.06 cm**-1
   9:        49.65 cm**-1
  10:        53.08 cm**-1
  11:        56.57 cm**-1
  12:        67.96 cm**-1
  13:        87.76 cm**-1
  14:       109.29 cm**-1
  15:       123.63 cm**-1
  16:       142.23 cm**-1
  17:       178.49 cm**-1
  18:       202.12 cm**-1
  19:       228.44 cm**-1
  20:       254.73 cm**-1
  21:       259.59 cm**-1
  22:       265.82 cm**-1
  23:       332.00 cm**-1
  24:       376.07 cm**-1
  25:       391.07 cm**-1
  26:       395.06 cm**-1
  27:       426.13 cm**-1
  28:       435.38 cm**-1
  29:       444.23 cm**-1
  30:       586.08 cm**-1
  31:       587.50 cm**-1
  32:       628.51 cm**-1
  33:       658.97 cm**-1
  34:       742.62 cm**-1
  35:       769.94 cm**-1
  36:       822.80 cm**-1
  37:       824.85 cm**-1
  38:       874.31 cm**-1
  39:       893.31 cm**-1
  40:       912.25 cm**-1
  41:       918.91 cm**-1
  42:       932.12 cm**-1
  43:       933.84 cm**-1
  44:       936.74 cm**-1
  45:       970.51 cm**-1
  46:       984.12 cm**-1
  47:      1006.34 cm**-1
  48:      1065.88 cm**-1
  49:      1066.60 cm**-1
  50:      1099.67 cm**-1
  51:      1114.75 cm**-1
  52:      1122.41 cm**-1
  53:      1145.37 cm**-1
  54:      1176.71 cm**-1
  55:      1179.77 cm**-1
  56:      1199.61 cm**-1
  57:      1208.17 cm**-1
  58:      1231.50 cm**-1
  59:      1269.64 cm**-1
  60:      1275.46 cm**-1
  61:      1279.14 cm**-1
  62:      1290.77 cm**-1
  63:      1303.68 cm**-1
  64:      1353.51 cm**-1
  65:      1356.28 cm**-1
  66:      1378.97 cm**-1
  67:      1425.94 cm**-1
  68:      1428.51 cm**-1
  69:      1448.36 cm**-1
  70:      1497.87 cm**-1
  71:      1504.05 cm**-1
  72:      1506.36 cm**-1
  73:      1507.06 cm**-1
  74:      1512.04 cm**-1
  75:      1545.12 cm**-1
  76:      1550.33 cm**-1
  77:      1561.39 cm**-1
  78:      1568.96 cm**-1
  79:      1644.12 cm**-1
  80:      2841.60 cm**-1
  81:      2859.58 cm**-1
  82:      2929.88 cm**-1
  83:      2943.49 cm**-1
  84:      2962.17 cm**-1
  85:      2965.05 cm**-1
  86:      2969.92 cm**-1
  87:      2978.81 cm**-1
  88:      2984.30 cm**-1
  89:      2996.83 cm**-1
  90:      3054.25 cm**-1
  91:      3060.01 cm**-1
  92:      3066.91 cm**-1
  93:      3074.67 cm**-1
  94:      3084.53 cm**-1
  95:      3362.45 cm**-1
  96:      3378.20 cm**-1
  97:      3411.30 cm**-1
  98:      3582.49 cm**-1


------------
NORMAL MODES
------------

These modes are the cartesian displacements weighted by the diagonal matrix
M(i,i)=1/sqrt(m[i]) where m[i] is the mass of the displaced atom
Thus, these vectors are normalized but *not* orthogonal

                  0          1          2          3          4          5    
      0       0.000000   0.000000   0.000000   0.000000   0.000000   0.000000
      1       0.000000   0.000000   0.000000   0.000000   0.000000   0.000000
      2       0.000000   0.000000   0.000000   0.000000   0.000000   0.000000
      3       0.000000   0.000000   0.000000   0.000000   0.000000   0.000000
      4       0.000000   0.000000   0.000000   0.000000   0.000000   0.000000
      5       0.000000   0.000000   0.000000   0.000000   0.000000   0.000000
      6       0.000000   0.000000   0.000000   0.000000   0.000000   0.000000
      7       0.000000   0.000000   0.000000   0.000000   0.000000   0.000000
      8       0.000000   0.000000   0.000000   0.000000   0.000000   0.000000
      9       0.000000   0.000000   0.000000   0.000000   0.000000   0.000000
     10       0.000000   0.000000   0.000000   0.000000   0.000000   0.000000
     11       0.000000   0.000000   0.000000   0.000000   0.000000   0.000000
     12       0.000000   0.000000   0.000000   0.000000   0.000000   0.000000
     13       0.000000   0.000000   0.000000   0.000000   0.000000   0.000000
     14       0.000000   0.000000   0.000000   0.000000   0.000000   0.000000
     15       0.000000   0.000000   0.000000   0.000000   0.000000   0.000000
     16       0.000000   0.000000   0.000000   0.000000   0.000000   0.000000
     17       0.000000   0.000000   0.000000   0.000000   0.000000   0.000000
     18       0.000000   0.000000   0.000000   0.000000   0.000000   0.000000
     19       0.000000   0.000000   0.000000   0.000000   0.000000   0.000000
     20       0.000000   0.000000   0.000000   0.000000   0.000000   0.000000
     21       0.000000   0.000000   0.000000   0.000000   0.000000   0.000000
     22       0.000000   0.000000   0.000000   0.000000   0.000000   0.000000
     23       0.000000   0.000000   0.000000   0.000000   0.000000   0.000000
     24       0.000000   0.000000   0.000000   0.000000   0.000000   0.000000
     25       0.000000   0.000000   0.000000   0.000000   0.000000   0.000000
     26       0.000000   0.000000   0.000000   0.000000   0.000000   0.000000
     27       0.000000   0.000000   0.000000   0.000000   0.000000   0.000000
     28       0.000000   0.000000   0.000000   0.000000   0.000000   0.000000
     29       0.000000   0.000000   0.000000   0.000000   0.000000   0.000000
     30       0.000000   0.000000   0.000000   0.000000   0.000000   0.000000
     31       0.000000   0.000000   0.000000   0.000000   0.000000   0.000000
     32       0.000000   0.000000   0.000000   0.000000   0.000000   0.000000
     33       0.000000   0.000000   0.000000   0.000000   0.000000   0.000000
     34       0.000000   0.000000   0.000000   0.000000   0.000000   0.000000
     35       0.000000   0.000000   0.000000   0.000000   0.000000   0.000000
     36       0.000000   0.000000   0.000000   0.000000   0.000000   0.000000
     37       0.000000   0.000000   0.000000   0.000000   0.000000   0.000000
     38       0.000000   0.000000   0.000000   0.000000   0.000000   0.000000
     39       0.000000   0.000000   0.000000   0.000000   0.000000   0.000000
     40       0.000000   0.000000   0.000000   0.000000   0.000000   0.000000
     41       0.000000   0.000000   0.000000   0.000000   0.000000   0.000000
     42       0.000000   0.000000   0.000000   0.000000   0.000000   0.000000
     43       0.000000   0.000000   0.000000   0.000000   0.000000   0.000000
     44       0.000000   0.000000   0.000000   0.000000   0.000000   0.000000
     45       0.000000   0.000000   0.000000   0.000000   0.000000   0.000000
     46       0.000000   0.000000   0.000000   0.000000   0.000000   0.000000
     47       0.000000   0.000000   0.000000   0.000000   0.000000   0.000000
     48       0.000000   0.000000   0.000000   0.000000   0.000000   0.000000
     49       0.000000   0.000000   0.000000   0.000000   0.000000   0.000000
     50       0.000000   0.000000   0.000000   0.000000   0.000000   0.000000
     51       0.000000   0.000000   0.000000   0.000000   0.000000   0.000000
     52       0.000000   0.000000   0.000000   0.000000   0.000000   0.000000
     53       0.000000   0.000000   0.000000   0.000000   0.000000   0.000000
     54       0.000000   0.000000   0.000000   0.000000   0.000000   0.000000
     55       0.000000   0.000000   0.000000   0.000000   0.000000   0.000000
     56       0.000000   0.000000   0.000000   0.000000   0.000000   0.000000
     57       0.000000   0.000000   0.000000   0.000000   0.000000   0.000000
     58       0.000000   0.000000   0.000000   0.000000   0.000000   0.000000
     59       0.000000   0.000000   0.000000   0.000000   0.000000   0.000000
     60       0.000000   0.000000   0.000000   0.000000   0.000000   0.000000
     61       0.000000   0.000000   0.000000   0.000000   0.000000   0.000000
     62       0.000000   0.000000   0.000000   0.000000   0.000000   0.000000
     63       0.000000   0.000000   0.000000   0.000000   0.000000   0.000000
     64       0.000000   0.000000   0.000000   0.000000   0.000000   0.000000
     65       0.000000   0.000000   0.000000   0.000000   0.000000   0.000000
     66       0.000000   0.000000   0.000000   0.000000   0.000000   0.000000
     67       0.000000   0.000000   0.000000   0.000000   0.000000   0.000000
     68       0.000000   0.000000   0.000000   0.000000   0.000000   0.000000
     69       0.000000   0.000000   0.000000   0.000000   0.000000   0.000000
     70       0.000000   0.000000   0.000000   0.000000   0.000000   0.000000
     71       0.000000   0.000000   0.000000   0.000000   0.000000   0.000000
     72       0.000000   0.000000   0.000000   0.000000   0.000000   0.000000
     73       0.000000   0.000000   0.000000   0.000000   0.000000   0.000000
     74       0.000000   0.000000   0.000000   0.000000   0.000000   0.000000
     75       0.000000   0.000000   0.000000   0.000000   0.000000   0.000000
     76       0.000000   0.000000   0.000000   0.000000   0.000000   0.000000
     77       0.000000   0.000000   0.000000   0.000000   0.000000   0.000000
     78       0.000000   0.000000   0.000000   0.000000   0.000000   0.000000
     79       0.000000   0.000000   0.000000   0.000000   0.000000   0.000000
     80       0.000000   0.000000   0.000000   0.000000   0.000000   0.000000
     81       0.000000   0.000000   0.000000   0.000000   0.000000   0.000000
     82       0.000000   0.000000   0.000000   0.000000   0.000000   0.000000
     83       0.000000   0.000000   0.000000   0.000000   0.000000   0.000000
     84       0.000000   0.000000   0.000000   0.000000   0.000000   0.000000
     85       0.000000   0.000000   0.000000   0.000000   0.000000   0.000000
     86       0.000000   0.000000   0.000000   0.000000   0.000000   0.000000
     87       0.000000   0.000000   0.000000   0.000000   0.000000   0.000000
     88       0.000000   0.000000   0.000000   0.000000   0.000000   0.000000
     89       0.000000   0.000000   0.000000   0.000000   0.000000   0.000000
     90       0.000000   0.000000   0.000000   0.000000   0.000000   0.000000
     91       0.000000   0.000000   0.000000   0.000000   0.000000   0.000000
     92       0.000000   0.000000   0.000000   0.000000   0.000000   0.000000
     93       0.000000   0.000000   0.000000   0.000000   0.000000   0.000000
     94       0.000000   0.000000   0.000000   0.000000   0.000000   0.000000
     95       0.000000   0.000000   0.000000   0.000000   0.000000   0.000000
     96       0.000000   0.000000   0.000000   0.000000   0.000000   0.000000
     97       0.000000   0.000000   0.000000   0.000000   0.000000   0.000000
     98       0.000000   0.000000   0.000000   0.000000   0.000000   0.000000
                  6          7          8          9         10         11    
      0       0.021646   0.141289   0.044817  -0.073149  -0.025486  -0.015578
      1       0.009425  -0.029793   0.003673  -0.094738  -0.147471  -0.000858
      2      -0.000299  -0.087491  -0.021221   0.001984  -0.013585   0.041591
      3       0.057260   0.089937  -0.006910  -0.011715  -0.057898   0.023727
      4       0.051534  -0.004924   0.029522  -0.033230  -0.116117   0.045528
      5       0.024914  -0.104029  -0.038067   0.043675  -0.020814   0.069777
      6       0.083796   0.053602  -0.056908   0.040010  -0.042894   0.011396
      7       0.077024   0.014449   0.026966   0.021984  -0.032191   0.013563
      8       0.032152  -0.057789  -0.002620   0.059114   0.050305   0.047440
      9       0.063966   0.070051  -0.053703   0.026668   0.009919  -0.041100
     10       0.046462   0.007582  -0.002457   0.011499   0.027184  -0.066476
     11       0.007948   0.004545   0.050649   0.030697   0.132195  -0.003321
     12       0.027085   0.121547  -0.001891  -0.035783   0.041728  -0.080389
     13       0.006206  -0.018046  -0.028323  -0.050756  -0.005296  -0.112343
     14      -0.016713   0.020552   0.066992  -0.011382   0.138449  -0.031435
     15       0.007842   0.157425   0.047401  -0.085501   0.023703  -0.068374
     16      -0.009278  -0.036170  -0.025497  -0.103598  -0.093708  -0.080861
     17      -0.018362  -0.025170   0.031390  -0.025344   0.065254  -0.009452
     18       0.067441   0.076679  -0.009686  -0.002626  -0.095543   0.062562
     19       0.062745  -0.000980   0.051735  -0.028471  -0.157911   0.104476
     20       0.040172  -0.151114  -0.078342   0.065121  -0.081133   0.108081
     21       0.076941   0.043820  -0.093299   0.066268   0.031132  -0.050060
     22       0.060456   0.023872  -0.005535   0.054543   0.100338  -0.091146
     23       0.011939   0.040294   0.077616   0.042691   0.186527  -0.020786
     24      -0.017947   0.197525   0.087639  -0.133497   0.048369  -0.099663
     25      -0.037991  -0.054986  -0.046045  -0.151292  -0.118654  -0.118274
     26      -0.036555  -0.011954   0.044250  -0.057922   0.070167  -0.032194
     27      -0.216899  -0.070666  -0.007223  -0.007794  -0.032901   0.058392
     28      -0.221012   0.139412  -0.024202   0.046245   0.014243   0.116218
     29      -0.140122   0.036637  -0.179848  -0.048102  -0.047566  -0.043388
     30      -0.102238  -0.075477   0.006198  -0.015972  -0.016496   0.093658
     31      -0.081597   0.136680  -0.005180   0.037532   0.036291   0.159628
     32      -0.031930  -0.027971  -0.213270  -0.072688  -0.062205  -0.038356
     33      -0.050419  -0.041043   0.037099  -0.066574   0.019090   0.122578
     34      -0.044449   0.053602  -0.070172  -0.051256   0.039559   0.124704
     35       0.022099   0.036552  -0.161224  -0.115689  -0.004807   0.004066
     36       0.002430  -0.005184  -0.005946  -0.192874   0.071458   0.278041
     37      -0.064636   0.040454  -0.054606  -0.006161   0.020745   0.068251
     38       0.281476  -0.014213  -0.211547  -0.299452   0.071371   0.129266
     39       0.048275  -0.027602   0.083703  -0.076523   0.041569   0.124208
     40       0.165920   0.027331  -0.154178  -0.274546   0.125358   0.316610
     41      -0.075774   0.030365  -0.184318  -0.080900  -0.031420  -0.020720
     42      -0.275490  -0.093590  -0.029507   0.029306  -0.063477   0.032900
     43      -0.596891   0.202244  -0.015418   0.139174  -0.025673   0.031056
     44      -0.047223   0.041249  -0.167023  -0.084948  -0.022370  -0.014883
     45      -0.032199  -0.141130  -0.218965  -0.042211   0.246785  -0.139306
     46       0.009357   0.054575   0.055239   0.077560   0.043500  -0.005683
     47      -0.021563  -0.082035   0.136734  -0.051712  -0.386831  -0.064177
     48       0.011302  -0.083841  -0.165631   0.027767   0.056300  -0.042420
     49       0.005241   0.051004   0.038445   0.072392   0.104801  -0.004434
     50      -0.003043  -0.051720   0.094484  -0.009960  -0.205525   0.020252
     51       0.117250   0.003619  -0.115420   0.095242  -0.089394   0.041074
     52       0.109293   0.049586   0.053278   0.068486  -0.013548   0.046039
     53       0.045274  -0.070523  -0.024398   0.092487   0.032673   0.066273
     54       0.114484   0.008570  -0.122706   0.107449  -0.087603   0.073761
     55       0.107168   0.071742   0.062742   0.080745   0.001092   0.090516
     56       0.049512  -0.109328  -0.077258   0.115422   0.000977   0.094314
     57       0.076875  -0.029252  -0.163420   0.111189  -0.130122   0.028409
     58       0.055287   0.061554   0.062384   0.069941  -0.023063   0.019673
     59       0.017101  -0.040716   0.010171   0.082872   0.049265   0.052117
     60      -0.086642  -0.074443   0.083040   0.044274  -0.023738  -0.016459
     61      -0.083007   0.004931  -0.026406   0.072535  -0.010404  -0.039077
     62      -0.025046   0.112499  -0.036529   0.018133  -0.029940  -0.080103
     63      -0.126969  -0.111166   0.126306   0.164781  -0.071473  -0.165696
     64      -0.068086   0.018819  -0.042789   0.026987   0.007614   0.017157
     65      -0.170100   0.200447  -0.029575   0.246222  -0.157216  -0.247532
     66      -0.128554  -0.066028   0.009530   0.081688  -0.073773  -0.044856
     67      -0.213312   0.056928   0.032036   0.326135  -0.129728  -0.259471
     68       0.019731   0.100306   0.007559  -0.037496   0.018660  -0.034553
     69      -0.024914  -0.121406  -0.150067  -0.007793   0.160586  -0.109530
     70       0.012910   0.058922   0.020803   0.083311   0.160265   0.018327
     71      -0.015807  -0.070647   0.132619  -0.033432  -0.315919  -0.031502
     72      -0.011206  -0.074349   0.171367  -0.051902   0.063131   0.080289
     73       0.025033  -0.132594  -0.033719  -0.080810   0.079443   0.013607
     74       0.046189   0.087598   0.022638  -0.076987   0.046441  -0.003622
     75      -0.000934  -0.022654   0.134931  -0.129675   0.092189   0.205442
     76       0.021544  -0.150897  -0.021039  -0.054313   0.069667  -0.029654
     77       0.161300   0.006477   0.021083  -0.280757   0.165447   0.146443
     78       0.038505  -0.089425   0.243626  -0.099764   0.116848   0.114918
     79       0.111941  -0.168034  -0.080453  -0.283573   0.179730   0.201037
     80       0.000688   0.102569  -0.021346  -0.017294  -0.003929  -0.052092
     81       0.012840   0.134198   0.000201  -0.045954   0.081123  -0.120744
     82      -0.011587  -0.023287  -0.050812  -0.057856   0.038452  -0.173554
     83      -0.035756   0.068954   0.106834  -0.033523   0.200950  -0.071107
     84       0.005499   0.168727   0.082948  -0.111471  -0.037603  -0.006464
     85      -0.009289  -0.043601   0.005573  -0.136529  -0.212490   0.022645
     86      -0.006085  -0.122219  -0.048520  -0.010029  -0.068695   0.057896
     87      -0.016620  -0.123235   0.210775   0.013648   0.041878  -0.029536
     88       0.019403  -0.198076   0.005890  -0.006355   0.054166  -0.119283
     89       0.026666   0.146635   0.136304   0.012539   0.032743  -0.057062
     90       0.010621  -0.111927   0.262651  -0.027070   0.083586   0.020214
     91       0.065415  -0.277490  -0.002905  -0.081937   0.098921  -0.101211
     92       0.053397   0.138585   0.168317  -0.028486   0.068469  -0.021287
     93      -0.024739  -0.174345   0.247527   0.085033   0.016506  -0.147455
     94       0.022849  -0.182425  -0.006000  -0.031091   0.063368  -0.080097
     95      -0.041579   0.203270   0.147320   0.155338  -0.048930  -0.164836
     96      -0.039440  -0.119355   0.150847   0.031101   0.009916  -0.042095
     97      -0.034762  -0.182330   0.056410   0.149787  -0.018819  -0.275237
     98       0.052307   0.141298   0.174825  -0.024170   0.068194  -0.024114
                 12         13         14         15         16         17    
      0      -0.121684   0.057810   0.014056   0.011173  -0.014520  -0.043793
      1      -0.128602   0.060634   0.012487   0.017593   0.018752  -0.029044
      2      -0.049282   0.006440   0.007606   0.014551   0.067325   0.004490
      3      -0.099076   0.029910   0.009965   0.004101  -0.038692   0.110008
      4      -0.152387   0.071731  -0.016222  -0.008751  -0.147395   0.069864
      5      -0.045050  -0.002708  -0.000785   0.005173   0.014220   0.093853
      6       0.019129  -0.025355   0.009496  -0.001098  -0.015472   0.164340
      7      -0.006888   0.023033  -0.029136  -0.026096  -0.191188   0.077622
      8       0.007853  -0.008806  -0.013783  -0.007957  -0.045221   0.063948
      9       0.113418  -0.053774   0.010633  -0.002513   0.000066   0.164030
     10       0.165675  -0.039608  -0.019843  -0.023947  -0.133614   0.113275
     11       0.059827  -0.008537  -0.023749  -0.016264  -0.084973   0.000112
     12       0.094333  -0.030401   0.012797   0.003048   0.021581   0.024674
     13       0.193746  -0.058288   0.004329  -0.000282   0.029834   0.036471
     14       0.058376  -0.002465  -0.017513  -0.008339  -0.037717  -0.084064
     15      -0.023550   0.025909   0.016298   0.011782   0.030673  -0.104784
     16       0.047289  -0.006832   0.023390   0.023226   0.127169  -0.085569
     17       0.004275   0.005067  -0.001008   0.008254   0.051167  -0.105976
     18      -0.168888   0.051325   0.009684   0.004923  -0.062030   0.139050
     19      -0.282649   0.121626  -0.021190  -0.010220  -0.215786   0.086616
     20      -0.081629  -0.004630   0.005733   0.010189   0.036220   0.162460
     21       0.199476  -0.091767   0.011798  -0.006425   0.008502   0.249085
     22       0.280583  -0.073680  -0.031318  -0.039453  -0.194116   0.162386
     23       0.108388  -0.013839  -0.035975  -0.028646  -0.151072  -0.015158
     24      -0.038524   0.044786   0.019942   0.018372   0.067641  -0.241158
     25       0.070238  -0.018727   0.046121   0.045067   0.276625  -0.207214
     26       0.003124   0.010576   0.006038   0.016384   0.103197  -0.195001
     27       0.048898   0.098027   0.067776  -0.002899  -0.062488   0.007102
     28       0.003829  -0.170960   0.074027  -0.026319  -0.041510   0.026357
     29       0.014517   0.149042   0.105494   0.013410  -0.097034   0.031726
     30       0.042185   0.106522   0.061672  -0.046038  -0.012641   0.020841
     31      -0.006243  -0.163551   0.065080  -0.078714   0.017683   0.043887
     32       0.019477   0.186809   0.109682  -0.021081  -0.042722   0.016648
     33       0.053081   0.069207  -0.089962  -0.089566   0.050776   0.002300
     34       0.025497  -0.121115  -0.098415  -0.102151   0.099194  -0.042935
     35       0.022518   0.139108  -0.049210  -0.068257   0.018134   0.012088
     36       0.075213   0.015033  -0.009464  -0.231908   0.089096   0.009615
     37       0.017386  -0.101861  -0.127207  -0.050511   0.085042  -0.045065
     38       0.057177   0.146505  -0.201747  -0.250777   0.201306  -0.045365
     39       0.048849   0.053908  -0.224463  -0.111237   0.122643  -0.003546
     40       0.068174  -0.136902  -0.130576  -0.327971   0.242863  -0.082759
     41       0.020367   0.151750   0.052563  -0.024158  -0.051871   0.020766
     42       0.042546   0.117038   0.180566   0.035520  -0.115169   0.016958
     43      -0.003048  -0.199469   0.225042   0.130125  -0.235351   0.050065
     44       0.019548   0.142197   0.012378  -0.033674  -0.034473   0.021873
     45      -0.330415  -0.187864  -0.046062  -0.036225  -0.088144  -0.089357
     46      -0.070502   0.083207   0.080948   0.067503   0.280011   0.310724
     47      -0.013688  -0.211746  -0.003089   0.001552   0.066010   0.159981
     48      -0.080092  -0.095149   0.025641  -0.009563   0.005729  -0.125065
     49      -0.109515   0.089180   0.074386   0.059012   0.269238   0.281601
     50      -0.013363  -0.101741   0.023454  -0.013855   0.087846  -0.024763
     51       0.045952  -0.040064   0.023105   0.006769   0.013268   0.036115
     52      -0.041347   0.046424  -0.024917  -0.023471  -0.151497  -0.049917
     53       0.012746  -0.009509  -0.002883  -0.002801  -0.030077  -0.020094
     54       0.017890  -0.048579   0.004112  -0.005983  -0.021985   0.121224
     55      -0.093588   0.041732  -0.056789  -0.043368  -0.197015   0.086070
     56       0.024945  -0.033458  -0.007025  -0.008460  -0.071670  -0.006372
     57       0.096325  -0.032475   0.080313   0.035760   0.072244  -0.223598
     58      -0.021586   0.083031   0.039997   0.013917  -0.023577  -0.324831
     59       0.000916   0.017142   0.021318   0.012326   0.049451  -0.100048
     60       0.032142   0.120542  -0.165658   0.034854   0.015794   0.005373
     61       0.002580  -0.053144  -0.184322   0.041376   0.059862  -0.042782
     62      -0.013881   0.078289  -0.124486   0.036006  -0.003637   0.029519
     63       0.007924   0.187409  -0.230099   0.156099  -0.030869   0.019014
     64       0.011744  -0.078197  -0.158883  -0.004308   0.076781  -0.047393
     65      -0.063624   0.159236  -0.331914   0.025705   0.036782   0.021499
     66       0.028662   0.206070  -0.239134  -0.040810   0.050707   0.003317
     67      -0.053316   0.027228  -0.378817   0.127476   0.056747  -0.038752
     68      -0.005014   0.009211  -0.050101   0.077812  -0.026972   0.029856
     69      -0.271137  -0.203537  -0.035756  -0.018132  -0.054583  -0.048940
     70      -0.107966   0.123953   0.081954   0.053466   0.270947   0.215556
     71      -0.024925  -0.181832   0.001739  -0.003896   0.071393   0.092001
     72       0.045322  -0.031043  -0.028843   0.093985  -0.013061  -0.009011
     73       0.042269  -0.039960  -0.013698   0.119785  -0.021543  -0.006231
     74       0.002052  -0.026437   0.002502   0.091712  -0.038236   0.024957
     75       0.073771  -0.122305  -0.109774   0.264914  -0.028969  -0.024127
     76       0.032493  -0.008219   0.015402   0.060086  -0.016314  -0.000616
     77       0.056630  -0.114344   0.142208   0.276817  -0.129224   0.049753
     78       0.046206  -0.119371   0.096675   0.087294  -0.026971  -0.023589
     79       0.105144  -0.134491   0.018342   0.377127  -0.105413   0.013916
     80      -0.006810   0.047112  -0.088277   0.061736  -0.017189   0.031987
     81       0.169634  -0.054573   0.013748   0.002306   0.042666   0.006208
     82       0.330636  -0.110794   0.010467   0.001799   0.093220   0.038683
     83       0.098810  -0.002783  -0.023648  -0.013804  -0.063349  -0.147084
     84      -0.211610   0.101551   0.015344   0.016610  -0.021238  -0.126459
     85      -0.241208   0.101620   0.027309   0.034693   0.074239  -0.083342
     86      -0.091895   0.013454   0.021193   0.027285   0.127770   0.014395
     87       0.019833   0.046810   0.063182  -0.072102  -0.000065   0.006702
     88       0.013838   0.064893   0.095291  -0.074362  -0.011162   0.019619
     89      -0.042143  -0.120752   0.076563  -0.062288   0.024934  -0.038965
     90       0.023514  -0.058053   0.138437  -0.012267  -0.022059  -0.015981
     91       0.038042   0.093839   0.191191   0.001217  -0.087168   0.071442
     92      -0.035082  -0.183232   0.143996  -0.008841  -0.004031  -0.043717
     93      -0.007187   0.137379   0.155660  -0.253557   0.014477   0.027273
     94       0.023096   0.035088   0.066810  -0.013475  -0.017174   0.013503
     95      -0.086662  -0.061130  -0.008228  -0.276521   0.128608  -0.077721
     96       0.024245   0.120117  -0.034640  -0.076685   0.016689   0.022299
     97      -0.040823   0.145134   0.110912  -0.359721   0.078386  -0.004965
     98      -0.037387  -0.189120   0.149430  -0.016158  -0.001288  -0.047298
                 18         19         20         21         22         23    
      0      -0.005570   0.048704   0.001917  -0.000955   0.023025   0.001620
      1      -0.002341   0.005150   0.004517  -0.001718   0.040748   0.000894
      2       0.002993  -0.040521   0.001132  -0.001169   0.032765  -0.003768
      3      -0.014597  -0.078579   0.005213  -0.004710   0.052581  -0.001845
      4      -0.029924   0.120816   0.007768  -0.003710   0.058921   0.002804
      5      -0.008085  -0.061986   0.003457  -0.003282   0.049651  -0.004315
      6      -0.007398  -0.158493   0.002039  -0.003178   0.026058  -0.002304
      7      -0.026118   0.119785   0.002729  -0.000016   0.003481   0.004097
      8      -0.009734  -0.007665   0.000952  -0.000640   0.012580  -0.001847
      9      -0.009804  -0.146223   0.006157  -0.006418   0.071536  -0.001968
     10      -0.027352   0.066682   0.010053  -0.006257   0.083708   0.004658
     11      -0.016231   0.128754   0.003688  -0.001648   0.040670  -0.000175
     12       0.002356  -0.038502  -0.001526   0.000013  -0.000711  -0.000374
     13       0.005558  -0.065744  -0.000509   0.000486  -0.005908  -0.000361
     14      -0.003508   0.160038  -0.002524   0.003017  -0.013436  -0.000527
     15       0.011877   0.035783  -0.006941   0.005431  -0.060865   0.000830
     16       0.028964  -0.103283  -0.009151   0.007312  -0.085798  -0.001882
     17       0.012250   0.068000  -0.006809   0.005627  -0.046564  -0.002896
     18      -0.021486  -0.077470   0.007422  -0.006707   0.073486  -0.004369
     19      -0.044977   0.179487   0.011644  -0.006416   0.087532  -0.000554
     20      -0.008916  -0.145277   0.005328  -0.005867   0.076260  -0.008298
     21      -0.013433  -0.238662   0.010294  -0.009798   0.104765  -0.010484
     22      -0.040157   0.104875   0.013347  -0.009752   0.126960  -0.000580
     23      -0.025815   0.234293   0.003984  -0.002545   0.058050   0.000961
     24       0.029371   0.091654  -0.015898   0.012841  -0.148243   0.000156
     25       0.065504  -0.198954  -0.022970   0.016814  -0.207808  -0.006572
     26       0.028696   0.069488  -0.014062   0.011165  -0.114295  -0.004340
     27      -0.125088  -0.025356   0.002518   0.001146  -0.023152   0.004165
     28       0.155021   0.007777  -0.009402  -0.002267  -0.001239   0.041879
     29      -0.070340  -0.026894   0.005779  -0.001694  -0.031108  -0.019539
     30      -0.106600  -0.006976   0.029252   0.012348  -0.088286   0.316388
     31       0.193021   0.030454   0.023812   0.011048  -0.078604   0.417495
     32      -0.310011  -0.032111   0.018171   0.012231  -0.112998   0.307306
     33       0.069056   0.014151  -0.002612   0.009593   0.013443  -0.011178
     34      -0.066804   0.007388   0.001411   0.012471   0.017337  -0.008045
     35       0.014942   0.002263   0.003970   0.007963   0.002277  -0.035743
     36       0.162362   0.029539  -0.011054   0.005310   0.026576  -0.006730
     37      -0.099577   0.002084   0.003836   0.013910   0.013223  -0.008693
     38      -0.042340   0.023807   0.010078   0.019835   0.032252  -0.085206
     39       0.162376   0.036394  -0.007670   0.015938   0.040876  -0.023211
     40      -0.084552   0.022045   0.006620   0.017464   0.038656  -0.044047
     41      -0.050939  -0.016035   0.007296   0.002656  -0.020095  -0.024421
     42      -0.267938  -0.044435   0.016877   0.000782  -0.086576   0.205051
     43       0.276076  -0.028021  -0.033198  -0.036446   0.117512  -0.533453
     44       0.000320  -0.009486   0.001178   0.003670  -0.009099  -0.058217
     45      -0.134876  -0.081574  -0.915436  -0.043263   0.198382   0.119186
     46      -0.004554   0.256745   0.084545   0.006997  -0.075538  -0.261488
     47      -0.035224   0.150706  -0.284850  -0.011385   0.009695  -0.193995
     48      -0.012867   0.081691   0.214844   0.007826   0.014666   0.093813
     49      -0.016957   0.181858  -0.032723   0.001233  -0.040425  -0.141833
     50       0.015168  -0.101988   0.068768  -0.000116   0.053416   0.333876
     51       0.014958  -0.008048  -0.016431   0.008373  -0.116855  -0.007858
     52       0.015985  -0.074722  -0.019162   0.012600  -0.182844  -0.017024
     53       0.009479  -0.003877  -0.010364   0.006514  -0.089027  -0.008342
     54       0.039801  -0.037686  -0.050320   0.029568  -0.409067  -0.034931
     55       0.053895  -0.243284  -0.064105   0.041595  -0.589704  -0.056724
     56       0.020226   0.269201  -0.039988   0.024091  -0.314266  -0.024333
     57       0.009070   0.289329  -0.004812  -0.003362   0.054090  -0.001115
     58       0.018015  -0.170918   0.008135  -0.009102   0.097164  -0.009497
     59       0.013803  -0.245791   0.004991  -0.005355   0.053226  -0.005217
     60       0.029811   0.003428  -0.001181   0.013966   0.000094  -0.006309
     61      -0.138302  -0.007424   0.006595   0.017848  -0.000797   0.000201
     62       0.140942   0.014690  -0.005528   0.010424   0.016840   0.031574
     63       0.021091  -0.010140  -0.000526   0.027217  -0.021715   0.017950
     64      -0.132904  -0.002038   0.006104   0.013022   0.007853  -0.008885
     65       0.129853   0.010037  -0.008162   0.091342   0.030957   0.065598
     66       0.024320   0.004293   0.000135   0.052225   0.004664  -0.018830
     67      -0.132953  -0.014658   0.003492   0.082157   0.001143   0.054746
     68       0.140949   0.014841  -0.005786  -0.023063   0.012842   0.035349
     69       0.029095  -0.012995   0.063124   0.002475  -0.014895  -0.011271
     70      -0.015879   0.104212  -0.006548   0.000404  -0.004465   0.015543
     71       0.017765   0.041701   0.006901   0.000223  -0.009032   0.002982
     72      -0.034527  -0.002789   0.000517  -0.033579  -0.012081  -0.008097
     73      -0.051679  -0.007003   0.006637  -0.039987  -0.013342  -0.004207
     74       0.104608   0.009953  -0.003490  -0.032998   0.006540   0.033384
     75      -0.112695  -0.009407   0.004748  -0.073808  -0.026504  -0.012906
     76      -0.022736  -0.004471   0.004957  -0.025652  -0.007912  -0.002247
     77       0.152854   0.007425  -0.003539  -0.096940  -0.006524   0.039127
     78      -0.112087  -0.012815   0.003559  -0.040369  -0.020819  -0.020244
     79      -0.013266  -0.008654   0.007240  -0.115080  -0.027487   0.005269
     80       0.151361   0.016979  -0.005495  -0.017472   0.014286   0.040275
     81       0.008009  -0.038911  -0.003975   0.001392  -0.019530  -0.001836
     82       0.017522  -0.128527  -0.004569   0.001952  -0.029856  -0.004296
     83      -0.002970   0.253864  -0.004433   0.005366  -0.039203   0.000368
     84      -0.006542   0.147167   0.002588  -0.000480   0.030913   0.002248
     85       0.002489  -0.005583   0.006773  -0.003210   0.068473  -0.001025
     86       0.008586  -0.127120   0.002813  -0.002994   0.054066  -0.006089
     87       0.049111   0.004479  -0.005800   0.007180   0.003824  -0.002891
     88       0.078117   0.004243  -0.002066   0.008442   0.008617   0.008556
     89      -0.162375  -0.013285   0.010167   0.008784  -0.008588  -0.010452
     90      -0.095693  -0.022456  -0.007355   0.334869   0.043391  -0.032973
     91       0.263054   0.004287  -0.025751   0.390890   0.087884   0.031910
     92      -0.220958  -0.030827   0.004584   0.295662   0.032331  -0.025420
     93       0.160829   0.014830  -0.013603   0.033826   0.020718   0.008821
     94       0.043528   0.000726   0.000110   0.007087   0.004534   0.004881
     95      -0.253392   0.002913   0.033422  -0.534975  -0.103318  -0.019638
     96       0.154129   0.026905  -0.002179  -0.310523  -0.038651   0.022703
     97       0.038215   0.017222   0.011163  -0.327087  -0.046410   0.001051
     98      -0.237244  -0.032419   0.005406   0.303457   0.032290  -0.028892
                 24         25         26         27         28         29    
      0       0.076194  -0.023926  -0.004908  -0.007981  -0.148991   0.051949
      1       0.127119  -0.028508  -0.005645   0.018151  -0.017156   0.111074
      2       0.072327   0.004281   0.002254   0.035017   0.121611   0.065698
      3      -0.086362   0.028694   0.009447   0.001923  -0.059097  -0.003379
      4      -0.147441   0.034553   0.010479   0.003541  -0.034568   0.009074
      5      -0.066808   0.039027   0.011566   0.027945   0.107971   0.011658
      6       0.009942  -0.001551  -0.002359  -0.008905   0.171097  -0.122784
      7       0.001640  -0.030574  -0.012358  -0.058281   0.037783  -0.215760
      8       0.005052  -0.008448  -0.003636  -0.035511  -0.057028  -0.123642
[...]
     17       0.000087   0.000002  -0.000003
     18      -0.000116   0.000852   0.000233
     19       0.000063  -0.000622  -0.000175
     20       0.000214  -0.000257   0.000048
     21       0.000133   0.000458   0.001886
     22       0.000651  -0.000564  -0.001472
     23       0.000329   0.000304   0.001631
     24       0.000340   0.000066  -0.000018
     25       0.000207  -0.000039  -0.000129
     26      -0.000684  -0.000046   0.000289
     27       0.028807  -0.058575  -0.000297
     28      -0.034487   0.014223   0.000340
     29      -0.027141  -0.050251   0.000063
     30      -0.658512   0.363484   0.005537
     31       0.474295  -0.294385  -0.004631
     32       0.001061  -0.032820   0.001666
     33       0.000015  -0.001765   0.000013
     34      -0.001704  -0.000120  -0.000056
     35      -0.001262  -0.001891   0.000069
     36      -0.003191   0.000065   0.000422
     37      -0.001756   0.000496   0.000822
     38       0.003671   0.001811  -0.000252
     39       0.005002   0.008461  -0.000135
     40       0.002346   0.002417  -0.000011
     41       0.005633   0.005705  -0.000859
     42       0.259077   0.460357  -0.001247
     43       0.020724   0.097690  -0.000232
     44       0.381546   0.742221  -0.001405
     45       0.006626  -0.000617   0.269599
     46       0.004309  -0.001417   0.659627
     47      -0.021728   0.003122  -0.696075
     48      -0.003782   0.000214  -0.007847
     49       0.321220  -0.034334  -0.062864
     50       0.145490  -0.015753   0.002878
     51       0.000263  -0.000055  -0.000067
     52      -0.000795   0.000312   0.000007
     53       0.000866  -0.000291   0.000037
     54      -0.003085   0.000078   0.000175
     55       0.001454  -0.000210  -0.000302
     56      -0.000642  -0.000151  -0.000096
     57      -0.000135   0.000050   0.000024
     58       0.000666  -0.000194   0.000062
     59      -0.000398   0.000138  -0.000002
     60      -0.000123  -0.000107  -0.000002
     61       0.000012   0.000053  -0.000013
     62       0.000109  -0.000028  -0.000006
     63       0.000838  -0.001218  -0.000026
     64       0.003332  -0.002856   0.000213
     65       0.000037  -0.000721   0.000002
     66      -0.001584   0.004832  -0.000145
     67      -0.000284   0.000084   0.000064
     68      -0.002130   0.003922  -0.000115
     69      -0.000187   0.000094  -0.016523
     70      -0.020709   0.002217  -0.037681
     71      -0.007831   0.000829   0.043640
     72      -0.000003  -0.000041   0.000002
     73       0.000001   0.000021  -0.000019
     74      -0.000011  -0.000028   0.000014
     75      -0.000255  -0.000190   0.000062
     76      -0.000562  -0.000149   0.000173
     77      -0.000036   0.000078  -0.000048
     78       0.000225  -0.000026  -0.000038
     79       0.000195   0.000201   0.000004
     80       0.000452   0.000864  -0.000122
     81       0.000988  -0.000028   0.000343
     82      -0.000392  -0.000013  -0.000193
     83      -0.000487   0.000069  -0.000073
     84      -0.000520   0.000120   0.000092
     85       0.000762  -0.000145  -0.000139
     86      -0.000868   0.000175   0.000139
     87       0.000024  -0.000003   0.000001
     88      -0.000026   0.000008  -0.000010
     89       0.000006  -0.000017   0.000004
     90      -0.000166  -0.000285  -0.000000
     91      -0.000059   0.000013   0.000005
     92       0.000260   0.000298  -0.000003
     93       0.000130  -0.000076  -0.000006
     94       0.000514  -0.000301   0.000038
     95      -0.000005  -0.000072  -0.000000
     96      -0.000304   0.000421  -0.000014
     97      -0.000023   0.000042   0.000011
     98      -0.000348   0.000384  -0.000011


-----------
IR SPECTRUM  
-----------

 Mode    freq (cm**-1)   T**2         TX         TY         TZ
-------------------------------------------------------------------
   7:        36.99    0.000000  (  0.000000   0.000000   0.000000)
   8:        42.06    0.000000  (  0.000000   0.000000   0.000000)
   9:        49.65    0.000000  (  0.000000   0.000000   0.000000)
  10:        53.08    0.000000  (  0.000000   0.000000   0.000000)
  11:        56.57    0.000000  (  0.000000   0.000000   0.000000)
  12:        67.96    0.000000  (  0.000000   0.000000   0.000000)
  13:        87.76    0.000000  (  0.000000   0.000000   0.000000)
  14:       109.29    0.000000  (  0.000000   0.000000   0.000000)
  15:       123.63    0.000000  (  0.000000   0.000000   0.000000)
  16:       142.23    0.000000  (  0.000000   0.000000   0.000000)
  17:       178.49    0.000000  (  0.000000   0.000000   0.000000)
  18:       202.12    0.000000  (  0.000000   0.000000   0.000000)
  19:       228.44    0.000000  (  0.000000   0.000000   0.000000)
  20:       254.73    0.000000  (  0.000000   0.000000   0.000000)
  21:       259.59    0.000000  (  0.000000   0.000000   0.000000)
  22:       265.82    0.000000  (  0.000000   0.000000   0.000000)
  23:       332.00    0.000000  (  0.000000   0.000000   0.000000)
  24:       376.07    0.000000  (  0.000000   0.000000   0.000000)
  25:       391.07    0.000000  (  0.000000   0.000000   0.000000)
  26:       395.06    0.000000  (  0.000000   0.000000   0.000000)
  27:       426.13    0.000000  (  0.000000   0.000000   0.000000)
  28:       435.38    0.000000  (  0.000000   0.000000   0.000000)
  29:       444.23    0.000000  (  0.000000   0.000000   0.000000)
  30:       586.08    0.000000  (  0.000000   0.000000   0.000000)
  31:       587.50    0.000000  (  0.000000   0.000000   0.000000)
  32:       628.51    0.000000  (  0.000000   0.000000   0.000000)
  33:       658.97    0.000000  (  0.000000   0.000000   0.000000)
  34:       742.62    0.000000  (  0.000000   0.000000   0.000000)
  35:       769.94    0.000000  (  0.000000   0.000000   0.000000)
  36:       822.80    0.000000  (  0.000000   0.000000   0.000000)
  37:       824.85    0.000000  (  0.000000   0.000000   0.000000)
  38:       874.31    0.000000  (  0.000000   0.000000   0.000000)
  39:       893.31    0.000000  (  0.000000   0.000000   0.000000)
  40:       912.25    0.000000  (  0.000000   0.000000   0.000000)
  41:       918.91    0.000000  (  0.000000   0.000000   0.000000)
  42:       932.12    0.000000  (  0.000000   0.000000   0.000000)
  43:       933.84    0.000000  (  0.000000   0.000000   0.000000)
  44:       936.74    0.000000  (  0.000000   0.000000   0.000000)
  45:       970.51    0.000000  (  0.000000   0.000000   0.000000)
  46:       984.12    0.000000  (  0.000000   0.000000   0.000000)
  47:      1006.34    0.000000  (  0.000000   0.000000   0.000000)
  48:      1065.88    0.000000  (  0.000000   0.000000   0.000000)
  49:      1066.60    0.000000  (  0.000000   0.000000   0.000000)
  50:      1099.67    0.000000  (  0.000000   0.000000   0.000000)
  51:      1114.75    0.000000  (  0.000000   0.000000   0.000000)
  52:      1122.41    0.000000  (  0.000000   0.000000   0.000000)
  53:      1145.37    0.000000  (  0.000000   0.000000   0.000000)
  54:      1176.71    0.000000  (  0.000000   0.000000   0.000000)
  55:      1179.77    0.000000  (  0.000000   0.000000   0.000000)
  56:      1199.61    0.000000  (  0.000000   0.000000   0.000000)
  57:      1208.17    0.000000  (  0.000000   0.000000   0.000000)
  58:      1231.50    0.000000  (  0.000000   0.000000   0.000000)
  59:      1269.64    0.000000  (  0.000000   0.000000   0.000000)
  60:      1275.46    0.000000  (  0.000000   0.000000   0.000000)
  61:      1279.14    0.000000  (  0.000000   0.000000   0.000000)
  62:      1290.77    0.000000  (  0.000000   0.000000   0.000000)
  63:      1303.68    0.000000  (  0.000000   0.000000   0.000000)
  64:      1353.51    0.000000  (  0.000000   0.000000   0.000000)
  65:      1356.28    0.000000  (  0.000000   0.000000   0.000000)
  66:      1378.97    0.000000  (  0.000000   0.000000   0.000000)
  67:      1425.94    0.000000  (  0.000000   0.000000   0.000000)
  68:      1428.51    0.000000  (  0.000000   0.000000   0.000000)
  69:      1448.36    0.000000  (  0.000000   0.000000   0.000000)
  70:      1497.87    0.000000  (  0.000000   0.000000   0.000000)
  71:      1504.05    0.000000  (  0.000000   0.000000   0.000000)
  72:      1506.36    0.000000  (  0.000000   0.000000   0.000000)
  73:      1507.06    0.000000  (  0.000000   0.000000   0.000000)
  74:      1512.04    0.000000  (  0.000000   0.000000   0.000000)
  75:      1545.12    0.000000  (  0.000000   0.000000   0.000000)
  76:      1550.33    0.000000  (  0.000000   0.000000   0.000000)
  77:      1561.39    0.000000  (  0.000000   0.000000   0.000000)
  78:      1568.96    0.000000  (  0.000000   0.000000   0.000000)
  79:      1644.12    0.000000  (  0.000000   0.000000   0.000000)
  80:      2841.60    0.000000  (  0.000000   0.000000   0.000000)
  81:      2859.58    0.000000  (  0.000000   0.000000   0.000000)
  82:      2929.88    0.000000  (  0.000000   0.000000   0.000000)
  83:      2943.49    0.000000  (  0.000000   0.000000   0.000000)
  84:      2962.17    0.000000  (  0.000000   0.000000   0.000000)
  85:      2965.05    0.000000  (  0.000000   0.000000   0.000000)
  86:      2969.92    0.000000  (  0.000000   0.000000   0.000000)
  87:      2978.81    0.000000  (  0.000000   0.000000   0.000000)
  88:      2984.30    0.000000  (  0.000000   0.000000   0.000000)
  89:      2996.83    0.000000  (  0.000000   0.000000   0.000000)
  90:      3054.25    0.000000  (  0.000000   0.000000   0.000000)
  91:      3060.01    0.000000  (  0.000000   0.000000   0.000000)
  92:      3066.91    0.000000  (  0.000000   0.000000   0.000000)
  93:      3074.67    0.000000  (  0.000000   0.000000   0.000000)
  94:      3084.53    0.000000  (  0.000000   0.000000   0.000000)
  95:      3362.45    0.000000  (  0.000000   0.000000   0.000000)
  96:      3378.20    0.000000  (  0.000000   0.000000   0.000000)
  97:      3411.30    0.000000  (  0.000000   0.000000   0.000000)
  98:      3582.49    0.000000  (  0.000000   0.000000   0.000000)

The first frequency considered to be a vibration is 7
The total number of vibrations considered is 92


--------------------------
THERMOCHEMISTRY AT 298.15K
--------------------------

Temperature         ... 298.15 K
Pressure            ... 1.00 atm
Total Mass          ... 197.28 AMU

Throughout the following assumptions are being made:
  (1) The electronic state is orbitally nondegenerate
  (2) There are no thermally accessible electronically excited states
  (3) Hindered rotations indicated by low frequency modes are not
      treated as such but are treated as vibrations and this may
      cause some error
  (4) All equations used are the standard statistical mechanics
      equations for an ideal gas
  (5) All vibrations are strictly harmonic

freq.      36.99  E(vib)   ...       0.54 
freq.      42.06  E(vib)   ...       0.53 
freq.      49.65  E(vib)   ...       0.52 
freq.      53.08  E(vib)   ...       0.52 
freq.      56.57  E(vib)   ...       0.52 
freq.      67.96  E(vib)   ...       0.50 
freq.      87.76  E(vib)   ...       0.48 
freq.     109.29  E(vib)   ...       0.45 
freq.     123.63  E(vib)   ...       0.43 
freq.     142.23  E(vib)   ...       0.41 
freq.     178.49  E(vib)   ...       0.37 
freq.     202.12  E(vib)   ...       0.35 
freq.     228.44  E(vib)   ...       0.32 
freq.     254.73  E(vib)   ...       0.30 
freq.     259.59  E(vib)   ...       0.30 
freq.     265.82  E(vib)   ...       0.29 
freq.     332.00  E(vib)   ...       0.24 
freq.     376.07  E(vib)   ...       0.21 
freq.     391.07  E(vib)   ...       0.20 
freq.     395.06  E(vib)   ...       0.20 
freq.     426.13  E(vib)   ...       0.18 
freq.     435.38  E(vib)   ...       0.17 
freq.     444.23  E(vib)   ...       0.17 
freq.     586.08  E(vib)   ...       0.11 
freq.     587.50  E(vib)   ...       0.10 
freq.     628.51  E(vib)   ...       0.09 
freq.     658.97  E(vib)   ...       0.08 
freq.     742.62  E(vib)   ...       0.06 
freq.     769.94  E(vib)   ...       0.05 
freq.     822.80  E(vib)   ...       0.05 
freq.     824.85  E(vib)   ...       0.04 
freq.     874.31  E(vib)   ...       0.04 
freq.     893.31  E(vib)   ...       0.03 
freq.     912.25  E(vib)   ...       0.03 
freq.     918.91  E(vib)   ...       0.03 
freq.     932.12  E(vib)   ...       0.03 
freq.     933.84  E(vib)   ...       0.03 
freq.     936.74  E(vib)   ...       0.03 
freq.     970.51  E(vib)   ...       0.03 
freq.     984.12  E(vib)   ...       0.02 
freq.    1006.34  E(vib)   ...       0.02 
freq.    1065.88  E(vib)   ...       0.02 
freq.    1066.60  E(vib)   ...       0.02 
freq.    1099.67  E(vib)   ...       0.02 
freq.    1114.75  E(vib)   ...       0.01 
freq.    1122.41  E(vib)   ...       0.01 
freq.    1145.37  E(vib)   ...       0.01 
freq.    1176.71  E(vib)   ...       0.01 
freq.    1179.77  E(vib)   ...       0.01 
freq.    1199.61  E(vib)   ...       0.01 
freq.    1208.17  E(vib)   ...       0.01 
freq.    1231.50  E(vib)   ...       0.01 
freq.    1269.64  E(vib)   ...       0.01 
freq.    1275.46  E(vib)   ...       0.01 
freq.    1279.14  E(vib)   ...       0.01 
freq.    1290.77  E(vib)   ...       0.01 
freq.    1303.68  E(vib)   ...       0.01 
freq.    1353.51  E(vib)   ...       0.01 
freq.    1356.28  E(vib)   ...       0.01 
freq.    1378.97  E(vib)   ...       0.01 
freq.    1425.94  E(vib)   ...       0.00 
freq.    1428.51  E(vib)   ...       0.00 
freq.    1448.36  E(vib)   ...       0.00 
freq.    1497.87  E(vib)   ...       0.00 
freq.    1504.05  E(vib)   ...       0.00 
freq.    1506.36  E(vib)   ...       0.00 
freq.    1507.06  E(vib)   ...       0.00 
freq.    1512.04  E(vib)   ...       0.00 
freq.    1545.12  E(vib)   ...       0.00 
freq.    1550.33  E(vib)   ...       0.00 
freq.    1561.39  E(vib)   ...       0.00 
freq.    1568.96  E(vib)   ...       0.00 
freq.    1644.12  E(vib)   ...       0.00 
freq.    2841.60  E(vib)   ...       0.00 
freq.    2859.58  E(vib)   ...       0.00 
freq.    2929.88  E(vib)   ...       0.00 
freq.    2943.49  E(vib)   ...       0.00 
freq.    2962.17  E(vib)   ...       0.00 
freq.    2965.05  E(vib)   ...       0.00 
freq.    2969.92  E(vib)   ...       0.00 
freq.    2978.81  E(vib)   ...       0.00 
freq.    2984.30  E(vib)   ...       0.00 
freq.    2996.83  E(vib)   ...       0.00 
freq.    3054.25  E(vib)   ...       0.00 
freq.    3060.01  E(vib)   ...       0.00 
freq.    3066.91  E(vib)   ...       0.00 
freq.    3074.67  E(vib)   ...       0.00 
freq.    3084.53  E(vib)   ...       0.00 
freq.    3362.45  E(vib)   ...       0.00 
freq.    3378.20  E(vib)   ...       0.00 
freq.    3411.30  E(vib)   ...       0.00 
freq.    3582.49  E(vib)   ...       0.00 

------------
INNER ENERGY
------------

The inner energy is: U= E(el) + E(ZPE) + E(vib) + E(rot) + E(trans)
    E(el)   - is the total energy from the electronic structure calculation
              = E(kin-el) + E(nuc-el) + E(el-el) + E(nuc-nuc)
    E(ZPE)  - the the zero temperature vibrational energy from the frequency calculation
    E(vib)  - the the finite temperature correction to E(ZPE) due to population
              of excited vibrational states
    E(rot)  - is the rotational thermal energy
    E(trans)- is the translational thermal energy

Summary of contributions to the inner energy U:
Electronic energy                ...    -44.26469046 Eh
Zero point energy                ...      0.27626548 Eh     173.36 kcal/mol
Thermal vibrational correction   ...      0.01487961 Eh       9.34 kcal/mol
Thermal rotational correction    ...      0.00141627 Eh       0.89 kcal/mol
Thermal translational correction ...      0.00141627 Eh       0.89 kcal/mol
-----------------------------------------------------------------------
Total thermal energy                    -43.97071282 Eh


Summary of corrections to the electronic energy:
(perhaps to be used in another calculation)
Total thermal correction                  0.01771216 Eh      11.11 kcal/mol
Non-thermal (ZPE) correction              0.27626548 Eh     173.36 kcal/mol
-----------------------------------------------------------------------
Total correction                          0.29397764 Eh     184.47 kcal/mol


--------
ENTHALPY
--------

The enthalpy is H = U + kB*T
                kB is Boltzmann's constant
Total free energy                 ...    -43.97071282 Eh 
Thermal Enthalpy correction       ...      0.00094421 Eh       0.59 kcal/mol
-----------------------------------------------------------------------
Total Enthalpy                    ...    -43.96976861 Eh


Note: Only C1 symmetry has been detected, increase convergence thresholds 
      if your molecule has a higher symmetry. Symmetry factor of 1.0 is   
      used for the rotational entropy correction. 
 

Note: Rotational entropy computed according to Herzberg 
Infrared and Raman Spectra, Chapter V,1, Van Nostrand Reinhold, 1945 
Point Group:  C1, Symmetry Number:   1  
Rotational constants in cm-1:     0.032291     0.009510     0.008210 

Vibrational entropy computed according to the QRRHO of S. Grimme
Chem.Eur.J. 2012 18 9955


-------
ENTROPY
-------

The entropy contributions are T*S = T*(S(el)+S(vib)+S(rot)+S(trans))
     S(el)   - electronic entropy
     S(vib)  - vibrational entropy
     S(rot)  - rotational entropy
     S(trans)- translational entropy
The entropies will be listed as mutliplied by the temperature to get
units of energy

Electronic entropy                ...      0.00000000 Eh      0.00 kcal/mol
Vibrational entropy               ...      0.02691796 Eh     16.89 kcal/mol
Rotational entropy                ...      0.01559641 Eh      9.79 kcal/mol
Translational entropy             ...      0.01983352 Eh     12.45 kcal/mol
-----------------------------------------------------------------------
Final entropy term                ...      0.06234790 Eh     39.12 kcal/mol

In case the symmetry of your molecule has not been determined correctly
or in case you have a reason to use a different symmetry number we print 
out the resulting rotational entropy values for sn=1,12 :
 --------------------------------------------------------
|  sn= 1 | S(rot)=       0.01559641 Eh      9.79 kcal/mol|
|  sn= 2 | S(rot)=       0.01494196 Eh      9.38 kcal/mol|
|  sn= 3 | S(rot)=       0.01455913 Eh      9.14 kcal/mol|
|  sn= 4 | S(rot)=       0.01428750 Eh      8.97 kcal/mol|
|  sn= 5 | S(rot)=       0.01407681 Eh      8.83 kcal/mol|
|  sn= 6 | S(rot)=       0.01390467 Eh      8.73 kcal/mol|
|  sn= 7 | S(rot)=       0.01375912 Eh      8.63 kcal/mol|
|  sn= 8 | S(rot)=       0.01363305 Eh      8.55 kcal/mol|
|  sn= 9 | S(rot)=       0.01352184 Eh      8.49 kcal/mol|
|  sn=10 | S(rot)=       0.01342236 Eh      8.42 kcal/mol|
|  sn=11 | S(rot)=       0.01333237 Eh      8.37 kcal/mol|
|  sn=12 | S(rot)=       0.01325021 Eh      8.31 kcal/mol|
 --------------------------------------------------------


-------------------
GIBBS FREE ENERGY
-------------------

The Gibbs free energy is G = H - T*S

Total enthalpy                    ...    -43.96976861 Eh 
Total entropy correction          ...     -0.06234790 Eh    -39.12 kcal/mol
-----------------------------------------------------------------------
Final Gibbs free energy         ...    -44.03211651 Eh

For completeness - the Gibbs free energy minus the electronic energy
G-E(el)                           ...      0.23257395 Eh    145.94 kcal/mol


Total Time for Numerical Frequencies  :       254.107 sec
Time for Reference State(s)           :         0.303 sec
Time for Displacements                :       223.581 sec

Timings for individual modules:

Sum of individual times         ...        0.574 sec (=   0.010 min)
XTB module                      ...        0.574 sec (=   0.010 min) 100.0 %
                             ****ORCA TERMINATED NORMALLY****
TOTAL RUN TIME: 0 days 0 hours 4 minutes 15 seconds 913 msec
(SLURM) EXECUTION TIME: 256.000348759 seconds.
