(SLURM) JOB ID:         401

                                 *****************
                                 * O   R   C   A *
                                 *****************

           --- An Ab Initio, DFT and Semiempirical electronic structure package ---

                  #######################################################
                  #                        -***-                        #
                  #          Department of theory and spectroscopy      #
                  #               Directorship: Frank Neese             #
                  #        Max Planck Institute fuer Kohlenforschung    #
                  #                Kaiser Wilhelm Platz 1               #
                  #                 D-45470 Muelheim/Ruhr               #
                  #                      Germany                        #
                  #                                                     #
                  #                  All rights reserved                #
                  #                        -***-                        #
                  #######################################################


                         Program Version 4.2.1 -  RELEASE  -


 With contributions from (in alphabetic order):
   Daniel Aravena         : Magnetic Suceptibility
   Michael Atanasov       : Ab Initio Ligand Field Theory (pilot matlab implementation)
   Alexander A. Auer      : GIAO ZORA, VPT2
   Ute Becker             : Parallelization
   Giovanni Bistoni       : ED, misc. LED, open-shell LED, HFLD
   Martin Brehm           : Molecular dynamics
   Dmytro Bykov           : SCF Hessian
   Vijay G. Chilkuri      : MRCI spin determinant printing, contributions to CSF-ICE
   Dipayan Datta          : RHF DLPNO-CCSD density
   Achintya Kumar Dutta   : EOM-CC, STEOM-CC
   Dmitry Ganyushin       : Spin-Orbit,Spin-Spin,Magnetic field MRCI
   Miquel Garcia          : C-PCM Hessian, Gaussian charge scheme
   Yang Guo               : DLPNO-NEVPT2, CIM, IAO-localization
   Andreas Hansen         : Spin unrestricted coupled pair/coupled cluster methods
   Benjamin Helmich-Paris : CASSCF linear response (MC-RPA)
   Lee Huntington         : MR-EOM, pCC
   Robert Izsak           : Overlap fitted RIJCOSX, COSX-SCS-MP3, EOM
   Christian Kollmar      : KDIIS, OOCD, Brueckner-CCSD(T), CCSD density
   Simone Kossmann        : Meta GGA functionals, TD-DFT gradient, OOMP2, MP2 Hessian
   Martin Krupicka        : AUTO-CI
   Lucas Lang             : DCDCAS
   Dagmar Lenk            : GEPOL surface, SMD
   Dimitrios Liakos       : Extrapolation schemes; Compound Job, initial MDCI parallelization
   Dimitrios Manganas     : Further ROCIS development; embedding schemes
   Dimitrios Pantazis     : SARC Basis sets
   Taras Petrenko         : DFT Hessian,TD-DFT gradient, ASA, ECA, R-Raman, ABS, FL, XAS/XES, NRVS
   Peter Pinski           : DLPNO-MP2, DLPNO-MP2 Gradient
   Christoph Reimann      : Effective Core Potentials
   Marius Retegan         : Local ZFS, SOC
   Christoph Riplinger    : Optimizer, TS searches, QM/MM, DLPNO-CCSD(T), (RO)-DLPNO pert. Triples
   Tobias Risthaus        : Range-separated hybrids, TD-DFT gradient, RPA, STAB
   Michael Roemelt        : Original ROCIS implementation
   Masaaki Saitow         : Open-shell DLPNO-CCSD energy and density
   Barbara Sandhoefer     : DKH picture change effects
   Avijit Sen             : IP-ROCIS
   Kantharuban Sivalingam : CASSCF convergence, NEVPT2, FIC-MRCI
   Bernardo de Souza      : ESD, SOC TD-DFT
   Georgi Stoychev        : AutoAux, RI-MP2 NMR
   Willem Van den Heuvel  : Paramagnetic NMR
   Boris Wezisla          : Elementary symmetry handling
   Frank Wennmohs         : Technical directorship


 We gratefully acknowledge several colleagues who have allowed us to
 interface, adapt or use parts of their codes:
   Stefan Grimme, W. Hujo, H. Kruse,             : VdW corrections, initial TS optimization,
                  C. Bannwarth                     DFT functionals, gCP, sTDA/sTD-DF
   Ed Valeev, F. Pavosevic, A. Kumar             : LibInt (2-el integral package), F12 methods
   Garnet Chan, S. Sharma, J. Yang, R. Olivares  : DMRG
   Ulf Ekstrom                                   : XCFun DFT Library
   Mihaly Kallay                                 : mrcc  (arbitrary order and MRCC methods)
   Andreas Klamt, Michael Diedenhofen            : otool_cosmo (COSMO solvation model)
   Jiri Pittner, Ondrej Demel                    : Mk-CCSD
   Frank Weinhold                                : gennbo (NPA and NBO analysis)
   Christopher J. Cramer and Donald G. Truhlar   : smd solvation model
   Lars Goerigk                                  : TD-DFT with DH, B97 family of functionals
   V. Asgeirsson, H. Jonsson                     : NEB implementation
   FAccTs GmbH                                   : IRC, NEB, NEB-TS, Multilevel, MM, QM/MM, CI optimization
   S Lehtola, MJT Oliveira, MAL Marques          : LibXC Library


 Your calculation uses the libint2 library for the computation of 2-el integrals
 For citations please refer to: http://libint.valeyev.net

 Your ORCA version has been built with support for libXC version: 4.2.3
 For citations please refer to: https://tddft.org/programs/libxc/

 This ORCA versions uses:
   CBLAS   interface :  Fast vector & matrix operations
   LAPACKE interface :  Fast linear algebra routines
   SCALAPACK package :  Parallel linear algebra routines




***************************************
The coordinates will be read from file: init.xyz
***************************************


Your calculation utilizes the SMD solvation module
Please cite in your paper:
A.V. Marenich, C.J. Cramer, D.G. Truhlar J. Phys. Chem. B, 113, (2009), 6378 

Your calculation utilizes the semiempirical GFN2-xTB method
Please cite in your paper:
C. Bannwarth, Ehlert S., S. Grimme,  J. Chem. Theory Comput., 15, (2019), 1652.
   

----- Orbital basis set information -----
Your calculation utilizes the basis: def2-SVP
   F. Weigend and R. Ahlrichs, Phys. Chem. Chem. Phys. 7, 3297 (2005).

================================================================================
                                        WARNINGS
                       Please study these warnings very carefully!
================================================================================

WARNING: Gradients needed for Numerical Frequencies
  ===> : Setting RunTyp to EnGrad

WARNING: The environment variable RSH_COMMAND is not set!
  ===> : All Displacements for the Numerical Hessian calculation
         will be started on localhost

WARNING: Found dipole moment calculation with XTB calculation
  ===> : Switching off dipole moment calculation


INFO   : the flag for use of LIBINT has been found!

================================================================================
                                       INPUT FILE
================================================================================
NAME = /tmp/slurm-scratch/freq.401/freq.inp
|  1> ! XTB2 NumFreq
|  2> %maxcore 1450
|  3> 
|  4> * xyzfile 0 1 init.xyz
|  5> 
|  6> %cpcm
|  7>  smd true
|  8>  smdsolvent "ch2cl2"
|  9> end
| 10> %pal nprocs 8 end
| 11> 
| 12>                          ****END OF INPUT****
================================================================================

                     *******************************
                     * Energy+Gradient Calculation *
                     *******************************

      -----------------------------------------------------------      
     |                   =====================                   |     
     |                           x T B                           |     
     |                   =====================                   |     
     |                         S. Grimme                         |     
     |          Mulliken Center for Theoretical Chemistry        |     
     |                    University of Bonn                     |     
      -----------------------------------------------------------      

   * xtb version 6.3.0 (preview) compiled by 'ehlert@majestix' on 2020-01-15

   This program is distributed in the hope that it will be useful,
   but WITHOUT ANY WARRANTY; without even the implied warranty of
   MERCHANTABILITY or FITNESS FOR A PARTICULAR PURPOSE.
   
   FOR NON-COMMERCIAL, ACADEMIA USE ONLY.
   
   Cite this work as:
   * S. Grimme, C. Bannwarth, P. Shushkov, J. Chem. Theory Comput., 2017,
     13, 1989-2009. DOI: 10.1021/acs.jctc.7b00118
   * C. Bannwarth, S. Ehlert and S. Grimme., J. Chem. Theory Comput., 2019,
     15, 1652-1671. DOI: 10.1021/acs.jctc.8b01176
   * P. Pracht, E. Caldeweyher, S. Ehlert, S. Grimme, ChemRxiv, 2019, preprint.
     DOI: 10.26434/chemrxiv.8326202.v1
   * S. Grimme, S. Spicher unpublished
   
   for DFT-D4:
   * E. Caldeweyher, C. Bannwarth and S. Grimme, J. Chem. Phys., 2017,
     147, 034112. DOI: 10.1063/1.4993215
   * E. Caldeweyher, S. Ehlert, A. Hansen, H. Neugebauer, S. Spicher,
     C. Bannwarth and S. Grimme, J. Chem. Phys., 2019, 150, 154122.
     DOI: 10.1063/1.5090222
   
   for sTDA-xTB:
   * S. Grimme and C. Bannwarth, J. Chem. Phys., 2016, 145, 054103.
     DOI: 10.1063/1.4959605
   
   in the mass-spec context:
   * V. Asgeirsson, C. Bauer and S. Grimme, Chem. Sci., 2017, 8, 4879.
     DOI: 10.1039/c7sc00601b
   
   for metadynamics refer to:
   * S. Grimme, J. Chem. Theory Comput., 2019, 155, 2847-2862
     DOI: 10.1021/acs.jctc.9b00143
   
   with help from (in alphabetical order)
   C. Bannwarth, F. Bohle, G. Brandenburg, E. Caldeweyher, M. Checinski,
   S. Dohm, S. Ehlert, S. Ehrlich, F. März, H. Neugebauer, J. Pisarek,
   P. Pracht, P. Shushkov, and S. Spicher.
   
 * started run on 2021/03/23 at 09:10:41.473     

           -------------------------------------------------
          |                Calculation Setup                |
           -------------------------------------------------

          program call               : /opt/orca/otool_xtb /tmp/slurm-scratch/freq.401/freq_XTB.xyz --grad -c 0 -u 0 -P 8 --namespace /tmp/slurm-scratch/freq.401/freq --gbsa CH2Cl2
          hostname                   : headnode-pbs
          calculation namespace      : /tmp/slurm-scratch/freq.401/freq
          coordinate file            : /tmp/slurm-scratch/freq.401/freq_XTB.xyz
          omp threads                :                     8
          number of atoms            :                    49
          number of electrons        :                   112
          charge                     :                     0
          spin                       :                   0.0
          first test random number   :      0.15465617186659


molecular fragmentation (1/2 indicates fragments):
1111111111112111112122222211111222222222211112222
# atoms in fragment 1/2:    27    22
 fragment masses (1/2) :      161.24      109.17
CMA distance (Bohr)    :   7.262
constraining FC (au)   :  0.0500

########################################################################
# WARNING! Please study the warnings concerning your input carefully
#  - Process number higher than OMP_NUM_THREADS, I hope you know what you are doing.
########################################################################

           ------------------------------------------------- 
          |                 G F N 2 - x T B                 |
          | Geometry, Frequencies, Noncovalent interactions |
          |            JCTC 2019 parametrisation            |
           ------------------------------------------------- 
             k(s)              :                1.8500
             k(p)              :                2.2300
             k(d)              :                2.2300
             k(f)              :                2.0000
             kEN (H0ij)        :               -2.0000
             D4 a1             :                0.5200
             D4 a2             :                5.0000
             D4 s6             :                1.0000
             D4 s8             :                2.7000
             D4 s9             :                5.0000
             alphaj            :                2.0000

  Z AO/shell   Hii/eV     exponent
  1     Wed Apr 25 08:07:45 CEST 2018   EN: 2.200 GM2: 0.406  GM3: 0.0800  RAES: 1.40
     1s    -10.707211    1.230000
  6     Wed Apr 25 08:07:45 CEST 2018   EN: 2.550 GM2: 0.538  GM3: 0.1500  RAES: 3.00
     2s    -13.970922    2.096432
     2p    -10.063292    1.800000
  7     Wed Apr 25 08:07:45 CEST 2018   EN: 3.040 GM2: 0.461  GM3:-0.0640  RAES: 1.90
     2s    -16.686243    2.339881
     2p    -12.523956    2.014332
  8     Wed Apr 25 08:07:45 CEST 2018   EN: 3.440 GM2: 0.452  GM3:-0.0517  RAES: 1.80
     2s    -20.229985    2.439742
     2p    -15.503117    2.137023

 Solvent             : CH2Cl2
 Using internal parameter file: .param_gbsa2_CH2Cl2
 Gsolv ref. state (COSMO-RS): gsolv [1 M gas/solution]
 temperature (mdtemp)       :    298.150000000000     
 dielectric constant        :    8.93000000000000     
 rho                        :    1.33000000000000     
 mass                       :    84.9300000000000     
 surface tension            :    15.5689454083859     
 probe radius               :   0.719875900000000     
 Gshift (Eh)                :   4.440829173451759E-003
 c1                         :    1.49173776000000     
 soset                      :   0.000000000000000E+000
 HB correction              :  F
           ------------------------------------------------- 
          |        Self-Consistent Charge Iterations        |
           ------------------------------------------------- 

          ...................................................
          :                      SETUP                      :
          :.................................................:
          :  # basis functions                 106          :
          :  # atomic orbitals                 106          :
          :  # shells                           68          :
          :  # electrons                       112          :
          :  max. iterations                   250          :
          :  Hamiltonian                  GFN2-xTB          :
          :  GBSA solvation                   true          :
          :  PC potential                    false          :
          :  electronic temp.          300.0000000     K    :
          :  accuracy                    1.0000000          :
          :  -> integral cutoff          0.2500000E+02      :
          :  -> integral neglect         0.1000000E-07      :
          :  -> SCF convergence          0.1000000E-05 Eh   :
          :  -> wf. convergence          0.1000000E-03 e    :
          :  Broyden damping             0.4000000          :
          ...................................................
  Checking positiv definite overlap ...  done.
 

 iter      E             dE          RMSdq      gap      omega  full diag
   1    -62.1481564 -0.621482E+02  0.348E+00    2.96       0.0  T
   2    -62.2129326 -0.647762E-01  0.205E+00    3.23       1.0  T
   3    -62.2083652  0.456733E-02  0.782E-01    2.90       1.0  T
   4    -62.2162426 -0.787734E-02  0.353E-01    3.06       1.0  T
   5    -62.2197303 -0.348773E-02  0.670E-02    2.97       1.0  T
   6    -62.2197478 -0.175134E-04  0.313E-02    2.98       1.0  T
   7    -62.2197550 -0.719321E-05  0.139E-02    2.97       1.0  T
   8    -62.2197575 -0.250869E-05  0.399E-03    2.97       3.6  T
   9    -62.2197578 -0.281656E-06  0.140E-03    2.97      10.2  T
  10    -62.2197578 -0.525829E-08  0.736E-04    2.97      19.4  T
  11    -62.2197578 -0.690991E-08  0.292E-04    2.97      48.9  T

   *** convergence criteria satisfied after 11 iterations ***

         #    Occupation            Energy/Eh            Energy/eV
      -------------------------------------------------------------
         1        2.0000           -0.6744015             -18.3514
       ...           ...                  ...                  ...
        50        2.0000           -0.4271569             -11.6235
        51        2.0000           -0.4253097             -11.5733
        52        2.0000           -0.4228721             -11.5069
        53        2.0000           -0.4096585             -11.1474
        54        2.0000           -0.3995056             -10.8711
        55        2.0000           -0.3890192             -10.5858
        56        2.0000           -0.3807923             -10.3619 (HOMO)
        57                         -0.2714682              -7.3870 (LUMO)
        58                         -0.2294256              -6.2430
        59                         -0.1899155              -5.1679
        60                         -0.0889278              -2.4198
        61                          0.0082396               0.2242
       ...                                ...                  ...
       106                          0.6489996              17.6602
      -------------------------------------------------------------
                  HL-Gap            0.1093241 Eh            2.9749 eV
             Fermi-level           -0.3261303 Eh           -8.8745 eV

 SCC (total)                   0 d,  0 h,  0 min,  0.074 sec
 SCC setup                      ...        0 min,  0.002 sec (  2.204%)
 Dispersion                     ...        0 min,  0.001 sec (  0.863%)
 integral evaluation            ...        0 min,  0.009 sec ( 12.112%)
 zeroth order Hamiltonian       ...        0 min,  0.000 sec (  0.016%)
 iterations                     ...        0 min,  0.051 sec ( 68.828%)
 molecular gradient             ...        0 min,  0.011 sec ( 15.361%)
 printout                       ...        0 min,  0.000 sec (  0.548%)

         :::::::::::::::::::::::::::::::::::::::::::::::::::::
         ::                     SUMMARY                     ::
         :::::::::::::::::::::::::::::::::::::::::::::::::::::
         :: total energy             -61.383220120941 Eh    ::
         :: total w/o Gsasa/hb       -61.358580366143 Eh    ::
         :: gradient norm              0.028845353047 Eh/a0 ::
         :: HOMO-LUMO gap              2.974861016022 eV    ::
         ::.................................................::
         :: SCC energy               -62.244397572530 Eh    ::
         :: -> isotropic ES            0.097856820706 Eh    ::
         :: -> anisotropic ES          0.000306560869 Eh    ::
         :: -> anisotropic XC          0.039570706938 Eh    ::
         :: -> dispersion             -0.039692721251 Eh    ::
         :: -> Gsolv                  -0.033133550102 Eh    ::
         ::    -> Gborn               -0.008493795305 Eh    ::
         ::    -> Gsasa               -0.029080583971 Eh    ::
         ::    -> Ghb                  0.000000000000 Eh    ::
         ::    -> Gshift               0.004440829173 Eh    ::
         :: repulsion energy           0.860391650292 Eh    ::
         :: add. restraining           0.000000000000 Eh    ::
         :::::::::::::::::::::::::::::::::::::::::::::::::::::

           -------------------------------------------------
          |                Property Printout                |
           -------------------------------------------------

    * Orbital Energies and Occupations

         #    Occupation            Energy/Eh            Energy/eV
      -------------------------------------------------------------
         1        2.0000           -0.6744015             -18.3514
       ...           ...                  ...                  ...
        44        2.0000           -0.4399847             -11.9726
        45        2.0000           -0.4393774             -11.9561
        46        2.0000           -0.4390157             -11.9462
        47        2.0000           -0.4371061             -11.8943
        48        2.0000           -0.4318598             -11.7515
        49        2.0000           -0.4289618             -11.6726
        50        2.0000           -0.4271569             -11.6235
        51        2.0000           -0.4253097             -11.5733
        52        2.0000           -0.4228721             -11.5069
        53        2.0000           -0.4096585             -11.1474
        54        2.0000           -0.3995056             -10.8711
        55        2.0000           -0.3890192             -10.5858
        56        2.0000           -0.3807923             -10.3619 (HOMO)
        57                         -0.2714682              -7.3870 (LUMO)
        58                         -0.2294256              -6.2430
        59                         -0.1899155              -5.1679
        60                         -0.0889278              -2.4198
        61                          0.0082396               0.2242
        62                          0.0318026               0.8654
        63                          0.0570758               1.5531
        64                          0.0815954               2.2203
        65                          0.0866949               2.3591
        66                          0.0974586               2.6520
        67                          0.1044896               2.8433
       ...                                ...                  ...
       106                          0.6489996              17.6602
      -------------------------------------------------------------
                  HL-Gap            0.1093241 Eh            2.9749 eV
             Fermi-level           -0.3261303 Eh           -8.8745 eV

     #   Z        covCN         q      C6AA      α(0)
     1   6 C      2.970     0.006    27.882     8.661
     2   6 C      2.919    -0.027    28.665     8.780
     3   6 C      2.914    -0.028    28.695     8.784
     4   6 C      2.916    -0.025    28.625     8.773
     5   6 C      2.913    -0.029    28.729     8.789
     6   6 C      2.922    -0.031    28.776     8.797
     7   6 C      2.859     0.081    26.188     8.388
     8   1 H      0.926     0.048     2.345     2.395
     9   1 H      0.925     0.038     2.480     2.463
    10   1 H      0.925     0.044     2.395     2.420
    11   7 N      1.826    -0.264    27.700     7.799
    12   6 C      3.768     0.022    20.244     6.412
    13   1 H      0.860     0.178     1.223     1.732
    14   6 C      3.802    -0.056    21.572     6.612
    15   1 H      0.924     0.008     2.927     2.676
    16   1 H      0.924     0.044     2.395     2.420
    17   1 H      0.924     0.041     2.433     2.439
    18   1 H      0.924     0.032     2.563     2.503
    19   8 O      1.608    -0.630    25.920     6.871
    20   1 H      0.924     0.007     2.936     2.680
    21   1 H      0.805     0.282     0.779     1.386
    22   8 O      1.604    -0.627    25.834     6.860
    23   1 H      0.803     0.312     0.687     1.302
    24   1 H      0.805     0.289     0.755     1.365
    25   1 H      0.801     0.311     0.691     1.306
    26   1 H      0.860     0.150     1.403     1.856
    27   1 H      0.925     0.044     2.391     2.418
    28   1 H      0.925     0.042     2.425     2.435
    29   6 C      3.800    -0.053    21.519     6.605
    30   1 H      0.924     0.034     2.528     2.487
    31   1 H      0.924     0.030     2.591     2.517
    32   7 N      2.628    -0.373    29.627     8.084
    33   6 C      3.731     0.010    20.497     6.462
    34   1 H      0.924     0.034     2.530     2.487
    35   1 H      0.924     0.036     2.500     2.473
    36   6 C      3.800    -0.069    21.818     6.650
    37   1 H      0.924     0.039     2.466     2.456
    38   1 H      0.924     0.031     2.572     2.508
    39   6 C      3.800    -0.053    21.525     6.606
    40   1 H      0.924     0.029     2.600     2.522
    41   1 H      0.924     0.031     2.576     2.510
    42   6 C      3.750    -0.101    22.498     6.765
    43   1 H      0.924     0.036     2.508     2.476
    44   1 H      0.924     0.037     2.484     2.465
    45   1 H      0.924     0.034     2.526     2.486
    46   6 C      3.750    -0.102    22.503     6.766
    47   1 H      0.924     0.034     2.525     2.485
    48   1 H      0.924     0.035     2.511     2.478
    49   1 H      0.924     0.037     2.494     2.470

 Mol. C6AA /au·bohr⁶  :      19249.153321
 Mol. C8AA /au·bohr⁸  :     418232.529742
 Mol. α(0) /au        :        212.079321


Wiberg/Mayer (AO) data.
largest (>0.10) Wiberg bond orders for each atom
          total WBO             WBO to atom ...
     1  C   3.989        C    6 1.381    C    2 1.368    C    7 1.081    C    4 0.100
     2  C   3.990        C    3 1.465    C    1 1.368    H    8 0.966    C    5 0.106
     3  C   3.991        C    2 1.465    C    4 1.423    H   27 0.970    C    6 0.105
     4  C   3.987        C    5 1.437    C    3 1.423    H   10 0.971    C    1 0.100
     5  C   3.991        C    6 1.451    C    4 1.437    H   28 0.970    C    2 0.106
     6  C   3.987        C    5 1.451    C    1 1.381    H    9 0.968    C    3 0.105
     7  C   3.967        N   11 1.836    C    1 1.081    H   20 0.941
     8  H   0.998        C    2 0.966
     9  H   0.999        C    6 0.968
    10  H   0.998        C    4 0.971
    11  N   3.076        C    7 1.836    C   12 1.022
    12  C   3.984        N   11 1.022    C   14 0.990    H   15 0.965    H   16 0.952
    13  H   0.968        N   32 0.933
    14  C   3.992        C   29 1.006    C   12 0.990    H   18 0.978    H   17 0.973
    15  H   1.000        C   12 0.965
    16  H   0.994        C   12 0.952
    17  H   0.998        C   14 0.973
    18  H   0.999        C   14 0.978
    19  O   1.800        H   21 0.918    H   23 0.853
    20  H   1.000        C    7 0.941
    21  H   0.921        O   19 0.918
    22  O   1.847        H   24 0.914    H   25 0.818
    23  H   0.903        O   19 0.853
    24  H   0.916        O   22 0.914
    25  H   0.904        O   22 0.818
    26  H   0.978        N   32 0.964
    27  H   0.998        C    3 0.970
    28  H   0.998        C    5 0.970
    29  C   3.996        C   42 1.019    C   14 1.006    H   31 0.978    H   30 0.977
    30  H   0.999        C   29 0.977
    31  H   0.999        C   29 0.978
    32  N   3.092        C   33 1.015    H   26 0.964    H   13 0.933
    33  C   3.981        N   32 1.015    C   36 1.000    H   35 0.975    H   34 0.973
    34  H   0.999        C   33 0.973
    35  H   0.998        C   33 0.975
    36  C   3.996        C   39 1.007    C   33 1.000    H   38 0.977    H   37 0.972
    37  H   0.998        C   36 0.972
    38  H   0.999        C   36 0.977
    39  C   3.997        C   46 1.019    C   36 1.007    H   41 0.978    H   40 0.978
    40  H   0.999        C   39 0.978
    41  H   0.999        C   39 0.978
    42  C   3.995        C   29 1.019    H   45 0.988    H   43 0.987    H   44 0.987
    43  H   0.999        C   42 0.987
    44  H   0.998        C   42 0.987
    45  H   0.999        C   42 0.988
    46  C   3.996        C   39 1.019    H   47 0.988    H   49 0.987    H   48 0.987
    47  H   0.999        C   46 0.988
    48  H   0.998        C   46 0.987
    49  H   0.999        C   46 0.987

molecular dipole:
                 x           y           z       tot (Debye)
 q only:       -0.794       0.114       0.969
   full:       -0.879      -0.027       0.922       3.240
molecular quadrupole (traceless):
                xx          xy          yy          xz          yz          zz
 q only:       12.545      -4.382      -1.597       7.171       2.031     -10.947
  q+dip:       14.460      -8.417      -3.262       5.435       6.059     -11.198
   full:       13.332      -7.702      -1.002       6.355       4.018     -12.330

           -------------------------------------------------
          |                Property Printout                |
           -------------------------------------------------

    * Orbital Energies and Occupations

         #    Occupation            Energy/Eh            Energy/eV
      -------------------------------------------------------------
         1        2.0000           -0.6744015             -18.3514
       ...           ...                  ...                  ...
        44        2.0000           -0.4399847             -11.9726
        45        2.0000           -0.4393774             -11.9561
        46        2.0000           -0.4390157             -11.9462
        47        2.0000           -0.4371061             -11.8943
        48        2.0000           -0.4318598             -11.7515
        49        2.0000           -0.4289618             -11.6726
        50        2.0000           -0.4271569             -11.6235
        51        2.0000           -0.4253097             -11.5733
        52        2.0000           -0.4228721             -11.5069
        53        2.0000           -0.4096585             -11.1474
        54        2.0000           -0.3995056             -10.8711
        55        2.0000           -0.3890192             -10.5858
        56        2.0000           -0.3807923             -10.3619 (HOMO)
        57                         -0.2714682              -7.3870 (LUMO)
        58                         -0.2294256              -6.2430
        59                         -0.1899155              -5.1679
        60                         -0.0889278              -2.4198
        61                          0.0082396               0.2242
        62                          0.0318026               0.8654
        63                          0.0570758               1.5531
        64                          0.0815954               2.2203
        65                          0.0866949               2.3591
        66                          0.0974586               2.6520
        67                          0.1044896               2.8433
       ...                                ...                  ...
       106                          0.6489996              17.6602
      -------------------------------------------------------------
                  HL-Gap            0.1093241 Eh            2.9749 eV
             Fermi-level           -0.3261303 Eh           -8.8745 eV

     #   Z        covCN         q      C6AA      α(0)
     1   6 C      2.970     0.006    27.882     8.661
     2   6 C      2.919    -0.027    28.665     8.780
     3   6 C      2.914    -0.028    28.695     8.784
     4   6 C      2.916    -0.025    28.625     8.773
     5   6 C      2.913    -0.029    28.729     8.789
     6   6 C      2.922    -0.031    28.776     8.797
     7   6 C      2.859     0.081    26.188     8.388
     8   1 H      0.926     0.048     2.345     2.395
     9   1 H      0.925     0.038     2.480     2.463
    10   1 H      0.925     0.044     2.395     2.420
    11   7 N      1.826    -0.264    27.700     7.799
    12   6 C      3.768     0.022    20.244     6.412
    13   1 H      0.860     0.178     1.223     1.732
    14   6 C      3.802    -0.056    21.572     6.612
    15   1 H      0.924     0.008     2.927     2.676
    16   1 H      0.924     0.044     2.395     2.420
    17   1 H      0.924     0.041     2.433     2.439
    18   1 H      0.924     0.032     2.563     2.503
    19   8 O      1.608    -0.630    25.920     6.871
    20   1 H      0.924     0.007     2.936     2.680
    21   1 H      0.805     0.282     0.779     1.386
    22   8 O      1.604    -0.627    25.834     6.860
    23   1 H      0.803     0.312     0.687     1.302
    24   1 H      0.805     0.289     0.755     1.365
    25   1 H      0.801     0.311     0.691     1.306
    26   1 H      0.860     0.150     1.403     1.856
    27   1 H      0.925     0.044     2.391     2.418
    28   1 H      0.925     0.042     2.425     2.435
    29   6 C      3.800    -0.053    21.519     6.605
    30   1 H      0.924     0.034     2.528     2.487
    31   1 H      0.924     0.030     2.591     2.517
    32   7 N      2.628    -0.373    29.627     8.084
    33   6 C      3.731     0.010    20.497     6.462
    34   1 H      0.924     0.034     2.530     2.487
    35   1 H      0.924     0.036     2.500     2.473
    36   6 C      3.800    -0.069    21.818     6.650
    37   1 H      0.924     0.039     2.466     2.456
    38   1 H      0.924     0.031     2.572     2.508
    39   6 C      3.800    -0.053    21.525     6.606
    40   1 H      0.924     0.029     2.600     2.522
    41   1 H      0.924     0.031     2.576     2.510
    42   6 C      3.750    -0.101    22.498     6.765
    43   1 H      0.924     0.036     2.508     2.476
    44   1 H      0.924     0.037     2.484     2.465
    45   1 H      0.924     0.034     2.526     2.486
    46   6 C      3.750    -0.102    22.503     6.766
    47   1 H      0.924     0.034     2.525     2.485
    48   1 H      0.924     0.035     2.511     2.478
    49   1 H      0.924     0.037     2.494     2.470

 Mol. C6AA /au·bohr⁶  :      19249.153321
 Mol. C8AA /au·bohr⁸  :     418232.529742
 Mol. α(0) /au        :        212.079321


Wiberg/Mayer (AO) data.
largest (>0.10) Wiberg bond orders for each atom
          total WBO             WBO to atom ...
     1  C   3.989        C    6 1.381    C    2 1.368    C    7 1.081    C    4 0.100
     2  C   3.990        C    3 1.465    C    1 1.368    H    8 0.966    C    5 0.106
     3  C   3.991        C    2 1.465    C    4 1.423    H   27 0.970    C    6 0.105
     4  C   3.987        C    5 1.437    C    3 1.423    H   10 0.971    C    1 0.100
     5  C   3.991        C    6 1.451    C    4 1.437    H   28 0.970    C    2 0.106
     6  C   3.987        C    5 1.451    C    1 1.381    H    9 0.968    C    3 0.105
     7  C   3.967        N   11 1.836    C    1 1.081    H   20 0.941
     8  H   0.998        C    2 0.966
     9  H   0.999        C    6 0.968
    10  H   0.998        C    4 0.971
    11  N   3.076        C    7 1.836    C   12 1.022
    12  C   3.984        N   11 1.022    C   14 0.990    H   15 0.965    H   16 0.952
    13  H   0.968        N   32 0.933
    14  C   3.992        C   29 1.006    C   12 0.990    H   18 0.978    H   17 0.973
    15  H   1.000        C   12 0.965
    16  H   0.994        C   12 0.952
    17  H   0.998        C   14 0.973
    18  H   0.999        C   14 0.978
    19  O   1.800        H   21 0.918    H   23 0.853
    20  H   1.000        C    7 0.941
    21  H   0.921        O   19 0.918
    22  O   1.847        H   24 0.914    H   25 0.818
    23  H   0.903        O   19 0.853
    24  H   0.916        O   22 0.914
    25  H   0.904        O   22 0.818
    26  H   0.978        N   32 0.964
    27  H   0.998        C    3 0.970
    28  H   0.998        C    5 0.970
    29  C   3.996        C   42 1.019    C   14 1.006    H   31 0.978    H   30 0.977
    30  H   0.999        C   29 0.977
    31  H   0.999        C   29 0.978
    32  N   3.092        C   33 1.015    H   26 0.964    H   13 0.933
    33  C   3.981        N   32 1.015    C   36 1.000    H   35 0.975    H   34 0.973
    34  H   0.999        C   33 0.973
    35  H   0.998        C   33 0.975
    36  C   3.996        C   39 1.007    C   33 1.000    H   38 0.977    H   37 0.972
    37  H   0.998        C   36 0.972
    38  H   0.999        C   36 0.977
    39  C   3.997        C   46 1.019    C   36 1.007    H   41 0.978    H   40 0.978
    40  H   0.999        C   39 0.978
    41  H   0.999        C   39 0.978
    42  C   3.995        C   29 1.019    H   45 0.988    H   43 0.987    H   44 0.987
    43  H   0.999        C   42 0.987
    44  H   0.998        C   42 0.987
    45  H   0.999        C   42 0.988
    46  C   3.996        C   39 1.019    H   47 0.988    H   49 0.987    H   48 0.987
    47  H   0.999        C   46 0.988
    48  H   0.998        C   46 0.987
    49  H   0.999        C   46 0.987

molecular dipole:
                 x           y           z       tot (Debye)
 q only:       -0.794       0.114       0.969
   full:       -0.879      -0.027       0.922       3.240
molecular quadrupole (traceless):
                xx          xy          yy          xz          yz          zz
 q only:       12.545      -4.382      -1.597       7.171       2.031     -10.947
  q+dip:       14.460      -8.417      -3.262       5.435       6.059     -11.198
   full:       13.332      -7.702      -1.002       6.355       4.018     -12.330


           -------------------------------------------------
          | TOTAL ENERGY              -61.383220120941 Eh   |
          | GRADIENT NORM               0.028845353047 Eh/α |
          | HOMO-LUMO GAP               2.974861016022 eV   |
           -------------------------------------------------

------------------------------------------------------------------------
 * finished run on 2021/03/23 at 09:10:41.648     
------------------------------------------------------------------------
 total:
 * wall-time:     0 d,  0 h,  0 min,  0.175 sec
 *  cpu-time:     0 d,  0 h,  0 min,  1.350 sec
 * ratio c/w:     7.734 speedup
 SCF:
 * wall-time:     0 d,  0 h,  0 min,  0.075 sec
 *  cpu-time:     0 d,  0 h,  0 min,  0.598 sec
 * ratio c/w:     8.019 speedup


-------------------------   --------------------
FINAL SINGLE POINT ENERGY       -61.383220120940
-------------------------   --------------------


----------------------------------------------------------------------------
                           ORCA NUMERICAL FREQUENCIES
                              (8-process run)
----------------------------------------------------------------------------

Number of atoms                ... 49
Central differences            ... used
Number of displacements        ... 294
Numerical increment            ... 5.000e-03 bohr
IR-spectrum generation         ... on
Raman-spectrum generation      ... off
Surface Crossing Hessian       ... off
List of participating nodes    ...  /tmp/slurm-scratch/freq.401/freq.hostnames

The output will be reduced. Please look at the following files:
SCF program output             ... >/tmp/slurm-scratch/freq.401/freq.lastscf
Integral program output        ... >/tmp/slurm-scratch/freq.401/freq.lastint
Gradient program output        ... >/tmp/slurm-scratch/freq.401/freq.lastgrad
Dipole moment program output   ... >/tmp/slurm-scratch/freq.401/freq.lastmom
AutoCI program output          ... >/tmp/slurm-scratch/freq.401/freq.lastautoci


         <<< Energy and Gradient at the input geometry >>>

        <<< Energy and Gradient at displaced geometries >>>
             <<<Displacing   2/coordinate 2 (+)>>>
             <<<Displacing   2/coordinate 2 (-)>>>
             <<<Displacing   1/coordinate 3 (+)>>>
             <<<Displacing   1/coordinate 2 (+)>>>
             <<<Displacing   1/coordinate 3 (-)>>>
             <<<Displacing   2/coordinate 3 (+)>>>
             <<<Displacing   1/coordinate 2 (-)>>>
             <<<Displacing   2/coordinate 3 (-)>>>
             <<<Displacing   2/coordinate 1 (+)>>>
             <<<Displacing   2/coordinate 1 (-)>>>
             <<<Displacing   3/coordinate 2 (+)>>>
             <<<Displacing   3/coordinate 1 (+)>>>
             <<<Displacing   1/coordinate 1 (+)>>>
             <<<Displacing   3/coordinate 2 (-)>>>
             <<<Displacing   3/coordinate 1 (-)>>>
             <<<Displacing   1/coordinate 1 (-)>>>
             <<<Displacing   3/coordinate 3 (+)>>>
             <<<Displacing   3/coordinate 3 (-)>>>
             <<<Displacing   4/coordinate 1 (+)>>>
             <<<Displacing   4/coordinate 2 (+)>>>
             <<<Displacing   4/coordinate 2 (-)>>>
             <<<Displacing   4/coordinate 1 (-)>>>
             <<<Displacing   4/coordinate 3 (+)>>>
             <<<Displacing   4/coordinate 3 (-)>>>
             <<<Displacing   5/coordinate 1 (+)>>>
             <<<Displacing   5/coordinate 1 (-)>>>
             <<<Displacing   6/coordinate 1 (+)>>>
             <<<Displacing   5/coordinate 2 (+)>>>
             <<<Displacing   6/coordinate 1 (-)>>>
             <<<Displacing   5/coordinate 3 (+)>>>
             <<<Displacing   5/coordinate 2 (-)>>>
             <<<Displacing   5/coordinate 3 (-)>>>
             <<<Displacing   6/coordinate 2 (+)>>>
             <<<Displacing   6/coordinate 2 (-)>>>
             <<<Displacing   6/coordinate 3 (+)>>>
             <<<Displacing   7/coordinate 1 (+)>>>
             <<<Displacing   6/coordinate 3 (-)>>>
             <<<Displacing   7/coordinate 1 (-)>>>
             <<<Displacing   7/coordinate 2 (+)>>>
             <<<Displacing   7/coordinate 2 (-)>>>
             <<<Displacing   8/coordinate 1 (+)>>>
             <<<Displacing   7/coordinate 3 (+)>>>
             <<<Displacing   8/coordinate 1 (-)>>>
             <<<Displacing   7/coordinate 3 (-)>>>
             <<<Displacing   8/coordinate 2 (+)>>>
             <<<Displacing   8/coordinate 3 (+)>>>
             <<<Displacing   8/coordinate 2 (-)>>>
             <<<Displacing   8/coordinate 3 (-)>>>
             <<<Displacing   9/coordinate 1 (+)>>>
             <<<Displacing   9/coordinate 2 (+)>>>
             <<<Displacing   9/coordinate 3 (+)>>>
             <<<Displacing   9/coordinate 1 (-)>>>
             <<<Displacing   9/coordinate 2 (-)>>>
             <<<Displacing   9/coordinate 3 (-)>>>
             <<<Displacing  10/coordinate 1 (+)>>>
             <<<Displacing  10/coordinate 1 (-)>>>
             <<<Displacing  10/coordinate 2 (+)>>>
             <<<Displacing  10/coordinate 2 (-)>>>
             <<<Displacing  10/coordinate 3 (+)>>>
             <<<Displacing  10/coordinate 3 (-)>>>
             <<<Displacing  11/coordinate 2 (+)>>>
             <<<Displacing  11/coordinate 1 (+)>>>
             <<<Displacing  11/coordinate 2 (-)>>>
             <<<Displacing  11/coordinate 1 (-)>>>
             <<<Displacing  11/coordinate 3 (+)>>>
             <<<Displacing  12/coordinate 1 (+)>>>
             <<<Displacing  12/coordinate 2 (+)>>>
             <<<Displacing  11/coordinate 3 (-)>>>
             <<<Displacing  12/coordinate 1 (-)>>>
             <<<Displacing  12/coordinate 2 (-)>>>
             <<<Displacing  12/coordinate 3 (+)>>>
             <<<Displacing  12/coordinate 3 (-)>>>
             <<<Displacing  13/coordinate 1 (+)>>>
             <<<Displacing  13/coordinate 2 (+)>>>
             <<<Displacing  13/coordinate 1 (-)>>>
             <<<Displacing  13/coordinate 2 (-)>>>
             <<<Displacing  14/coordinate 1 (+)>>>
             <<<Displacing  13/coordinate 3 (+)>>>
             <<<Displacing  14/coordinate 1 (-)>>>
             <<<Displacing  13/coordinate 3 (-)>>>
             <<<Displacing  14/coordinate 2 (+)>>>
             <<<Displacing  14/coordinate 3 (+)>>>
             <<<Displacing  14/coordinate 3 (-)>>>
             <<<Displacing  15/coordinate 1 (+)>>>
             <<<Displacing  14/coordinate 2 (-)>>>
             <<<Displacing  15/coordinate 2 (+)>>>
             <<<Displacing  15/coordinate 1 (-)>>>
             <<<Displacing  15/coordinate 2 (-)>>>
             <<<Displacing  15/coordinate 3 (+)>>>
             <<<Displacing  16/coordinate 1 (+)>>>
             <<<Displacing  15/coordinate 3 (-)>>>
             <<<Displacing  16/coordinate 1 (-)>>>
             <<<Displacing  16/coordinate 3 (+)>>>
             <<<Displacing  16/coordinate 2 (+)>>>
             <<<Displacing  16/coordinate 3 (-)>>>
             <<<Displacing  16/coordinate 2 (-)>>>
             <<<Displacing  17/coordinate 3 (+)>>>
             <<<Displacing  17/coordinate 1 (+)>>>
             <<<Displacing  17/coordinate 3 (-)>>>
             <<<Displacing  17/coordinate 2 (+)>>>
             <<<Displacing  17/coordinate 1 (-)>>>
             <<<Displacing  17/coordinate 2 (-)>>>
             <<<Displacing  18/coordinate 1 (+)>>>
             <<<Displacing  18/coordinate 1 (-)>>>
             <<<Displacing  18/coordinate 2 (+)>>>
             <<<Displacing  18/coordinate 2 (-)>>>
             <<<Displacing  18/coordinate 3 (+)>>>
             <<<Displacing  18/coordinate 3 (-)>>>
             <<<Displacing  19/coordinate 1 (+)>>>
             <<<Displacing  19/coordinate 1 (-)>>>
             <<<Displacing  19/coordinate 2 (+)>>>
             <<<Displacing  19/coordinate 2 (-)>>>
             <<<Displacing  20/coordinate 1 (+)>>>
             <<<Displacing  20/coordinate 1 (-)>>>
             <<<Displacing  20/coordinate 2 (+)>>>
             <<<Displacing  20/coordinate 3 (+)>>>
             <<<Displacing  20/coordinate 2 (-)>>>
             <<<Displacing  20/coordinate 3 (-)>>>
             <<<Displacing  19/coordinate 3 (+)>>>
             <<<Displacing  19/coordinate 3 (-)>>>
             <<<Displacing  21/coordinate 2 (+)>>>
             <<<Displacing  21/coordinate 1 (+)>>>
             <<<Displacing  21/coordinate 2 (-)>>>
             <<<Displacing  21/coordinate 1 (-)>>>
             <<<Displacing  21/coordinate 3 (+)>>>
             <<<Displacing  21/coordinate 3 (-)>>>
             <<<Displacing  22/coordinate 1 (+)>>>
             <<<Displacing  22/coordinate 1 (-)>>>
             <<<Displacing  22/coordinate 2 (+)>>>
             <<<Displacing  22/coordinate 2 (-)>>>
             <<<Displacing  23/coordinate 1 (+)>>>
             <<<Displacing  22/coordinate 3 (+)>>>
             <<<Displacing  23/coordinate 1 (-)>>>
             <<<Displacing  22/coordinate 3 (-)>>>
             <<<Displacing  23/coordinate 2 (+)>>>
             <<<Displacing  23/coordinate 3 (+)>>>
             <<<Displacing  23/coordinate 2 (-)>>>
             <<<Displacing  24/coordinate 1 (+)>>>
             <<<Displacing  23/coordinate 3 (-)>>>
             <<<Displacing  24/coordinate 1 (-)>>>
             <<<Displacing  24/coordinate 2 (+)>>>
             <<<Displacing  24/coordinate 2 (-)>>>
             <<<Displacing  24/coordinate 3 (+)>>>
             <<<Displacing  24/coordinate 3 (-)>>>
             <<<Displacing  25/coordinate 1 (+)>>>
             <<<Displacing  25/coordinate 1 (-)>>>
             <<<Displacing  25/coordinate 2 (+)>>>
             <<<Displacing  25/coordinate 2 (-)>>>
             <<<Displacing  26/coordinate 2 (+)>>>
             <<<Displacing  26/coordinate 2 (-)>>>
             <<<Displacing  26/coordinate 1 (+)>>>
             <<<Displacing  25/coordinate 3 (+)>>>
             <<<Displacing  26/coordinate 3 (+)>>>
             <<<Displacing  26/coordinate 1 (-)>>>
             <<<Displacing  25/coordinate 3 (-)>>>
             <<<Displacing  26/coordinate 3 (-)>>>
             <<<Displacing  27/coordinate 1 (+)>>>
             <<<Displacing  27/coordinate 1 (-)>>>
             <<<Displacing  27/coordinate 2 (+)>>>
             <<<Displacing  27/coordinate 2 (-)>>>
             <<<Displacing  27/coordinate 3 (+)>>>
             <<<Displacing  27/coordinate 3 (-)>>>
             <<<Displacing  28/coordinate 1 (+)>>>
             <<<Displacing  28/coordinate 1 (-)>>>
             <<<Displacing  28/coordinate 2 (+)>>>
             <<<Displacing  29/coordinate 2 (+)>>>
             <<<Displacing  29/coordinate 1 (+)>>>
             <<<Displacing  28/coordinate 2 (-)>>>
             <<<Displacing  29/coordinate 2 (-)>>>
             <<<Displacing  29/coordinate 1 (-)>>>
             <<<Displacing  28/coordinate 3 (+)>>>
             <<<Displacing  28/coordinate 3 (-)>>>
             <<<Displacing  29/coordinate 3 (+)>>>
             <<<Displacing  29/coordinate 3 (-)>>>
             <<<Displacing  30/coordinate 1 (+)>>>
             <<<Displacing  30/coordinate 1 (-)>>>
             <<<Displacing  30/coordinate 2 (+)>>>
             <<<Displacing  30/coordinate 2 (-)>>>
             <<<Displacing  31/coordinate 2 (+)>>>
             <<<Displacing  31/coordinate 2 (-)>>>
             <<<Displacing  31/coordinate 1 (+)>>>
             <<<Displacing  30/coordinate 3 (+)>>>
             <<<Displacing  31/coordinate 1 (-)>>>
             <<<Displacing  30/coordinate 3 (-)>>>
             <<<Displacing  31/coordinate 3 (+)>>>
             <<<Displacing  32/coordinate 1 (+)>>>
             <<<Displacing  31/coordinate 3 (-)>>>
             <<<Displacing  32/coordinate 1 (-)>>>
             <<<Displacing  32/coordinate 2 (+)>>>
             <<<Displacing  32/coordinate 2 (-)>>>
             <<<Displacing  32/coordinate 3 (+)>>>
             <<<Displacing  32/coordinate 3 (-)>>>
             <<<Displacing  33/coordinate 2 (+)>>>
             <<<Displacing  33/coordinate 1 (+)>>>
             <<<Displacing  33/coordinate 2 (-)>>>
             <<<Displacing  33/coordinate 1 (-)>>>
             <<<Displacing  33/coordinate 3 (+)>>>
             <<<Displacing  33/coordinate 3 (-)>>>
             <<<Displacing  34/coordinate 1 (+)>>>
             <<<Displacing  34/coordinate 2 (+)>>>
             <<<Displacing  34/coordinate 1 (-)>>>
             <<<Displacing  34/coordinate 2 (-)>>>
             <<<Displacing  34/coordinate 3 (+)>>>
             <<<Displacing  34/coordinate 3 (-)>>>
             <<<Displacing  35/coordinate 1 (+)>>>
             <<<Displacing  35/coordinate 1 (-)>>>
             <<<Displacing  35/coordinate 2 (+)>>>
             <<<Displacing  35/coordinate 2 (-)>>>
             <<<Displacing  35/coordinate 3 (+)>>>
             <<<Displacing  35/coordinate 3 (-)>>>
             <<<Displacing  36/coordinate 1 (+)>>>
             <<<Displacing  36/coordinate 1 (-)>>>
             <<<Displacing  36/coordinate 2 (+)>>>
             <<<Displacing  36/coordinate 2 (-)>>>
             <<<Displacing  36/coordinate 3 (+)>>>
             <<<Displacing  37/coordinate 1 (+)>>>
             <<<Displacing  36/coordinate 3 (-)>>>
             <<<Displacing  37/coordinate 1 (-)>>>
             <<<Displacing  37/coordinate 2 (+)>>>
             <<<Displacing  37/coordinate 2 (-)>>>
             <<<Displacing  37/coordinate 3 (+)>>>
             <<<Displacing  37/coordinate 3 (-)>>>
             <<<Displacing  38/coordinate 1 (+)>>>
             <<<Displacing  38/coordinate 1 (-)>>>
             <<<Displacing  38/coordinate 2 (+)>>>
             <<<Displacing  38/coordinate 3 (+)>>>
             <<<Displacing  38/coordinate 2 (-)>>>
             <<<Displacing  38/coordinate 3 (-)>>>
             <<<Displacing  39/coordinate 1 (+)>>>
             <<<Displacing  39/coordinate 1 (-)>>>
             <<<Displacing  39/coordinate 2 (+)>>>
             <<<Displacing  39/coordinate 2 (-)>>>
             <<<Displacing  39/coordinate 3 (+)>>>
             <<<Displacing  39/coordinate 3 (-)>>>
             <<<Displacing  40/coordinate 1 (+)>>>
             <<<Displacing  40/coordinate 1 (-)>>>
             <<<Displacing  40/coordinate 2 (+)>>>
             <<<Displacing  40/coordinate 2 (-)>>>
             <<<Displacing  40/coordinate 3 (+)>>>
             <<<Displacing  40/coordinate 3 (-)>>>
             <<<Displacing  41/coordinate 2 (+)>>>
             <<<Displacing  41/coordinate 2 (-)>>>
             <<<Displacing  41/coordinate 1 (+)>>>
             <<<Displacing  41/coordinate 1 (-)>>>
             <<<Displacing  41/coordinate 3 (+)>>>
             <<<Displacing  41/coordinate 3 (-)>>>
             <<<Displacing  42/coordinate 1 (+)>>>
             <<<Displacing  42/coordinate 1 (-)>>>
             <<<Displacing  42/coordinate 2 (+)>>>
             <<<Displacing  42/coordinate 2 (-)>>>
             <<<Displacing  42/coordinate 3 (+)>>>
             <<<Displacing  42/coordinate 3 (-)>>>
             <<<Displacing  43/coordinate 1 (+)>>>
             <<<Displacing  43/coordinate 1 (-)>>>
             <<<Displacing  43/coordinate 2 (+)>>>
             <<<Displacing  43/coordinate 2 (-)>>>
             <<<Displacing  43/coordinate 3 (+)>>>
             <<<Displacing  43/coordinate 3 (-)>>>
             <<<Displacing  44/coordinate 1 (+)>>>
             <<<Displacing  44/coordinate 1 (-)>>>
             <<<Displacing  44/coordinate 2 (+)>>>
             <<<Displacing  44/coordinate 3 (+)>>>
             <<<Displacing  44/coordinate 2 (-)>>>
             <<<Displacing  44/coordinate 3 (-)>>>
             <<<Displacing  45/coordinate 2 (+)>>>
             <<<Displacing  45/coordinate 1 (+)>>>
             <<<Displacing  45/coordinate 2 (-)>>>
             <<<Displacing  45/coordinate 1 (-)>>>
             <<<Displacing  45/coordinate 3 (+)>>>
             <<<Displacing  45/coordinate 3 (-)>>>
             <<<Displacing  46/coordinate 1 (+)>>>
             <<<Displacing  46/coordinate 1 (-)>>>
             <<<Displacing  46/coordinate 2 (+)>>>
             <<<Displacing  46/coordinate 3 (+)>>>
             <<<Displacing  46/coordinate 2 (-)>>>
             <<<Displacing  46/coordinate 3 (-)>>>
             <<<Displacing  47/coordinate 1 (+)>>>
             <<<Displacing  47/coordinate 1 (-)>>>
             <<<Displacing  47/coordinate 2 (+)>>>
             <<<Displacing  47/coordinate 3 (+)>>>
             <<<Displacing  47/coordinate 2 (-)>>>
             <<<Displacing  47/coordinate 3 (-)>>>
             <<<Displacing  48/coordinate 1 (+)>>>
             <<<Displacing  48/coordinate 1 (-)>>>
             <<<Displacing  48/coordinate 2 (+)>>>
             <<<Displacing  48/coordinate 2 (-)>>>
             <<<Displacing  48/coordinate 3 (+)>>>
             <<<Displacing  48/coordinate 3 (-)>>>
             <<<Displacing  49/coordinate 1 (+)>>>
             <<<Displacing  49/coordinate 1 (-)>>>
             <<<Displacing  49/coordinate 2 (+)>>>
             <<<Displacing  49/coordinate 2 (-)>>>
             <<<Displacing  49/coordinate 3 (+)>>>
             <<<Displacing  49/coordinate 3 (-)>>>

-----------------------
VIBRATIONAL FREQUENCIES
-----------------------

Scaling factor for frequencies =  1.000000000 (already applied!)

   0:         0.00 cm**-1
   1:         0.00 cm**-1
   2:         0.00 cm**-1
   3:         0.00 cm**-1
   4:         0.00 cm**-1
   5:         0.00 cm**-1
   6:       -30.01 cm**-1 ***imaginary mode***
   7:        25.20 cm**-1
   8:        28.14 cm**-1
   9:        33.53 cm**-1
  10:        37.12 cm**-1
  11:        46.91 cm**-1
  12:        51.36 cm**-1
  13:        64.45 cm**-1
  14:        69.47 cm**-1
  15:        71.34 cm**-1
  16:        80.60 cm**-1
  17:        89.99 cm**-1
  18:        98.91 cm**-1
  19:       111.09 cm**-1
  20:       125.16 cm**-1
  21:       130.74 cm**-1
  22:       150.80 cm**-1
  23:       161.59 cm**-1
  24:       166.51 cm**-1
  25:       187.79 cm**-1
  26:       212.10 cm**-1
  27:       219.85 cm**-1
  28:       256.86 cm**-1
  29:       268.04 cm**-1
  30:       272.83 cm**-1
  31:       275.24 cm**-1
  32:       282.46 cm**-1
  33:       299.66 cm**-1
  34:       369.42 cm**-1
  35:       381.55 cm**-1
  36:       395.26 cm**-1
  37:       414.98 cm**-1
  38:       429.00 cm**-1
  39:       440.01 cm**-1
  40:       450.19 cm**-1
  41:       472.46 cm**-1
  42:       505.81 cm**-1
  43:       509.87 cm**-1
  44:       589.30 cm**-1
  45:       623.10 cm**-1
  46:       666.60 cm**-1
  47:       670.49 cm**-1
  48:       756.07 cm**-1
  49:       766.30 cm**-1
  50:       770.31 cm**-1
  51:       791.88 cm**-1
  52:       819.14 cm**-1
  53:       822.82 cm**-1
  54:       857.89 cm**-1
  55:       876.51 cm**-1
  56:       900.85 cm**-1
  57:       915.98 cm**-1
  58:       923.98 cm**-1
  59:       930.19 cm**-1
  60:       935.82 cm**-1
  61:       939.78 cm**-1
  62:       942.48 cm**-1
  63:       950.60 cm**-1
  64:       985.08 cm**-1
  65:       993.15 cm**-1
  66:      1016.36 cm**-1
  67:      1024.24 cm**-1
  68:      1064.93 cm**-1
  69:      1067.39 cm**-1
  70:      1074.83 cm**-1
  71:      1087.96 cm**-1
  72:      1101.66 cm**-1
  73:      1106.90 cm**-1
  74:      1112.15 cm**-1
  75:      1125.66 cm**-1
  76:      1138.74 cm**-1
  77:      1144.20 cm**-1
  78:      1178.98 cm**-1
  79:      1182.85 cm**-1
  80:      1206.09 cm**-1
  81:      1210.94 cm**-1
  82:      1219.69 cm**-1
  83:      1251.92 cm**-1
  84:      1262.33 cm**-1
  85:      1267.82 cm**-1
  86:      1273.50 cm**-1
  87:      1275.41 cm**-1
  88:      1276.49 cm**-1
  89:      1281.10 cm**-1
  90:      1294.71 cm**-1
  91:      1306.68 cm**-1
  92:      1325.61 cm**-1
  93:      1337.51 cm**-1
  94:      1355.09 cm**-1
  95:      1369.17 cm**-1
  96:      1374.31 cm**-1
  97:      1424.04 cm**-1
  98:      1427.67 cm**-1
  99:      1428.77 cm**-1
 100:      1455.75 cm**-1
 101:      1469.77 cm**-1
 102:      1495.55 cm**-1
 103:      1502.60 cm**-1
 104:      1503.88 cm**-1
 105:      1505.30 cm**-1
 106:      1507.08 cm**-1
 107:      1508.19 cm**-1
 108:      1510.05 cm**-1
 109:      1511.91 cm**-1
 110:      1513.61 cm**-1
 111:      1541.70 cm**-1
 112:      1552.73 cm**-1
 113:      1562.81 cm**-1
 114:      1566.95 cm**-1
 115:      1568.46 cm**-1
 116:      1672.37 cm**-1
 117:      2809.06 cm**-1
 118:      2884.59 cm**-1
 119:      2891.04 cm**-1
 120:      2936.52 cm**-1
 121:      2938.92 cm**-1
 122:      2945.18 cm**-1
 123:      2945.71 cm**-1
 124:      2954.09 cm**-1
 125:      2958.94 cm**-1
 126:      2963.56 cm**-1
 127:      2965.41 cm**-1
 128:      2971.87 cm**-1
 129:      2972.99 cm**-1
 130:      2979.34 cm**-1
 131:      2980.24 cm**-1
 132:      2981.06 cm**-1
 133:      2985.99 cm**-1
 134:      2987.26 cm**-1
 135:      2998.73 cm**-1
 136:      2999.49 cm**-1
 137:      3050.36 cm**-1
 138:      3055.53 cm**-1
 139:      3061.76 cm**-1
 140:      3071.36 cm**-1
 141:      3082.64 cm**-1
 142:      3231.05 cm**-1
 143:      3299.54 cm**-1
 144:      3407.65 cm**-1
 145:      3583.69 cm**-1
 146:      3608.23 cm**-1


------------
NORMAL MODES
------------

These modes are the cartesian displacements weighted by the diagonal matrix
M(i,i)=1/sqrt(m[i]) where m[i] is the mass of the displaced atom
Thus, these vectors are normalized but *not* orthogonal

                  0          1          2          3          4          5    
      0       0.000000   0.000000   0.000000   0.000000   0.000000   0.000000
      1       0.000000   0.000000   0.000000   0.000000   0.000000   0.000000
      2       0.000000   0.000000   0.000000   0.000000   0.000000   0.000000
      3       0.000000   0.000000   0.000000   0.000000   0.000000   0.000000
      4       0.000000   0.000000   0.000000   0.000000   0.000000   0.000000
      5       0.000000   0.000000   0.000000   0.000000   0.000000   0.000000
      6       0.000000   0.000000   0.000000   0.000000   0.000000   0.000000
      7       0.000000   0.000000   0.000000   0.000000   0.000000   0.000000
      8       0.000000   0.000000   0.000000   0.000000   0.000000   0.000000
      9       0.000000   0.000000   0.000000   0.000000   0.000000   0.000000
     10       0.000000   0.000000   0.000000   0.000000   0.000000   0.000000
     11       0.000000   0.000000   0.000000   0.000000   0.000000   0.000000
     12       0.000000   0.000000   0.000000   0.000000   0.000000   0.000000
     13       0.000000   0.000000   0.000000   0.000000   0.000000   0.000000
     14       0.000000   0.000000   0.000000   0.000000   0.000000   0.000000
     15       0.000000   0.000000   0.000000   0.000000   0.000000   0.000000
     16       0.000000   0.000000   0.000000   0.000000   0.000000   0.000000
     17       0.000000   0.000000   0.000000   0.000000   0.000000   0.000000
     18       0.000000   0.000000   0.000000   0.000000   0.000000   0.000000
     19       0.000000   0.000000   0.000000   0.000000   0.000000   0.000000
     20       0.000000   0.000000   0.000000   0.000000   0.000000   0.000000
     21       0.000000   0.000000   0.000000   0.000000   0.000000   0.000000
     22       0.000000   0.000000   0.000000   0.000000   0.000000   0.000000
     23       0.000000   0.000000   0.000000   0.000000   0.000000   0.000000
     24       0.000000   0.000000   0.000000   0.000000   0.000000   0.000000
     25       0.000000   0.000000   0.000000   0.000000   0.000000   0.000000
     26       0.000000   0.000000   0.000000   0.000000   0.000000   0.000000
     27       0.000000   0.000000   0.000000   0.000000   0.000000   0.000000
     28       0.000000   0.000000   0.000000   0.000000   0.000000   0.000000
     29       0.000000   0.000000   0.000000   0.000000   0.000000   0.000000
     30       0.000000   0.000000   0.000000   0.000000   0.000000   0.000000
     31       0.000000   0.000000   0.000000   0.000000   0.000000   0.000000
     32       0.000000   0.000000   0.000000   0.000000   0.000000   0.000000
     33       0.000000   0.000000   0.000000   0.000000   0.000000   0.000000
     34       0.000000   0.000000   0.000000   0.000000   0.000000   0.000000
     35       0.000000   0.000000   0.000000   0.000000   0.000000   0.000000
     36       0.000000   0.000000   0.000000   0.000000   0.000000   0.000000
     37       0.000000   0.000000   0.000000   0.000000   0.000000   0.000000
     38       0.000000   0.000000   0.000000   0.000000   0.000000   0.000000
     39       0.000000   0.000000   0.000000   0.000000   0.000000   0.000000
     40       0.000000   0.000000   0.000000   0.000000   0.000000   0.000000
     41       0.000000   0.000000   0.000000   0.000000   0.000000   0.000000
     42       0.000000   0.000000   0.000000   0.000000   0.000000   0.000000
     43       0.000000   0.000000   0.000000   0.000000   0.000000   0.000000
     44       0.000000   0.000000   0.000000   0.000000   0.000000   0.000000
     45       0.000000   0.000000   0.000000   0.000000   0.000000   0.000000
     46       0.000000   0.000000   0.000000   0.000000   0.000000   0.000000
     47       0.000000   0.000000   0.000000   0.000000   0.000000   0.000000
     48       0.000000   0.000000   0.000000   0.000000   0.000000   0.000000
     49       0.000000   0.000000   0.000000   0.000000   0.000000   0.000000
     50       0.000000   0.000000   0.000000   0.000000   0.000000   0.000000
     51       0.000000   0.000000   0.000000   0.000000   0.000000   0.000000
     52       0.000000   0.000000   0.000000   0.000000   0.000000   0.000000
     53       0.000000   0.000000   0.000000   0.000000   0.000000   0.000000
     54       0.000000   0.000000   0.000000   0.000000   0.000000   0.000000
     55       0.000000   0.000000   0.000000   0.000000   0.000000   0.000000
     56       0.000000   0.000000   0.000000   0.000000   0.000000   0.000000
     57       0.000000   0.000000   0.000000   0.000000   0.000000   0.000000
     58       0.000000   0.000000   0.000000   0.000000   0.000000   0.000000
     59       0.000000   0.000000   0.000000   0.000000   0.000000   0.000000
     60       0.000000   0.000000   0.000000   0.000000   0.000000   0.000000
     61       0.000000   0.000000   0.000000   0.000000   0.000000   0.000000
     62       0.000000   0.000000   0.000000   0.000000   0.000000   0.000000
     63       0.000000   0.000000   0.000000   0.000000   0.000000   0.000000
     64       0.000000   0.000000   0.000000   0.000000   0.000000   0.000000
     65       0.000000   0.000000   0.000000   0.000000   0.000000   0.000000
     66       0.000000   0.000000   0.000000   0.000000   0.000000   0.000000
     67       0.000000   0.000000   0.000000   0.000000   0.000000   0.000000
     68       0.000000   0.000000   0.000000   0.000000   0.000000   0.000000
     69       0.000000   0.000000   0.000000   0.000000   0.000000   0.000000
     70       0.000000   0.000000   0.000000   0.000000   0.000000   0.000000
     71       0.000000   0.000000   0.000000   0.000000   0.000000   0.000000
     72       0.000000   0.000000   0.000000   0.000000   0.000000   0.000000
     73       0.000000   0.000000   0.000000   0.000000   0.000000   0.000000
     74       0.000000   0.000000   0.000000   0.000000   0.000000   0.000000
     75       0.000000   0.000000   0.000000   0.000000   0.000000   0.000000
     76       0.000000   0.000000   0.000000   0.000000   0.000000   0.000000
     77       0.000000   0.000000   0.000000   0.000000   0.000000   0.000000
     78       0.000000   0.000000   0.000000   0.000000   0.000000   0.000000
     79       0.000000   0.000000   0.000000   0.000000   0.000000   0.000000
     80       0.000000   0.000000   0.000000   0.000000   0.000000   0.000000
     81       0.000000   0.000000   0.000000   0.000000   0.000000   0.000000
     82       0.000000   0.000000   0.000000   0.000000   0.000000   0.000000
     83       0.000000   0.000000   0.000000   0.000000   0.000000   0.000000
     84       0.000000   0.000000   0.000000   0.000000   0.000000   0.000000
     85       0.000000   0.000000   0.000000   0.000000   0.000000   0.000000
     86       0.000000   0.000000   0.000000   0.000000   0.000000   0.000000
     87       0.000000   0.000000   0.000000   0.000000   0.000000   0.000000
     88       0.000000   0.000000   0.000000   0.000000   0.000000   0.000000
     89       0.000000   0.000000   0.000000   0.000000   0.000000   0.000000
     90       0.000000   0.000000   0.000000   0.000000   0.000000   0.000000
     91       0.000000   0.000000   0.000000   0.000000   0.000000   0.000000
     92       0.000000   0.000000   0.000000   0.000000   0.000000   0.000000
     93       0.000000   0.000000   0.000000   0.000000   0.000000   0.000000
     94       0.000000   0.000000   0.000000   0.000000   0.000000   0.000000
     95       0.000000   0.000000   0.000000   0.000000   0.000000   0.000000
     96       0.000000   0.000000   0.000000   0.000000   0.000000   0.000000
     97       0.000000   0.000000   0.000000   0.000000   0.000000   0.000000
     98       0.000000   0.000000   0.000000   0.000000   0.000000   0.000000
     99       0.000000   0.000000   0.000000   0.000000   0.000000   0.000000
    100       0.000000   0.000000   0.000000   0.000000   0.000000   0.000000
    101       0.000000   0.000000   0.000000   0.000000   0.000000   0.000000
    102       0.000000   0.000000   0.000000   0.000000   0.000000   0.000000
    103       0.000000   0.000000   0.000000   0.000000   0.000000   0.000000
    104       0.000000   0.000000   0.000000   0.000000   0.000000   0.000000
    105       0.000000   0.000000   0.000000   0.000000   0.000000   0.000000
    106       0.000000   0.000000   0.000000   0.000000   0.000000   0.000000
    107       0.000000   0.000000   0.000000   0.000000   0.000000   0.000000
    108       0.000000   0.000000   0.000000   0.000000   0.000000   0.000000
    109       0.000000   0.000000   0.000000   0.000000   0.000000   0.000000
    110       0.000000   0.000000   0.000000   0.000000   0.000000   0.000000
    111       0.000000   0.000000   0.000000   0.000000   0.000000   0.000000
    112       0.000000   0.000000   0.000000   0.000000   0.000000   0.000000
    113       0.000000   0.000000   0.000000   0.000000   0.000000   0.000000
    114       0.000000   0.000000   0.000000   0.000000   0.000000   0.000000
    115       0.000000   0.000000   0.000000   0.000000   0.000000   0.000000
    116       0.000000   0.000000   0.000000   0.000000   0.000000   0.000000
    117       0.000000   0.000000   0.000000   0.000000   0.000000   0.000000
    118       0.000000   0.000000   0.000000   0.000000   0.000000   0.000000
    119       0.000000   0.000000   0.000000   0.000000   0.000000   0.000000
    120       0.000000   0.000000   0.000000   0.000000   0.000000   0.000000
    121       0.000000   0.000000   0.000000   0.000000   0.000000   0.000000
    122       0.000000   0.000000   0.000000   0.000000   0.000000   0.000000
    123       0.000000   0.000000   0.000000   0.000000   0.000000   0.000000
    124       0.000000   0.000000   0.000000   0.000000   0.000000   0.000000
    125       0.000000   0.000000   0.000000   0.000000   0.000000   0.000000
    126       0.000000   0.000000   0.000000   0.000000   0.000000   0.000000
    127       0.000000   0.000000   0.000000   0.000000   0.000000   0.000000
    128       0.000000   0.000000   0.000000   0.000000   0.000000   0.000000
    129       0.000000   0.000000   0.000000   0.000000   0.000000   0.000000
    130       0.000000   0.000000   0.000000   0.000000   0.000000   0.000000
    131       0.000000   0.000000   0.000000   0.000000   0.000000   0.000000
    132       0.000000   0.000000   0.000000   0.000000   0.000000   0.000000
    133       0.000000   0.000000   0.000000   0.000000   0.000000   0.000000
    134       0.000000   0.000000   0.000000   0.000000   0.000000   0.000000
    135       0.000000   0.000000   0.000000   0.000000   0.000000   0.000000
    136       0.000000   0.000000   0.000000   0.000000   0.000000   0.000000
    137       0.000000   0.000000   0.000000   0.000000   0.000000   0.000000
    138       0.000000   0.000000   0.000000   0.000000   0.000000   0.000000
    139       0.000000   0.000000   0.000000   0.000000   0.000000   0.000000
    140       0.000000   0.000000   0.000000   0.000000   0.000000   0.000000
    141       0.000000   0.000000   0.000000   0.000000   0.000000   0.000000
    142       0.000000   0.000000   0.000000   0.000000   0.000000   0.000000
    143       0.000000   0.000000   0.000000   0.000000   0.000000   0.000000
    144       0.000000   0.000000   0.000000   0.000000   0.000000   0.000000
    145       0.000000   0.000000   0.000000   0.000000   0.000000   0.000000
    146       0.000000   0.000000   0.000000   0.000000   0.000000   0.000000
                  6          7          8          9         10         11    
      0       0.006432  -0.052556   0.095065   0.008030   0.004698  -0.009856
      1       0.000348   0.024871  -0.012361   0.024307  -0.051900   0.038656
      2       0.002896   0.045025   0.059008  -0.021677   0.012174   0.001291
      3       0.010765  -0.075040   0.089178   0.006655   0.008705   0.013836
      4      -0.005236  -0.001102   0.005571   0.064394  -0.056078  -0.027559
      5       0.007008   0.044746   0.049636  -0.037494   0.015646   0.036978
      6       0.014157  -0.094568   0.084946   0.005806   0.013296   0.034623
      7      -0.007494  -0.000771  -0.014622   0.089763  -0.109483  -0.091722
      8       0.005125   0.060257   0.061142  -0.046702   0.033169   0.045692
      9       0.013598  -0.092148   0.086305   0.006069   0.013645   0.031883
     10      -0.004917   0.023801  -0.048685   0.076882  -0.157144  -0.092453
     11      -0.000610   0.076869   0.080667  -0.040519   0.045761   0.019322
     12       0.009391  -0.070022   0.091867   0.007520   0.009081   0.008084
     13      -0.000223   0.047330  -0.061586   0.035935  -0.151329  -0.026160
     14      -0.004378   0.078323   0.088220  -0.024247   0.041262  -0.017259
     15       0.005893  -0.050431   0.096165   0.008449   0.004453  -0.012686
     16       0.002549   0.048400  -0.044196   0.008804  -0.100723   0.039454
     17      -0.002790   0.062618   0.077848  -0.014212   0.024461  -0.026865
     18       0.001014  -0.028942   0.100694   0.013164  -0.002859  -0.032908
     19       0.007679   0.031424  -0.002697   0.004812  -0.008333   0.097196
     20       0.003971   0.025201   0.051049  -0.018136   0.001778  -0.002398
     21       0.011189  -0.076759   0.087730   0.006648   0.007534   0.015727
     22      -0.007630  -0.022571   0.037754   0.075765  -0.016078  -0.025058
     23       0.011900   0.033449   0.030457  -0.041001   0.000966   0.055383
     24       0.002722  -0.033722   0.101689   0.007936   0.000344  -0.032532
     25       0.006820   0.067185  -0.054502  -0.024428  -0.095740   0.092572
     26      -0.005914   0.063381   0.084278  -0.001579   0.020592  -0.056254
     27       0.016383  -0.107336   0.082886   0.005090   0.017446   0.047983
     28      -0.006608   0.024041  -0.063547   0.097649  -0.197147  -0.142064
     29      -0.002137   0.088742   0.089317  -0.048003   0.058655   0.026459
     30       0.001279  -0.029651   0.102639   0.013531   0.000505  -0.037886
     31       0.010851   0.022417   0.014641   0.010097   0.024653   0.055539
     32       0.012798   0.002972   0.033844  -0.030181   0.003912   0.049082
     33      -0.009551  -0.003099   0.114843   0.020603  -0.013144  -0.066644
     34       0.031417   0.040764   0.026902   0.003579   0.036855   0.098184
     35       0.012249  -0.020149   0.021818  -0.032638   0.008354   0.051289
     36       0.026894   0.068227  -0.088843  -0.057100   0.021559  -0.099301
     37       0.019824   0.026428  -0.047725  -0.065648   0.137816   0.001269
     38       0.042204   0.010566  -0.058918  -0.060936  -0.054779   0.093057
     39      -0.036692   0.010785   0.057434  -0.012861   0.024173   0.037203
     40       0.058464   0.008807   0.082917   0.039624  -0.000912  -0.018223
     41       0.006737  -0.070779   0.005884  -0.031180   0.015451   0.033662
     42      -0.021411   0.018032   0.116321   0.021605  -0.019702  -0.075864
     43       0.020439   0.078809  -0.015939  -0.029232   0.070231   0.218516
     44       0.007720  -0.021785   0.046702  -0.013791  -0.015936  -0.022453
     45       0.011250  -0.015376   0.170024   0.050366  -0.048810  -0.168488
     46       0.045982   0.043588   0.043236   0.008046   0.032267   0.092146
     47       0.018976  -0.000426  -0.006480  -0.057201   0.039632   0.152918
     48       0.024407  -0.008015   0.062670  -0.002643   0.023712   0.064511
     49       0.037654  -0.029248   0.115430   0.062608  -0.025878  -0.135261
     50       0.064147  -0.066054  -0.006536  -0.034988   0.027739   0.114087
     51      -0.058655   0.020541   0.005193  -0.043066   0.059243   0.132626
     52       0.012071   0.003313   0.060554   0.026370   0.011619  -0.017688
     53      -0.073374  -0.095305   0.018124  -0.025014   0.001686  -0.081746
     54      -0.005665   0.025455  -0.157751   0.387768   0.115931   0.161830
     55       0.020863  -0.087835  -0.091791  -0.095016   0.107032   0.086970
     56       0.007622  -0.213068  -0.113128   0.200046   0.097382  -0.163296
     57      -0.004273  -0.009554   0.104018   0.018343  -0.012215  -0.048178
     58       0.014504   0.051511  -0.017150  -0.010794  -0.011419   0.181287
     59      -0.002589   0.028110   0.060031  -0.006738  -0.003049  -0.052356
     60      -0.007275   0.062150  -0.140296   0.351250   0.029990   0.205626
     61       0.015972  -0.035666  -0.078147  -0.000337   0.078325   0.174109
     62       0.008552  -0.259340  -0.140122   0.307504   0.244228  -0.207851
     63      -0.001031   0.073708  -0.109073  -0.006168  -0.091826  -0.004318
     64       0.026307  -0.072115  -0.076617  -0.137667   0.263176  -0.146442
     65       0.005906  -0.186273  -0.096106  -0.022776  -0.215225   0.001941
     66      -0.002345   0.032087  -0.143770   0.250824   0.062743   0.092698
     67       0.023869  -0.092190  -0.088893  -0.123448   0.174661  -0.017808
     68       0.006826  -0.203705  -0.105343   0.124846  -0.018293  -0.102892
     69      -0.003448   0.073090  -0.111230   0.010192  -0.139183   0.021663
     70       0.025179  -0.071517  -0.075295  -0.163491   0.196612  -0.110269
     71       0.005624  -0.185073  -0.092764  -0.072642  -0.289283   0.041940
     72       0.000802   0.080868  -0.104883  -0.021067  -0.066528  -0.012938
     73       0.025758  -0.038720  -0.065969  -0.122834   0.235734  -0.112552
     74       0.008771  -0.137782  -0.076718  -0.038967  -0.193421   0.013413
     75      -0.011027   0.143618  -0.094144  -0.025306   0.022150  -0.089869
     76       0.030038   0.075162  -0.064095  -0.070449   0.177745   0.049003
     77       0.004846  -0.007685  -0.039473  -0.032052  -0.113625   0.035622
     78       0.017224  -0.111551   0.080678   0.004762   0.017107   0.052960
     79      -0.011351  -0.020534  -0.002392   0.120827  -0.113581  -0.141797
     80       0.008002   0.059775   0.054597  -0.058846   0.036496   0.073143
     81       0.008972  -0.068042   0.092640   0.007817   0.009052   0.005896
     82       0.001518   0.065199  -0.085426   0.024817  -0.186643  -0.025218
     83      -0.008706   0.091702   0.102039  -0.019018   0.050849  -0.037895
     84      -0.117798   0.033740   0.062755  -0.020371   0.017059  -0.023054
     85       0.175403   0.036255   0.121853   0.061888  -0.020714   0.025404
     86       0.031729  -0.095906  -0.009549  -0.032384   0.026895   0.065301
     87      -0.120241   0.029700   0.108853   0.008346  -0.013800  -0.116280
     88       0.219151   0.043455   0.141144   0.073975  -0.031778   0.028362
     89       0.133900  -0.074703  -0.017728  -0.037393   0.036932   0.179050
     90      -0.176072   0.050318   0.058845  -0.030571   0.016804  -0.050903
     91       0.223334   0.067206   0.094964   0.039475  -0.000717   0.140799
     92      -0.037937  -0.098758   0.001146  -0.028877   0.016490  -0.015118
     93       0.008050   0.088979  -0.100964  -0.054770  -0.000471  -0.074165
     94       0.015120   0.031207  -0.049955  -0.064221   0.131355   0.006568
     95       0.015860  -0.016313  -0.045522  -0.044512  -0.109966   0.052870
     96       0.016405   0.039072  -0.106964  -0.083360  -0.037762  -0.040323
     97      -0.036140   0.005515  -0.032034  -0.047949   0.049329  -0.000117
     98      -0.005452   0.028640  -0.034933  -0.010720  -0.092554   0.016869
     99       0.036426  -0.008680  -0.113931  -0.113333  -0.062822  -0.015563
    100      -0.056873  -0.020086  -0.011167  -0.037078   0.000157  -0.035151
    101       0.008671   0.013809  -0.043360  -0.026908  -0.091261   0.036401
    102      -0.007152   0.037597  -0.105520  -0.078954  -0.059238  -0.016384
    103      -0.041422   0.004845  -0.031303  -0.046816   0.044376   0.004180
    104      -0.043217   0.010018  -0.010783   0.009118  -0.149835  -0.020690
    105       0.032551   0.052931  -0.109403  -0.080212  -0.016126  -0.065559
    106      -0.060908   0.004755  -0.031306  -0.046069   0.036016   0.034321
    107       0.002022   0.113680  -0.047378   0.019326  -0.004866  -0.004574
    108       0.066393   0.066716  -0.118430  -0.082297   0.005369  -0.089428
    109      -0.044175   0.010674  -0.037586  -0.049216   0.044546   0.034768
    110       0.118119   0.152825  -0.105554  -0.016957   0.045732   0.080785
    111      -0.030417   0.084289  -0.087028  -0.040840   0.009515  -0.116856
    112       0.015816   0.043536  -0.074250  -0.067722   0.080469   0.105759
    113      -0.051591   0.116334  -0.023494   0.044618  -0.006571  -0.051091
    114       0.088090   0.012554  -0.130844  -0.124780  -0.055668   0.005969
    115      -0.211572  -0.056772   0.034683  -0.014318  -0.042448  -0.023403
    116      -0.074569   0.138651  -0.016511   0.064808   0.015784  -0.079436
    117       0.144627  -0.010704  -0.152978  -0.161167  -0.077418   0.051759
    118      -0.319032  -0.085233   0.078102   0.013021  -0.080467  -0.112205
    119      -0.014025   0.136333  -0.040750   0.038684   0.017224  -0.029688
    120       0.074552  -0.008104  -0.123270  -0.128962  -0.078768   0.044029
    121      -0.226041  -0.064042   0.041119  -0.011996  -0.051253  -0.023073
    122      -0.213043   0.105097   0.041410   0.104030  -0.030355  -0.175656
    123      -0.120621   0.038540   0.014512  -0.051679   0.049516   0.073268
    124       0.174292   0.014533   0.168204   0.096456  -0.051715  -0.083198
    125       0.019321  -0.142582  -0.027715  -0.031467   0.039428   0.055395
    126      -0.088220   0.019950   0.017741  -0.044368   0.049736   0.088672
    127       0.147523  -0.011736   0.195342   0.120158  -0.071280  -0.187207
    128       0.060388  -0.144896  -0.038739  -0.037354   0.049504   0.121118
    129      -0.153685   0.056720   0.019993  -0.053595   0.043368   0.039928
    130       0.225441   0.029640   0.191740   0.107988  -0.065096  -0.065089
    131       0.029114  -0.159501  -0.037887  -0.033177   0.047365   0.074207
    132      -0.122284   0.042025  -0.029208  -0.080052   0.079107   0.162399
    133       0.150222   0.010230   0.151370   0.086688  -0.041573  -0.078137
    134      -0.039989  -0.157612  -0.019443  -0.023173   0.030673  -0.035929
    135       0.091607   0.032523  -0.133728  -0.116112  -0.034964  -0.030771
    136      -0.209996  -0.071300   0.035577  -0.021883  -0.056327   0.033315
    137      -0.048121   0.205932  -0.030152   0.090999   0.090778  -0.092665
[...]
  28:       256.86    0.000000  (  0.000000   0.000000   0.000000)
  29:       268.04    0.000000  (  0.000000   0.000000   0.000000)
  30:       272.83    0.000000  (  0.000000   0.000000   0.000000)
  31:       275.24    0.000000  (  0.000000   0.000000   0.000000)
  32:       282.46    0.000000  (  0.000000   0.000000   0.000000)
  33:       299.66    0.000000  (  0.000000   0.000000   0.000000)
  34:       369.42    0.000000  (  0.000000   0.000000   0.000000)
  35:       381.55    0.000000  (  0.000000   0.000000   0.000000)
  36:       395.26    0.000000  (  0.000000   0.000000   0.000000)
  37:       414.98    0.000000  (  0.000000   0.000000   0.000000)
  38:       429.00    0.000000  (  0.000000   0.000000   0.000000)
  39:       440.01    0.000000  (  0.000000   0.000000   0.000000)
  40:       450.19    0.000000  (  0.000000   0.000000   0.000000)
  41:       472.46    0.000000  (  0.000000   0.000000   0.000000)
  42:       505.81    0.000000  (  0.000000   0.000000   0.000000)
  43:       509.87    0.000000  (  0.000000   0.000000   0.000000)
  44:       589.30    0.000000  (  0.000000   0.000000   0.000000)
  45:       623.10    0.000000  (  0.000000   0.000000   0.000000)
  46:       666.60    0.000000  (  0.000000   0.000000   0.000000)
  47:       670.49    0.000000  (  0.000000   0.000000   0.000000)
  48:       756.07    0.000000  (  0.000000   0.000000   0.000000)
  49:       766.30    0.000000  (  0.000000   0.000000   0.000000)
  50:       770.31    0.000000  (  0.000000   0.000000   0.000000)
  51:       791.88    0.000000  (  0.000000   0.000000   0.000000)
  52:       819.14    0.000000  (  0.000000   0.000000   0.000000)
  53:       822.82    0.000000  (  0.000000   0.000000   0.000000)
  54:       857.89    0.000000  (  0.000000   0.000000   0.000000)
  55:       876.51    0.000000  (  0.000000   0.000000   0.000000)
  56:       900.85    0.000000  (  0.000000   0.000000   0.000000)
  57:       915.98    0.000000  (  0.000000   0.000000   0.000000)
  58:       923.98    0.000000  (  0.000000   0.000000   0.000000)
  59:       930.19    0.000000  (  0.000000   0.000000   0.000000)
  60:       935.82    0.000000  (  0.000000   0.000000   0.000000)
  61:       939.78    0.000000  (  0.000000   0.000000   0.000000)
  62:       942.48    0.000000  (  0.000000   0.000000   0.000000)
  63:       950.60    0.000000  (  0.000000   0.000000   0.000000)
  64:       985.08    0.000000  (  0.000000   0.000000   0.000000)
  65:       993.15    0.000000  (  0.000000   0.000000   0.000000)
  66:      1016.36    0.000000  (  0.000000   0.000000   0.000000)
  67:      1024.24    0.000000  (  0.000000   0.000000   0.000000)
  68:      1064.93    0.000000  (  0.000000   0.000000   0.000000)
  69:      1067.39    0.000000  (  0.000000   0.000000   0.000000)
  70:      1074.83    0.000000  (  0.000000   0.000000   0.000000)
  71:      1087.96    0.000000  (  0.000000   0.000000   0.000000)
  72:      1101.66    0.000000  (  0.000000   0.000000   0.000000)
  73:      1106.90    0.000000  (  0.000000   0.000000   0.000000)
  74:      1112.15    0.000000  (  0.000000   0.000000   0.000000)
  75:      1125.66    0.000000  (  0.000000   0.000000   0.000000)
  76:      1138.74    0.000000  (  0.000000   0.000000   0.000000)
  77:      1144.20    0.000000  (  0.000000   0.000000   0.000000)
  78:      1178.98    0.000000  (  0.000000   0.000000   0.000000)
  79:      1182.85    0.000000  (  0.000000   0.000000   0.000000)
  80:      1206.09    0.000000  (  0.000000   0.000000   0.000000)
  81:      1210.94    0.000000  (  0.000000   0.000000   0.000000)
  82:      1219.69    0.000000  (  0.000000   0.000000   0.000000)
  83:      1251.92    0.000000  (  0.000000   0.000000   0.000000)
  84:      1262.33    0.000000  (  0.000000   0.000000   0.000000)
  85:      1267.82    0.000000  (  0.000000   0.000000   0.000000)
  86:      1273.50    0.000000  (  0.000000   0.000000   0.000000)
  87:      1275.41    0.000000  (  0.000000   0.000000   0.000000)
  88:      1276.49    0.000000  (  0.000000   0.000000   0.000000)
  89:      1281.10    0.000000  (  0.000000   0.000000   0.000000)
  90:      1294.71    0.000000  (  0.000000   0.000000   0.000000)
  91:      1306.68    0.000000  (  0.000000   0.000000   0.000000)
  92:      1325.61    0.000000  (  0.000000   0.000000   0.000000)
  93:      1337.51    0.000000  (  0.000000   0.000000   0.000000)
  94:      1355.09    0.000000  (  0.000000   0.000000   0.000000)
  95:      1369.17    0.000000  (  0.000000   0.000000   0.000000)
  96:      1374.31    0.000000  (  0.000000   0.000000   0.000000)
  97:      1424.04    0.000000  (  0.000000   0.000000   0.000000)
  98:      1427.67    0.000000  (  0.000000   0.000000   0.000000)
  99:      1428.77    0.000000  (  0.000000   0.000000   0.000000)
 100:      1455.75    0.000000  (  0.000000   0.000000   0.000000)
 101:      1469.77    0.000000  (  0.000000   0.000000   0.000000)
 102:      1495.55    0.000000  (  0.000000   0.000000   0.000000)
 103:      1502.60    0.000000  (  0.000000   0.000000   0.000000)
 104:      1503.88    0.000000  (  0.000000   0.000000   0.000000)
 105:      1505.30    0.000000  (  0.000000   0.000000   0.000000)
 106:      1507.08    0.000000  (  0.000000   0.000000   0.000000)
 107:      1508.19    0.000000  (  0.000000   0.000000   0.000000)
 108:      1510.05    0.000000  (  0.000000   0.000000   0.000000)
 109:      1511.91    0.000000  (  0.000000   0.000000   0.000000)
 110:      1513.61    0.000000  (  0.000000   0.000000   0.000000)
 111:      1541.70    0.000000  (  0.000000   0.000000   0.000000)
 112:      1552.73    0.000000  (  0.000000   0.000000   0.000000)
 113:      1562.81    0.000000  (  0.000000   0.000000   0.000000)
 114:      1566.95    0.000000  (  0.000000   0.000000   0.000000)
 115:      1568.46    0.000000  (  0.000000   0.000000   0.000000)
 116:      1672.37    0.000000  (  0.000000   0.000000   0.000000)
 117:      2809.06    0.000000  (  0.000000   0.000000   0.000000)
 118:      2884.59    0.000000  (  0.000000   0.000000   0.000000)
 119:      2891.04    0.000000  (  0.000000   0.000000   0.000000)
 120:      2936.52    0.000000  (  0.000000   0.000000   0.000000)
 121:      2938.92    0.000000  (  0.000000   0.000000   0.000000)
 122:      2945.18    0.000000  (  0.000000   0.000000   0.000000)
 123:      2945.71    0.000000  (  0.000000   0.000000   0.000000)
 124:      2954.09    0.000000  (  0.000000   0.000000   0.000000)
 125:      2958.94    0.000000  (  0.000000   0.000000   0.000000)
 126:      2963.56    0.000000  (  0.000000   0.000000   0.000000)
 127:      2965.41    0.000000  (  0.000000   0.000000   0.000000)
 128:      2971.87    0.000000  (  0.000000   0.000000   0.000000)
 129:      2972.99    0.000000  (  0.000000   0.000000   0.000000)
 130:      2979.34    0.000000  (  0.000000   0.000000   0.000000)
 131:      2980.24    0.000000  (  0.000000   0.000000   0.000000)
 132:      2981.06    0.000000  (  0.000000   0.000000   0.000000)
 133:      2985.99    0.000000  (  0.000000   0.000000   0.000000)
 134:      2987.26    0.000000  (  0.000000   0.000000   0.000000)
 135:      2998.73    0.000000  (  0.000000   0.000000   0.000000)
 136:      2999.49    0.000000  (  0.000000   0.000000   0.000000)
 137:      3050.36    0.000000  (  0.000000   0.000000   0.000000)
 138:      3055.53    0.000000  (  0.000000   0.000000   0.000000)
 139:      3061.76    0.000000  (  0.000000   0.000000   0.000000)
 140:      3071.36    0.000000  (  0.000000   0.000000   0.000000)
 141:      3082.64    0.000000  (  0.000000   0.000000   0.000000)
 142:      3231.05    0.000000  (  0.000000   0.000000   0.000000)
 143:      3299.54    0.000000  (  0.000000   0.000000   0.000000)
 144:      3407.65    0.000000  (  0.000000   0.000000   0.000000)
 145:      3583.69    0.000000  (  0.000000   0.000000   0.000000)
 146:      3608.23    0.000000  (  0.000000   0.000000   0.000000)

The first frequency considered to be a vibration is 7
The total number of vibrations considered is 140


--------------------------
THERMOCHEMISTRY AT 298.15K
--------------------------

Temperature         ... 298.15 K
Pressure            ... 1.00 atm
Total Mass          ... 270.42 AMU

Throughout the following assumptions are being made:
  (1) The electronic state is orbitally nondegenerate
  (2) There are no thermally accessible electronically excited states
  (3) Hindered rotations indicated by low frequency modes are not
      treated as such but are treated as vibrations and this may
      cause some error
  (4) All equations used are the standard statistical mechanics
      equations for an ideal gas
  (5) All vibrations are strictly harmonic

freq.      25.20  E(vib)   ...       0.56 
freq.      28.14  E(vib)   ...       0.55 
freq.      33.53  E(vib)   ...       0.55 
freq.      37.12  E(vib)   ...       0.54 
freq.      46.91  E(vib)   ...       0.53 
freq.      51.36  E(vib)   ...       0.52 
freq.      64.45  E(vib)   ...       0.51 
freq.      69.47  E(vib)   ...       0.50 
freq.      71.34  E(vib)   ...       0.50 
freq.      80.60  E(vib)   ...       0.48 
freq.      89.99  E(vib)   ...       0.47 
freq.      98.91  E(vib)   ...       0.46 
freq.     111.09  E(vib)   ...       0.45 
freq.     125.16  E(vib)   ...       0.43 
freq.     130.74  E(vib)   ...       0.43 
freq.     150.80  E(vib)   ...       0.40 
freq.     161.59  E(vib)   ...       0.39 
freq.     166.51  E(vib)   ...       0.39 
freq.     187.79  E(vib)   ...       0.36 
freq.     212.10  E(vib)   ...       0.34 
freq.     219.85  E(vib)   ...       0.33 
freq.     256.86  E(vib)   ...       0.30 
freq.     268.04  E(vib)   ...       0.29 
freq.     272.83  E(vib)   ...       0.29 
freq.     275.24  E(vib)   ...       0.28 
freq.     282.46  E(vib)   ...       0.28 
freq.     299.66  E(vib)   ...       0.26 
freq.     369.42  E(vib)   ...       0.21 
freq.     381.55  E(vib)   ...       0.21 
freq.     395.26  E(vib)   ...       0.20 
freq.     414.98  E(vib)   ...       0.19 
freq.     429.00  E(vib)   ...       0.18 
freq.     440.01  E(vib)   ...       0.17 
freq.     450.19  E(vib)   ...       0.17 
freq.     472.46  E(vib)   ...       0.15 
freq.     505.81  E(vib)   ...       0.14 
freq.     509.87  E(vib)   ...       0.14 
freq.     589.30  E(vib)   ...       0.10 
freq.     623.10  E(vib)   ...       0.09 
freq.     666.60  E(vib)   ...       0.08 
freq.     670.49  E(vib)   ...       0.08 
freq.     756.07  E(vib)   ...       0.06 
freq.     766.30  E(vib)   ...       0.06 
freq.     770.31  E(vib)   ...       0.05 
freq.     791.88  E(vib)   ...       0.05 
freq.     819.14  E(vib)   ...       0.05 
freq.     822.82  E(vib)   ...       0.05 
freq.     857.89  E(vib)   ...       0.04 
freq.     876.51  E(vib)   ...       0.04 
freq.     900.85  E(vib)   ...       0.03 
freq.     915.98  E(vib)   ...       0.03 
freq.     923.98  E(vib)   ...       0.03 
freq.     930.19  E(vib)   ...       0.03 
freq.     935.82  E(vib)   ...       0.03 
freq.     939.78  E(vib)   ...       0.03 
freq.     942.48  E(vib)   ...       0.03 
freq.     950.60  E(vib)   ...       0.03 
freq.     985.08  E(vib)   ...       0.02 
freq.     993.15  E(vib)   ...       0.02 
freq.    1016.36  E(vib)   ...       0.02 
freq.    1024.24  E(vib)   ...       0.02 
freq.    1064.93  E(vib)   ...       0.02 
freq.    1067.39  E(vib)   ...       0.02 
freq.    1074.83  E(vib)   ...       0.02 
freq.    1087.96  E(vib)   ...       0.02 
freq.    1101.66  E(vib)   ...       0.02 
freq.    1106.90  E(vib)   ...       0.02 
freq.    1112.15  E(vib)   ...       0.01 
freq.    1125.66  E(vib)   ...       0.01 
freq.    1138.74  E(vib)   ...       0.01 
freq.    1144.20  E(vib)   ...       0.01 
freq.    1178.98  E(vib)   ...       0.01 
freq.    1182.85  E(vib)   ...       0.01 
freq.    1206.09  E(vib)   ...       0.01 
freq.    1210.94  E(vib)   ...       0.01 
freq.    1219.69  E(vib)   ...       0.01 
freq.    1251.92  E(vib)   ...       0.01 
freq.    1262.33  E(vib)   ...       0.01 
freq.    1267.82  E(vib)   ...       0.01 
freq.    1273.50  E(vib)   ...       0.01 
freq.    1275.41  E(vib)   ...       0.01 
freq.    1276.49  E(vib)   ...       0.01 
freq.    1281.10  E(vib)   ...       0.01 
freq.    1294.71  E(vib)   ...       0.01 
freq.    1306.68  E(vib)   ...       0.01 
freq.    1325.61  E(vib)   ...       0.01 
freq.    1337.51  E(vib)   ...       0.01 
freq.    1355.09  E(vib)   ...       0.01 
freq.    1369.17  E(vib)   ...       0.01 
freq.    1374.31  E(vib)   ...       0.01 
freq.    1424.04  E(vib)   ...       0.00 
freq.    1427.67  E(vib)   ...       0.00 
freq.    1428.77  E(vib)   ...       0.00 
freq.    1455.75  E(vib)   ...       0.00 
freq.    1469.77  E(vib)   ...       0.00 
freq.    1495.55  E(vib)   ...       0.00 
freq.    1502.60  E(vib)   ...       0.00 
freq.    1503.88  E(vib)   ...       0.00 
freq.    1505.30  E(vib)   ...       0.00 
freq.    1507.08  E(vib)   ...       0.00 
freq.    1508.19  E(vib)   ...       0.00 
freq.    1510.05  E(vib)   ...       0.00 
freq.    1511.91  E(vib)   ...       0.00 
freq.    1513.61  E(vib)   ...       0.00 
freq.    1541.70  E(vib)   ...       0.00 
freq.    1552.73  E(vib)   ...       0.00 
freq.    1562.81  E(vib)   ...       0.00 
freq.    1566.95  E(vib)   ...       0.00 
freq.    1568.46  E(vib)   ...       0.00 
freq.    1672.37  E(vib)   ...       0.00 
freq.    2809.06  E(vib)   ...       0.00 
freq.    2884.59  E(vib)   ...       0.00 
freq.    2891.04  E(vib)   ...       0.00 
freq.    2936.52  E(vib)   ...       0.00 
freq.    2938.92  E(vib)   ...       0.00 
freq.    2945.18  E(vib)   ...       0.00 
freq.    2945.71  E(vib)   ...       0.00 
freq.    2954.09  E(vib)   ...       0.00 
freq.    2958.94  E(vib)   ...       0.00 
freq.    2963.56  E(vib)   ...       0.00 
freq.    2965.41  E(vib)   ...       0.00 
freq.    2971.87  E(vib)   ...       0.00 
freq.    2972.99  E(vib)   ...       0.00 
freq.    2979.34  E(vib)   ...       0.00 
freq.    2980.24  E(vib)   ...       0.00 
freq.    2981.06  E(vib)   ...       0.00 
freq.    2985.99  E(vib)   ...       0.00 
freq.    2987.26  E(vib)   ...       0.00 
freq.    2998.73  E(vib)   ...       0.00 
freq.    2999.49  E(vib)   ...       0.00 
freq.    3050.36  E(vib)   ...       0.00 
freq.    3055.53  E(vib)   ...       0.00 
freq.    3061.76  E(vib)   ...       0.00 
freq.    3071.36  E(vib)   ...       0.00 
freq.    3082.64  E(vib)   ...       0.00 
freq.    3231.05  E(vib)   ...       0.00 
freq.    3299.54  E(vib)   ...       0.00 
freq.    3407.65  E(vib)   ...       0.00 
freq.    3583.69  E(vib)   ...       0.00 
freq.    3608.23  E(vib)   ...       0.00 

------------
INNER ENERGY
------------

The inner energy is: U= E(el) + E(ZPE) + E(vib) + E(rot) + E(trans)
    E(el)   - is the total energy from the electronic structure calculation
              = E(kin-el) + E(nuc-el) + E(el-el) + E(nuc-nuc)
    E(ZPE)  - the the zero temperature vibrational energy from the frequency calculation
    E(vib)  - the the finite temperature correction to E(ZPE) due to population
              of excited vibrational states
    E(rot)  - is the rotational thermal energy
    E(trans)- is the translational thermal energy

Summary of contributions to the inner energy U:
Electronic energy                ...    -61.38322012 Eh
Zero point energy                ...      0.42296654 Eh     265.41 kcal/mol
Thermal vibrational correction   ...      0.02322556 Eh      14.57 kcal/mol
Thermal rotational correction    ...      0.00141627 Eh       0.89 kcal/mol
Thermal translational correction ...      0.00141627 Eh       0.89 kcal/mol
-----------------------------------------------------------------------
Total thermal energy                    -60.93419549 Eh


Summary of corrections to the electronic energy:
(perhaps to be used in another calculation)
Total thermal correction                  0.02605810 Eh      16.35 kcal/mol
Non-thermal (ZPE) correction              0.42296654 Eh     265.41 kcal/mol
-----------------------------------------------------------------------
Total correction                          0.44902464 Eh     281.77 kcal/mol


--------
ENTHALPY
--------

The enthalpy is H = U + kB*T
                kB is Boltzmann's constant
Total free energy                 ...    -60.93419549 Eh 
Thermal Enthalpy correction       ...      0.00094421 Eh       0.59 kcal/mol
-----------------------------------------------------------------------
Total Enthalpy                    ...    -60.93325128 Eh


Note: Only C1 symmetry has been detected, increase convergence thresholds 
      if your molecule has a higher symmetry. Symmetry factor of 1.0 is   
      used for the rotational entropy correction. 
 

Note: Rotational entropy computed according to Herzberg 
Infrared and Raman Spectra, Chapter V,1, Van Nostrand Reinhold, 1945 
Point Group:  C1, Symmetry Number:   1  
Rotational constants in cm-1:     0.013669     0.005679     0.004868 

Vibrational entropy computed according to the QRRHO of S. Grimme
Chem.Eur.J. 2012 18 9955


-------
ENTROPY
-------

The entropy contributions are T*S = T*(S(el)+S(vib)+S(rot)+S(trans))
     S(el)   - electronic entropy
     S(vib)  - vibrational entropy
     S(rot)  - rotational entropy
     S(trans)- translational entropy
The entropies will be listed as mutliplied by the temperature to get
units of energy

Electronic entropy                ...      0.00000000 Eh      0.00 kcal/mol
Vibrational entropy               ...      0.04274084 Eh     26.82 kcal/mol
Rotational entropy                ...      0.01649238 Eh     10.35 kcal/mol
Translational entropy             ...      0.02028014 Eh     12.73 kcal/mol
-----------------------------------------------------------------------
Final entropy term                ...      0.07951336 Eh     49.90 kcal/mol

In case the symmetry of your molecule has not been determined correctly
or in case you have a reason to use a different symmetry number we print 
out the resulting rotational entropy values for sn=1,12 :
 --------------------------------------------------------
|  sn= 1 | S(rot)=       0.01649238 Eh     10.35 kcal/mol|
|  sn= 2 | S(rot)=       0.01583792 Eh      9.94 kcal/mol|
|  sn= 3 | S(rot)=       0.01545509 Eh      9.70 kcal/mol|
|  sn= 4 | S(rot)=       0.01518346 Eh      9.53 kcal/mol|
|  sn= 5 | S(rot)=       0.01497278 Eh      9.40 kcal/mol|
|  sn= 6 | S(rot)=       0.01480063 Eh      9.29 kcal/mol|
|  sn= 7 | S(rot)=       0.01465509 Eh      9.20 kcal/mol|
|  sn= 8 | S(rot)=       0.01452901 Eh      9.12 kcal/mol|
|  sn= 9 | S(rot)=       0.01441780 Eh      9.05 kcal/mol|
|  sn=10 | S(rot)=       0.01431832 Eh      8.98 kcal/mol|
|  sn=11 | S(rot)=       0.01422833 Eh      8.93 kcal/mol|
|  sn=12 | S(rot)=       0.01414618 Eh      8.88 kcal/mol|
 --------------------------------------------------------


-------------------
GIBBS FREE ENERGY
-------------------

The Gibbs free energy is G = H - T*S

Total enthalpy                    ...    -60.93325128 Eh 
Total entropy correction          ...     -0.07951336 Eh    -49.90 kcal/mol
-----------------------------------------------------------------------
Final Gibbs free energy         ...    -61.01276464 Eh

For completeness - the Gibbs free energy minus the electronic energy
G-E(el)                           ...      0.37045548 Eh    232.46 kcal/mol


Total Time for Numerical Frequencies  :       169.849 sec
Time for Reference State(s)           :         0.267 sec
Time for Displacements                :       147.522 sec

Timings for individual modules:

Sum of individual times         ...        0.473 sec (=   0.008 min)
XTB module                      ...        0.473 sec (=   0.008 min) 100.0 %
                             ****ORCA TERMINATED NORMALLY****
TOTAL RUN TIME: 0 days 0 hours 2 minutes 50 seconds 634 msec
(SLURM) EXECUTION TIME: 170.664753491 seconds.
