(SLURM) JOB ID:         184

                                 *****************
                                 * O   R   C   A *
                                 *****************

           --- An Ab Initio, DFT and Semiempirical electronic structure package ---

                  #######################################################
                  #                        -***-                        #
                  #          Department of theory and spectroscopy      #
                  #               Directorship: Frank Neese             #
                  #        Max Planck Institute fuer Kohlenforschung    #
                  #                Kaiser Wilhelm Platz 1               #
                  #                 D-45470 Muelheim/Ruhr               #
                  #                      Germany                        #
                  #                                                     #
                  #                  All rights reserved                #
                  #                        -***-                        #
                  #######################################################


                         Program Version 4.2.1 -  RELEASE  -


 With contributions from (in alphabetic order):
   Daniel Aravena         : Magnetic Suceptibility
   Michael Atanasov       : Ab Initio Ligand Field Theory (pilot matlab implementation)
   Alexander A. Auer      : GIAO ZORA, VPT2
   Ute Becker             : Parallelization
   Giovanni Bistoni       : ED, misc. LED, open-shell LED, HFLD
   Martin Brehm           : Molecular dynamics
   Dmytro Bykov           : SCF Hessian
   Vijay G. Chilkuri      : MRCI spin determinant printing, contributions to CSF-ICE
   Dipayan Datta          : RHF DLPNO-CCSD density
   Achintya Kumar Dutta   : EOM-CC, STEOM-CC
   Dmitry Ganyushin       : Spin-Orbit,Spin-Spin,Magnetic field MRCI
   Miquel Garcia          : C-PCM Hessian, Gaussian charge scheme
   Yang Guo               : DLPNO-NEVPT2, CIM, IAO-localization
   Andreas Hansen         : Spin unrestricted coupled pair/coupled cluster methods
   Benjamin Helmich-Paris : CASSCF linear response (MC-RPA)
   Lee Huntington         : MR-EOM, pCC
   Robert Izsak           : Overlap fitted RIJCOSX, COSX-SCS-MP3, EOM
   Christian Kollmar      : KDIIS, OOCD, Brueckner-CCSD(T), CCSD density
   Simone Kossmann        : Meta GGA functionals, TD-DFT gradient, OOMP2, MP2 Hessian
   Martin Krupicka        : AUTO-CI
   Lucas Lang             : DCDCAS
   Dagmar Lenk            : GEPOL surface, SMD
   Dimitrios Liakos       : Extrapolation schemes; Compound Job, initial MDCI parallelization
   Dimitrios Manganas     : Further ROCIS development; embedding schemes
   Dimitrios Pantazis     : SARC Basis sets
   Taras Petrenko         : DFT Hessian,TD-DFT gradient, ASA, ECA, R-Raman, ABS, FL, XAS/XES, NRVS
   Peter Pinski           : DLPNO-MP2, DLPNO-MP2 Gradient
   Christoph Reimann      : Effective Core Potentials
   Marius Retegan         : Local ZFS, SOC
   Christoph Riplinger    : Optimizer, TS searches, QM/MM, DLPNO-CCSD(T), (RO)-DLPNO pert. Triples
   Tobias Risthaus        : Range-separated hybrids, TD-DFT gradient, RPA, STAB
   Michael Roemelt        : Original ROCIS implementation
   Masaaki Saitow         : Open-shell DLPNO-CCSD energy and density
   Barbara Sandhoefer     : DKH picture change effects
   Avijit Sen             : IP-ROCIS
   Kantharuban Sivalingam : CASSCF convergence, NEVPT2, FIC-MRCI
   Bernardo de Souza      : ESD, SOC TD-DFT
   Georgi Stoychev        : AutoAux, RI-MP2 NMR
   Willem Van den Heuvel  : Paramagnetic NMR
   Boris Wezisla          : Elementary symmetry handling
   Frank Wennmohs         : Technical directorship


 We gratefully acknowledge several colleagues who have allowed us to
 interface, adapt or use parts of their codes:
   Stefan Grimme, W. Hujo, H. Kruse,             : VdW corrections, initial TS optimization,
                  C. Bannwarth                     DFT functionals, gCP, sTDA/sTD-DF
   Ed Valeev, F. Pavosevic, A. Kumar             : LibInt (2-el integral package), F12 methods
   Garnet Chan, S. Sharma, J. Yang, R. Olivares  : DMRG
   Ulf Ekstrom                                   : XCFun DFT Library
   Mihaly Kallay                                 : mrcc  (arbitrary order and MRCC methods)
   Andreas Klamt, Michael Diedenhofen            : otool_cosmo (COSMO solvation model)
   Jiri Pittner, Ondrej Demel                    : Mk-CCSD
   Frank Weinhold                                : gennbo (NPA and NBO analysis)
   Christopher J. Cramer and Donald G. Truhlar   : smd solvation model
   Lars Goerigk                                  : TD-DFT with DH, B97 family of functionals
   V. Asgeirsson, H. Jonsson                     : NEB implementation
   FAccTs GmbH                                   : IRC, NEB, NEB-TS, Multilevel, MM, QM/MM, CI optimization
   S Lehtola, MJT Oliveira, MAL Marques          : LibXC Library


 Your calculation uses the libint2 library for the computation of 2-el integrals
 For citations please refer to: http://libint.valeyev.net

 Your ORCA version has been built with support for libXC version: 4.2.3
 For citations please refer to: https://tddft.org/programs/libxc/

 This ORCA versions uses:
   CBLAS   interface :  Fast vector & matrix operations
   LAPACKE interface :  Fast linear algebra routines
   SCALAPACK package :  Parallel linear algebra routines




***************************************
The coordinates will be read from file: init.xyz
***************************************


Your calculation utilizes the SMD solvation module
Please cite in your paper:
A.V. Marenich, C.J. Cramer, D.G. Truhlar J. Phys. Chem. B, 113, (2009), 6378 

Your calculation utilizes the semiempirical GFN2-xTB method
Please cite in your paper:
C. Bannwarth, Ehlert S., S. Grimme,  J. Chem. Theory Comput., 15, (2019), 1652.
   

----- Orbital basis set information -----
Your calculation utilizes the basis: def2-SVP
   F. Weigend and R. Ahlrichs, Phys. Chem. Chem. Phys. 7, 3297 (2005).

================================================================================
                                        WARNINGS
                       Please study these warnings very carefully!
================================================================================

WARNING: Gradients needed for Numerical Frequencies
  ===> : Setting RunTyp to EnGrad

WARNING: The environment variable RSH_COMMAND is not set!
  ===> : All Displacements for the Numerical Hessian calculation
         will be started on localhost

WARNING: Found dipole moment calculation with XTB calculation
  ===> : Switching off dipole moment calculation


INFO   : the flag for use of LIBINT has been found!

================================================================================
                                       INPUT FILE
================================================================================
NAME = /tmp/slurm-scratch/freq.184/freq.inp
|  1> ! XTB2 NumFreq
|  2> %maxcore 1450
|  3> 
|  4> * xyzfile 0 1 init.xyz
|  5> 
|  6> %cpcm
|  7>  smd true
|  8>  smdsolvent "ch2cl2"
|  9> end
| 10> %pal nprocs 8 end
| 11> 
| 12>                          ****END OF INPUT****
================================================================================

                     *******************************
                     * Energy+Gradient Calculation *
                     *******************************

      -----------------------------------------------------------      
     |                   =====================                   |     
     |                           x T B                           |     
     |                   =====================                   |     
     |                         S. Grimme                         |     
     |          Mulliken Center for Theoretical Chemistry        |     
     |                    University of Bonn                     |     
      -----------------------------------------------------------      

   * xtb version 6.3.0 (preview) compiled by 'ehlert@majestix' on 2020-01-15

   This program is distributed in the hope that it will be useful,
   but WITHOUT ANY WARRANTY; without even the implied warranty of
   MERCHANTABILITY or FITNESS FOR A PARTICULAR PURPOSE.
   
   FOR NON-COMMERCIAL, ACADEMIA USE ONLY.
   
   Cite this work as:
   * S. Grimme, C. Bannwarth, P. Shushkov, J. Chem. Theory Comput., 2017,
     13, 1989-2009. DOI: 10.1021/acs.jctc.7b00118
   * C. Bannwarth, S. Ehlert and S. Grimme., J. Chem. Theory Comput., 2019,
     15, 1652-1671. DOI: 10.1021/acs.jctc.8b01176
   * P. Pracht, E. Caldeweyher, S. Ehlert, S. Grimme, ChemRxiv, 2019, preprint.
     DOI: 10.26434/chemrxiv.8326202.v1
   * S. Grimme, S. Spicher unpublished
   
   for DFT-D4:
   * E. Caldeweyher, C. Bannwarth and S. Grimme, J. Chem. Phys., 2017,
     147, 034112. DOI: 10.1063/1.4993215
   * E. Caldeweyher, S. Ehlert, A. Hansen, H. Neugebauer, S. Spicher,
     C. Bannwarth and S. Grimme, J. Chem. Phys., 2019, 150, 154122.
     DOI: 10.1063/1.5090222
   
   for sTDA-xTB:
   * S. Grimme and C. Bannwarth, J. Chem. Phys., 2016, 145, 054103.
     DOI: 10.1063/1.4959605
   
   in the mass-spec context:
   * V. Asgeirsson, C. Bauer and S. Grimme, Chem. Sci., 2017, 8, 4879.
     DOI: 10.1039/c7sc00601b
   
   for metadynamics refer to:
   * S. Grimme, J. Chem. Theory Comput., 2019, 155, 2847-2862
     DOI: 10.1021/acs.jctc.9b00143
   
   with help from (in alphabetical order)
   C. Bannwarth, F. Bohle, G. Brandenburg, E. Caldeweyher, M. Checinski,
   S. Dohm, S. Ehlert, S. Ehrlich, F. März, H. Neugebauer, J. Pisarek,
   P. Pracht, P. Shushkov, and S. Spicher.
   
 * started run on 2020/09/03 at 18:23:34.390     

           -------------------------------------------------
          |                Calculation Setup                |
           -------------------------------------------------

          program call               : /opt/orca/otool_xtb /tmp/slurm-scratch/freq.184/freq_XTB.xyz --grad -c 0 -u 0 -P 8 --namespace /tmp/slurm-scratch/freq.184/freq --gbsa CH2Cl2
          hostname                   : headnode-pbs
          calculation namespace      : /tmp/slurm-scratch/freq.184/freq
          coordinate file            : /tmp/slurm-scratch/freq.184/freq_XTB.xyz
          omp threads                :                     8
          number of atoms            :                    43
          number of electrons        :                    96
          charge                     :                     0
          spin                       :                   0.0
          first test random number   :      0.96951828170989


molecular fragmentation (1/2 indicates fragments):
1111111111111221111111111222222222222221111
# atoms in fragment 1/2:    27    16
 fragment masses (1/2) :      161.24       73.14
CMA distance (Bohr)    :   9.506
constraining FC (au)   :  0.0500

########################################################################
# WARNING! Please study the warnings concerning your input carefully
#  - Process number higher than OMP_NUM_THREADS, I hope you know what you are doing.
########################################################################

           ------------------------------------------------- 
          |                 G F N 2 - x T B                 |
          | Geometry, Frequencies, Noncovalent interactions |
          |            JCTC 2019 parametrisation            |
           ------------------------------------------------- 
             k(s)              :                1.8500
             k(p)              :                2.2300
             k(d)              :                2.2300
             k(f)              :                2.0000
             kEN (H0ij)        :               -2.0000
             D4 a1             :                0.5200
             D4 a2             :                5.0000
             D4 s6             :                1.0000
             D4 s8             :                2.7000
             D4 s9             :                5.0000
             alphaj            :                2.0000

  Z AO/shell   Hii/eV     exponent
  1     Wed Apr 25 08:07:45 CEST 2018   EN: 2.200 GM2: 0.406  GM3: 0.0800  RAES: 1.40
     1s    -10.707211    1.230000
  6     Wed Apr 25 08:07:45 CEST 2018   EN: 2.550 GM2: 0.538  GM3: 0.1500  RAES: 3.00
     2s    -13.970922    2.096432
     2p    -10.063292    1.800000
  7     Wed Apr 25 08:07:45 CEST 2018   EN: 3.040 GM2: 0.461  GM3:-0.0640  RAES: 1.90
     2s    -16.686243    2.339881
     2p    -12.523956    2.014332

 Solvent             : CH2Cl2
 Using internal parameter file: .param_gbsa2_CH2Cl2
 Gsolv ref. state (COSMO-RS): gsolv [1 M gas/solution]
 temperature (mdtemp)       :    298.150000000000     
 dielectric constant        :    8.93000000000000     
 rho                        :    1.33000000000000     
 mass                       :    84.9300000000000     
 surface tension            :    15.5689454083859     
 probe radius               :   0.719875900000000     
 Gshift (Eh)                :   4.440829173451759E-003
 c1                         :    1.49173776000000     
 soset                      :   0.000000000000000E+000
 HB correction              :  F
           ------------------------------------------------- 
          |        Self-Consistent Charge Iterations        |
           ------------------------------------------------- 

          ...................................................
          :                      SETUP                      :
          :.................................................:
          :  # basis functions                  94          :
          :  # atomic orbitals                  94          :
          :  # shells                           60          :
          :  # electrons                        96          :
          :  max. iterations                   250          :
          :  Hamiltonian                  GFN2-xTB          :
          :  GBSA solvation                   true          :
          :  PC potential                    false          :
          :  electronic temp.          300.0000000     K    :
          :  accuracy                    1.0000000          :
          :  -> integral cutoff          0.2500000E+02      :
          :  -> integral neglect         0.1000000E-07      :
          :  -> SCF convergence          0.1000000E-05 Eh   :
          :  -> wf. convergence          0.1000000E-03 e    :
          :  Broyden damping             0.4000000          :
          ...................................................
  Checking positiv definite overlap ...  done.
 

 iter      E             dE          RMSdq      gap      omega  full diag
   1    -51.9210293 -0.519210E+02  0.358E+00    2.98       0.0  T
   2    -51.9843455 -0.633162E-01  0.213E+00    2.87       1.0  T
   3    -51.9823244  0.202117E-02  0.766E-01    2.48       1.0  T
   4    -51.9863642 -0.403982E-02  0.353E-01    2.52       1.0  T
   5    -51.9896115 -0.324728E-02  0.692E-02    2.46       1.0  T
   6    -51.9896270 -0.155094E-04  0.334E-02    2.48       1.0  T
   7    -51.9896365 -0.947780E-05  0.143E-02    2.48       1.1  T
   8    -51.9896386 -0.212302E-05  0.364E-03    2.48       4.2  T
   9    -51.9896388 -0.176775E-06  0.145E-03    2.48      10.5  T
  10    -51.9896388 -0.345654E-08  0.807E-04    2.48      18.9  T
  11    -51.9896388 -0.767643E-08  0.286E-04    2.48      53.3  T

   *** convergence criteria satisfied after 11 iterations ***

         #    Occupation            Energy/Eh            Energy/eV
      -------------------------------------------------------------
         1        2.0000           -0.6511527             -17.7188
       ...           ...                  ...                  ...
        42        2.0000           -0.4264848             -11.6052
        43        2.0000           -0.4235863             -11.5264
        44        2.0000           -0.4192989             -11.4097
        45        2.0000           -0.4083091             -11.1107
        46        2.0000           -0.4000780             -10.8867
        47        2.0000           -0.3832129             -10.4278
        48        2.0000           -0.3640086              -9.9052 (HOMO)
        49                         -0.2728014              -7.4233 (LUMO)
        50                         -0.2280453              -6.2054
        51                         -0.1904630              -5.1828
        52                         -0.0882668              -2.4019
        53                          0.0273920               0.7454
       ...                                ...                  ...
        94                          0.6498387              17.6830
      -------------------------------------------------------------
                  HL-Gap            0.0912072 Eh            2.4819 eV
             Fermi-level           -0.3184050 Eh           -8.6642 eV

 SCC (total)                   0 d,  0 h,  0 min,  0.044 sec
 SCC setup                      ...        0 min,  0.001 sec (  3.296%)
 Dispersion                     ...        0 min,  0.001 sec (  1.319%)
 integral evaluation            ...        0 min,  0.013 sec ( 29.410%)
 zeroth order Hamiltonian       ...        0 min,  0.000 sec (  0.023%)
 iterations                     ...        0 min,  0.019 sec ( 42.154%)
 molecular gradient             ...        0 min,  0.010 sec ( 22.934%)
 printout                       ...        0 min,  0.000 sec (  0.780%)

         :::::::::::::::::::::::::::::::::::::::::::::::::::::
         ::                     SUMMARY                     ::
         :::::::::::::::::::::::::::::::::::::::::::::::::::::
         :: total energy             -51.210867674576 Eh    ::
         :: total w/o Gsasa/hb       -51.189150463225 Eh    ::
         :: gradient norm              0.027457438409 Eh/a0 ::
         :: HOMO-LUMO gap              2.481875570563 eV    ::
         ::.................................................::
         :: SCC energy               -52.011355974513 Eh    ::
         :: -> isotropic ES            0.026612486417 Eh    ::
         :: -> anisotropic ES          0.008810135510 Eh    ::
         :: -> anisotropic XC          0.041094689379 Eh    ::
         :: -> dispersion             -0.035062956927 Eh    ::
         :: -> Gsolv                  -0.024777686303 Eh    ::
         ::    -> Gborn               -0.003060474952 Eh    ::
         ::    -> Gsasa               -0.026158040524 Eh    ::
         ::    -> Ghb                  0.000000000000 Eh    ::
         ::    -> Gshift               0.004440829173 Eh    ::
         :: repulsion energy           0.800212335810 Eh    ::
         :: add. restraining           0.000000000000 Eh    ::
         :::::::::::::::::::::::::::::::::::::::::::::::::::::

           -------------------------------------------------
          |                Property Printout                |
           -------------------------------------------------

    * Orbital Energies and Occupations

         #    Occupation            Energy/Eh            Energy/eV
      -------------------------------------------------------------
         1        2.0000           -0.6511527             -17.7188
       ...           ...                  ...                  ...
        36        2.0000           -0.4475709             -12.1790
        37        2.0000           -0.4416212             -12.0171
        38        2.0000           -0.4399959             -11.9729
        39        2.0000           -0.4347130             -11.8291
        40        2.0000           -0.4332685             -11.7898
        41        2.0000           -0.4294581             -11.6861
        42        2.0000           -0.4264848             -11.6052
        43        2.0000           -0.4235863             -11.5264
        44        2.0000           -0.4192989             -11.4097
        45        2.0000           -0.4083091             -11.1107
        46        2.0000           -0.4000780             -10.8867
        47        2.0000           -0.3832129             -10.4278
        48        2.0000           -0.3640086              -9.9052 (HOMO)
        49                         -0.2728014              -7.4233 (LUMO)
        50                         -0.2280453              -6.2054
        51                         -0.1904630              -5.1828
        52                         -0.0882668              -2.4019
        53                          0.0273920               0.7454
        54                          0.0375318               1.0213
        55                          0.0786431               2.1400
        56                          0.0837713               2.2795
        57                          0.0954355               2.5969
        58                          0.1006250               2.7381
        59                          0.1177781               3.2049
       ...                                ...                  ...
        94                          0.6498387              17.6830
      -------------------------------------------------------------
                  HL-Gap            0.0912072 Eh            2.4819 eV
             Fermi-level           -0.3184050 Eh           -8.6642 eV

     #   Z        covCN         q      C6AA      α(0)
     1   6 C      2.913    -0.029    28.732     8.790
     2   6 C      2.922    -0.030    28.757     8.794
     3   6 C      2.970     0.004    27.940     8.670
     4   6 C      2.917    -0.028    28.695     8.784
     5   6 C      2.914    -0.027    28.679     8.782
     6   6 C      2.915    -0.025    28.619     8.773
     7   1 H      0.925     0.036     2.509     2.477
     8   1 H      0.926     0.062     2.177     2.307
     9   1 H      0.925     0.043     2.408     2.427
    10   7 N      1.825    -0.265    27.742     7.805
    11   6 C      3.767     0.026    20.171     6.401
    12   1 H      0.924     0.006     2.961     2.691
    13   1 H      0.924     0.036     2.509     2.477
    14   1 H      0.860     0.169     1.278     1.771
    15   1 H      0.860     0.133     1.524     1.934
    16   6 C      2.858     0.079    26.237     8.396
    17   1 H      0.924    -0.000     3.060     2.736
    18   6 C      3.803    -0.057    21.597     6.616
    19   1 H      0.924     0.031     2.579     2.512
    20   1 H      0.924     0.048     2.341     2.393
    21   6 C      3.800    -0.050    21.471     6.597
    22   1 H      0.924     0.031     2.578     2.511
    23   1 H      0.924     0.029     2.602     2.523
    24   1 H      0.925     0.041     2.441     2.443
    25   1 H      0.925     0.045     2.388     2.416
    26   6 C      3.731     0.017    20.383     6.445
    27   1 H      0.924     0.027     2.625     2.534
    28   1 H      0.924     0.028     2.617     2.530
    29   6 C      3.800    -0.067    21.783     6.645
    30   1 H      0.924     0.023     2.687     2.564
    31   1 H      0.924     0.033     2.547     2.496
    32   6 C      3.799    -0.051    21.500     6.602
    33   1 H      0.924     0.029     2.604     2.523
    34   1 H      0.924     0.028     2.615     2.529
    35   7 N      2.627    -0.381    29.845     8.114
    36   6 C      3.749    -0.100    22.465     6.760
    37   1 H      0.924     0.035     2.519     2.482
    38   1 H      0.924     0.035     2.521     2.483
    39   1 H      0.924     0.032     2.560     2.502
    40   6 C      3.750    -0.101    22.492     6.764
    41   1 H      0.924     0.037     2.484     2.464
    42   1 H      0.924     0.038     2.476     2.461
    43   1 H      0.924     0.034     2.530     2.488

 Mol. C6AA /au·bohr⁶  :      15755.327274
 Mol. C8AA /au·bohr⁸  :     348642.147208
 Mol. α(0) /au        :        193.407762


Wiberg/Mayer (AO) data.
largest (>0.10) Wiberg bond orders for each atom
          total WBO             WBO to atom ...
     1  C   3.991        C    2 1.451    C    6 1.437    H   24 0.970    C    4 0.106
     2  C   3.987        C    1 1.451    C    3 1.380    H    7 0.968    C    5 0.105
     3  C   3.988        C    2 1.380    C    4 1.366    C   16 1.084
     4  C   3.988        C    5 1.465    C    3 1.366    H    8 0.963    C    1 0.106
     5  C   3.991        C    4 1.465    C    6 1.423    H   25 0.970    C    2 0.105
     6  C   3.988        C    1 1.437    C    5 1.423    H    9 0.971
     7  H   0.999        C    2 0.968
     8  H   0.996        C    4 0.963
     9  H   0.998        C    6 0.971
    10  N   3.075        C   16 1.839    C   11 1.022
    11  C   3.985        N   10 1.022    C   18 0.987    H   12 0.965    H   13 0.957
    12  H   1.000        C   11 0.965
    13  H   0.996        C   11 0.957
    14  H   0.971        N   35 0.942
    15  H   0.982        N   35 0.969
    16  C   3.968        N   10 1.839    C    3 1.084    H   17 0.940
    17  H   1.000        C   16 0.940
    18  C   3.990        C   21 1.006    C   11 0.987    H   19 0.978    H   20 0.971
    19  H   0.999        C   18 0.978
    20  H   0.998        C   18 0.971
    21  C   3.996        C   40 1.019    C   18 1.006    H   23 0.978    H   22 0.975
    22  H   0.999        C   21 0.975
    23  H   0.999        C   21 0.978
    24  H   0.998        C    1 0.970
    25  H   0.998        C    5 0.970
    26  C   3.986        N   35 1.025    C   29 0.995    H   27 0.975    H   28 0.974
    27  H   0.999        C   26 0.975
    28  H   0.999        C   26 0.974
    29  C   3.997        C   32 1.007    C   26 0.995    H   30 0.977    H   31 0.972
    30  H   0.999        C   29 0.977
    31  H   0.999        C   29 0.972
    32  C   3.997        C   36 1.019    C   29 1.007    H   34 0.978    H   33 0.976
    33  H   0.999        C   32 0.976
    34  H   0.999        C   32 0.978
    35  N   2.996        C   26 1.025    H   15 0.969    H   14 0.942
    36  C   3.997        C   32 1.019    H   39 0.988    H   37 0.987    H   38 0.986
    37  H   0.998        C   36 0.987
    38  H   0.999        C   36 0.986
    39  H   0.999        C   36 0.988
    40  C   3.995        C   21 1.019    H   43 0.988    H   41 0.987    H   42 0.986
    41  H   0.998        C   40 0.987
    42  H   0.999        C   40 0.986
    43  H   0.999        C   40 0.988

molecular dipole:
                 x           y           z       tot (Debye)
 q only:        0.125       0.257       0.032
   full:       -0.235       0.756      -0.258       2.115
molecular quadrupole (traceless):
                xx          xy          yy          xz          yz          zz
 q only:        8.514       1.919      -4.750      -1.879      -0.242      -3.764
  q+dip:        9.850       1.356      -1.851       1.111       1.454      -7.999
   full:        9.268       1.534      -4.743       0.492       1.903      -4.525

           -------------------------------------------------
          |                Property Printout                |
           -------------------------------------------------

    * Orbital Energies and Occupations

         #    Occupation            Energy/Eh            Energy/eV
      -------------------------------------------------------------
         1        2.0000           -0.6511527             -17.7188
       ...           ...                  ...                  ...
        36        2.0000           -0.4475709             -12.1790
        37        2.0000           -0.4416212             -12.0171
        38        2.0000           -0.4399959             -11.9729
        39        2.0000           -0.4347130             -11.8291
        40        2.0000           -0.4332685             -11.7898
        41        2.0000           -0.4294581             -11.6861
        42        2.0000           -0.4264848             -11.6052
        43        2.0000           -0.4235863             -11.5264
        44        2.0000           -0.4192989             -11.4097
        45        2.0000           -0.4083091             -11.1107
        46        2.0000           -0.4000780             -10.8867
        47        2.0000           -0.3832129             -10.4278
        48        2.0000           -0.3640086              -9.9052 (HOMO)
        49                         -0.2728014              -7.4233 (LUMO)
        50                         -0.2280453              -6.2054
        51                         -0.1904630              -5.1828
        52                         -0.0882668              -2.4019
        53                          0.0273920               0.7454
        54                          0.0375318               1.0213
        55                          0.0786431               2.1400
        56                          0.0837713               2.2795
        57                          0.0954355               2.5969
        58                          0.1006250               2.7381
        59                          0.1177781               3.2049
       ...                                ...                  ...
        94                          0.6498387              17.6830
      -------------------------------------------------------------
                  HL-Gap            0.0912072 Eh            2.4819 eV
             Fermi-level           -0.3184050 Eh           -8.6642 eV

     #   Z        covCN         q      C6AA      α(0)
     1   6 C      2.913    -0.029    28.732     8.790
     2   6 C      2.922    -0.030    28.757     8.794
     3   6 C      2.970     0.004    27.940     8.670
     4   6 C      2.917    -0.028    28.695     8.784
     5   6 C      2.914    -0.027    28.679     8.782
     6   6 C      2.915    -0.025    28.619     8.773
     7   1 H      0.925     0.036     2.509     2.477
     8   1 H      0.926     0.062     2.177     2.307
     9   1 H      0.925     0.043     2.408     2.427
    10   7 N      1.825    -0.265    27.742     7.805
    11   6 C      3.767     0.026    20.171     6.401
    12   1 H      0.924     0.006     2.961     2.691
    13   1 H      0.924     0.036     2.509     2.477
    14   1 H      0.860     0.169     1.278     1.771
    15   1 H      0.860     0.133     1.524     1.934
    16   6 C      2.858     0.079    26.237     8.396
    17   1 H      0.924    -0.000     3.060     2.736
    18   6 C      3.803    -0.057    21.597     6.616
    19   1 H      0.924     0.031     2.579     2.512
    20   1 H      0.924     0.048     2.341     2.393
    21   6 C      3.800    -0.050    21.471     6.597
    22   1 H      0.924     0.031     2.578     2.511
    23   1 H      0.924     0.029     2.602     2.523
    24   1 H      0.925     0.041     2.441     2.443
    25   1 H      0.925     0.045     2.388     2.416
    26   6 C      3.731     0.017    20.383     6.445
    27   1 H      0.924     0.027     2.625     2.534
    28   1 H      0.924     0.028     2.617     2.530
    29   6 C      3.800    -0.067    21.783     6.645
    30   1 H      0.924     0.023     2.687     2.564
    31   1 H      0.924     0.033     2.547     2.496
    32   6 C      3.799    -0.051    21.500     6.602
    33   1 H      0.924     0.029     2.604     2.523
    34   1 H      0.924     0.028     2.615     2.529
    35   7 N      2.627    -0.381    29.845     8.114
    36   6 C      3.749    -0.100    22.465     6.760
    37   1 H      0.924     0.035     2.519     2.482
    38   1 H      0.924     0.035     2.521     2.483
    39   1 H      0.924     0.032     2.560     2.502
    40   6 C      3.750    -0.101    22.492     6.764
    41   1 H      0.924     0.037     2.484     2.464
    42   1 H      0.924     0.038     2.476     2.461
    43   1 H      0.924     0.034     2.530     2.488

 Mol. C6AA /au·bohr⁶  :      15755.327274
 Mol. C8AA /au·bohr⁸  :     348642.147208
 Mol. α(0) /au        :        193.407762


Wiberg/Mayer (AO) data.
largest (>0.10) Wiberg bond orders for each atom
          total WBO             WBO to atom ...
     1  C   3.991        C    2 1.451    C    6 1.437    H   24 0.970    C    4 0.106
     2  C   3.987        C    1 1.451    C    3 1.380    H    7 0.968    C    5 0.105
     3  C   3.988        C    2 1.380    C    4 1.366    C   16 1.084
     4  C   3.988        C    5 1.465    C    3 1.366    H    8 0.963    C    1 0.106
     5  C   3.991        C    4 1.465    C    6 1.423    H   25 0.970    C    2 0.105
     6  C   3.988        C    1 1.437    C    5 1.423    H    9 0.971
     7  H   0.999        C    2 0.968
     8  H   0.996        C    4 0.963
     9  H   0.998        C    6 0.971
    10  N   3.075        C   16 1.839    C   11 1.022
    11  C   3.985        N   10 1.022    C   18 0.987    H   12 0.965    H   13 0.957
    12  H   1.000        C   11 0.965
    13  H   0.996        C   11 0.957
    14  H   0.971        N   35 0.942
    15  H   0.982        N   35 0.969
    16  C   3.968        N   10 1.839    C    3 1.084    H   17 0.940
    17  H   1.000        C   16 0.940
    18  C   3.990        C   21 1.006    C   11 0.987    H   19 0.978    H   20 0.971
    19  H   0.999        C   18 0.978
    20  H   0.998        C   18 0.971
    21  C   3.996        C   40 1.019    C   18 1.006    H   23 0.978    H   22 0.975
    22  H   0.999        C   21 0.975
    23  H   0.999        C   21 0.978
    24  H   0.998        C    1 0.970
    25  H   0.998        C    5 0.970
    26  C   3.986        N   35 1.025    C   29 0.995    H   27 0.975    H   28 0.974
    27  H   0.999        C   26 0.975
    28  H   0.999        C   26 0.974
    29  C   3.997        C   32 1.007    C   26 0.995    H   30 0.977    H   31 0.972
    30  H   0.999        C   29 0.977
    31  H   0.999        C   29 0.972
    32  C   3.997        C   36 1.019    C   29 1.007    H   34 0.978    H   33 0.976
    33  H   0.999        C   32 0.976
    34  H   0.999        C   32 0.978
    35  N   2.996        C   26 1.025    H   15 0.969    H   14 0.942
    36  C   3.997        C   32 1.019    H   39 0.988    H   37 0.987    H   38 0.986
    37  H   0.998        C   36 0.987
    38  H   0.999        C   36 0.986
    39  H   0.999        C   36 0.988
    40  C   3.995        C   21 1.019    H   43 0.988    H   41 0.987    H   42 0.986
    41  H   0.998        C   40 0.987
    42  H   0.999        C   40 0.986
    43  H   0.999        C   40 0.988

molecular dipole:
                 x           y           z       tot (Debye)
 q only:        0.125       0.257       0.032
   full:       -0.235       0.756      -0.258       2.115
molecular quadrupole (traceless):
                xx          xy          yy          xz          yz          zz
 q only:        8.514       1.919      -4.750      -1.879      -0.242      -3.764
  q+dip:        9.850       1.356      -1.851       1.111       1.454      -7.999
   full:        9.268       1.534      -4.743       0.492       1.903      -4.525


           -------------------------------------------------
          | TOTAL ENERGY              -51.210867674576 Eh   |
          | GRADIENT NORM               0.027457438409 Eh/α |
          | HOMO-LUMO GAP               2.481875570563 eV   |
           -------------------------------------------------

------------------------------------------------------------------------
 * finished run on 2020/09/03 at 18:23:34.482     
------------------------------------------------------------------------
 total:
 * wall-time:     0 d,  0 h,  0 min,  0.092 sec
 *  cpu-time:     0 d,  0 h,  0 min,  0.662 sec
 * ratio c/w:     7.224 speedup
 SCF:
 * wall-time:     0 d,  0 h,  0 min,  0.045 sec
 *  cpu-time:     0 d,  0 h,  0 min,  0.337 sec
 * ratio c/w:     7.564 speedup


-------------------------   --------------------
FINAL SINGLE POINT ENERGY       -51.210867674580
-------------------------   --------------------


----------------------------------------------------------------------------
                           ORCA NUMERICAL FREQUENCIES
                              (8-process run)
----------------------------------------------------------------------------

Number of atoms                ... 43
Central differences            ... used
Number of displacements        ... 258
Numerical increment            ... 5.000e-03 bohr
IR-spectrum generation         ... on
Raman-spectrum generation      ... off
Surface Crossing Hessian       ... off
List of participating nodes    ...  /tmp/slurm-scratch/freq.184/freq.hostnames

The output will be reduced. Please look at the following files:
SCF program output             ... >/tmp/slurm-scratch/freq.184/freq.lastscf
Integral program output        ... >/tmp/slurm-scratch/freq.184/freq.lastint
Gradient program output        ... >/tmp/slurm-scratch/freq.184/freq.lastgrad
Dipole moment program output   ... >/tmp/slurm-scratch/freq.184/freq.lastmom
AutoCI program output          ... >/tmp/slurm-scratch/freq.184/freq.lastautoci


         <<< Energy and Gradient at the input geometry >>>

        <<< Energy and Gradient at displaced geometries >>>
             <<<Displacing   1/coordinate 2 (+)>>>
             <<<Displacing   1/coordinate 1 (+)>>>
             <<<Displacing   3/coordinate 1 (+)>>>
             <<<Displacing   2/coordinate 1 (+)>>>
             <<<Displacing   3/coordinate 2 (+)>>>
             <<<Displacing   1/coordinate 3 (+)>>>
             <<<Displacing   2/coordinate 2 (+)>>>
             <<<Displacing   2/coordinate 3 (+)>>>
             <<<Displacing   1/coordinate 2 (-)>>>
             <<<Displacing   3/coordinate 1 (-)>>>
             <<<Displacing   1/coordinate 1 (-)>>>
             <<<Displacing   3/coordinate 2 (-)>>>
             <<<Displacing   1/coordinate 3 (-)>>>
             <<<Displacing   2/coordinate 1 (-)>>>
             <<<Displacing   2/coordinate 2 (-)>>>
             <<<Displacing   2/coordinate 3 (-)>>>
             <<<Displacing   4/coordinate 1 (+)>>>
             <<<Displacing   3/coordinate 3 (+)>>>
             <<<Displacing   4/coordinate 3 (+)>>>
             <<<Displacing   4/coordinate 2 (+)>>>
             <<<Displacing   5/coordinate 2 (+)>>>
             <<<Displacing   5/coordinate 3 (+)>>>
             <<<Displacing   5/coordinate 1 (+)>>>
             <<<Displacing   6/coordinate 1 (+)>>>
             <<<Displacing   4/coordinate 1 (-)>>>
             <<<Displacing   3/coordinate 3 (-)>>>
             <<<Displacing   5/coordinate 2 (-)>>>
             <<<Displacing   4/coordinate 3 (-)>>>
             <<<Displacing   4/coordinate 2 (-)>>>
             <<<Displacing   5/coordinate 1 (-)>>>
             <<<Displacing   5/coordinate 3 (-)>>>
             <<<Displacing   6/coordinate 1 (-)>>>
             <<<Displacing   6/coordinate 2 (+)>>>
             <<<Displacing   6/coordinate 3 (+)>>>
             <<<Displacing   7/coordinate 1 (+)>>>
             <<<Displacing   7/coordinate 3 (+)>>>
             <<<Displacing   7/coordinate 2 (+)>>>
             <<<Displacing   8/coordinate 3 (+)>>>
             <<<Displacing   8/coordinate 1 (+)>>>
             <<<Displacing   8/coordinate 2 (+)>>>
             <<<Displacing   6/coordinate 3 (-)>>>
             <<<Displacing   6/coordinate 2 (-)>>>
             <<<Displacing   7/coordinate 1 (-)>>>
             <<<Displacing   7/coordinate 3 (-)>>>
             <<<Displacing   7/coordinate 2 (-)>>>
             <<<Displacing   8/coordinate 3 (-)>>>
             <<<Displacing   8/coordinate 1 (-)>>>
             <<<Displacing   8/coordinate 2 (-)>>>
             <<<Displacing   9/coordinate 2 (+)>>>
             <<<Displacing   9/coordinate 3 (+)>>>
             <<<Displacing  10/coordinate 1 (+)>>>
             <<<Displacing  10/coordinate 3 (+)>>>
             <<<Displacing  10/coordinate 2 (+)>>>
             <<<Displacing  11/coordinate 2 (+)>>>
             <<<Displacing  11/coordinate 1 (+)>>>
             <<<Displacing   9/coordinate 2 (-)>>>
             <<<Displacing   9/coordinate 3 (-)>>>
             <<<Displacing  10/coordinate 3 (-)>>>
             <<<Displacing  10/coordinate 1 (-)>>>
             <<<Displacing  10/coordinate 2 (-)>>>
             <<<Displacing  11/coordinate 2 (-)>>>
             <<<Displacing   9/coordinate 1 (+)>>>
             <<<Displacing  11/coordinate 1 (-)>>>
             <<<Displacing   9/coordinate 1 (-)>>>
             <<<Displacing  11/coordinate 3 (+)>>>
             <<<Displacing  12/coordinate 1 (+)>>>
             <<<Displacing  12/coordinate 2 (+)>>>
             <<<Displacing  13/coordinate 1 (+)>>>
             <<<Displacing  12/coordinate 3 (+)>>>
             <<<Displacing  13/coordinate 3 (+)>>>
             <<<Displacing  11/coordinate 3 (-)>>>
             <<<Displacing  13/coordinate 2 (+)>>>
             <<<Displacing  12/coordinate 1 (-)>>>
             <<<Displacing  12/coordinate 2 (-)>>>
             <<<Displacing  13/coordinate 1 (-)>>>
             <<<Displacing  13/coordinate 3 (-)>>>
             <<<Displacing  12/coordinate 3 (-)>>>
             <<<Displacing  14/coordinate 1 (+)>>>
             <<<Displacing  13/coordinate 2 (-)>>>
             <<<Displacing  14/coordinate 1 (-)>>>
             <<<Displacing  14/coordinate 3 (+)>>>
             <<<Displacing  14/coordinate 2 (+)>>>
             <<<Displacing  15/coordinate 1 (+)>>>
             <<<Displacing  15/coordinate 2 (+)>>>
             <<<Displacing  16/coordinate 1 (+)>>>
             <<<Displacing  15/coordinate 3 (+)>>>
             <<<Displacing  14/coordinate 3 (-)>>>
             <<<Displacing  14/coordinate 2 (-)>>>
             <<<Displacing  16/coordinate 2 (+)>>>
             <<<Displacing  15/coordinate 1 (-)>>>
             <<<Displacing  16/coordinate 3 (+)>>>
             <<<Displacing  15/coordinate 2 (-)>>>
             <<<Displacing  15/coordinate 3 (-)>>>
             <<<Displacing  16/coordinate 1 (-)>>>
             <<<Displacing  16/coordinate 2 (-)>>>
             <<<Displacing  16/coordinate 3 (-)>>>
             <<<Displacing  17/coordinate 2 (+)>>>
             <<<Displacing  17/coordinate 1 (+)>>>
             <<<Displacing  18/coordinate 1 (+)>>>
             <<<Displacing  17/coordinate 3 (+)>>>
             <<<Displacing  18/coordinate 2 (+)>>>
             <<<Displacing  18/coordinate 3 (+)>>>
             <<<Displacing  17/coordinate 2 (-)>>>
             <<<Displacing  19/coordinate 1 (+)>>>
             <<<Displacing  17/coordinate 1 (-)>>>
             <<<Displacing  18/coordinate 1 (-)>>>
             <<<Displacing  17/coordinate 3 (-)>>>
             <<<Displacing  19/coordinate 2 (+)>>>
             <<<Displacing  18/coordinate 2 (-)>>>
             <<<Displacing  18/coordinate 3 (-)>>>
             <<<Displacing  19/coordinate 1 (-)>>>
             <<<Displacing  19/coordinate 2 (-)>>>
             <<<Displacing  19/coordinate 3 (+)>>>
             <<<Displacing  20/coordinate 1 (+)>>>
             <<<Displacing  20/coordinate 2 (+)>>>
             <<<Displacing  20/coordinate 3 (+)>>>
             <<<Displacing  21/coordinate 1 (+)>>>
             <<<Displacing  21/coordinate 2 (+)>>>
             <<<Displacing  21/coordinate 3 (+)>>>
             <<<Displacing  20/coordinate 1 (-)>>>
             <<<Displacing  20/coordinate 2 (-)>>>
             <<<Displacing  19/coordinate 3 (-)>>>
             <<<Displacing  20/coordinate 3 (-)>>>
             <<<Displacing  22/coordinate 1 (+)>>>
             <<<Displacing  21/coordinate 2 (-)>>>
             <<<Displacing  21/coordinate 3 (-)>>>
             <<<Displacing  21/coordinate 1 (-)>>>
             <<<Displacing  22/coordinate 1 (-)>>>
             <<<Displacing  22/coordinate 2 (+)>>>
             <<<Displacing  23/coordinate 1 (+)>>>
             <<<Displacing  22/coordinate 3 (+)>>>
             <<<Displacing  23/coordinate 2 (+)>>>
             <<<Displacing  23/coordinate 3 (+)>>>
             <<<Displacing  24/coordinate 1 (+)>>>
             <<<Displacing  22/coordinate 2 (-)>>>
             <<<Displacing  23/coordinate 1 (-)>>>
             <<<Displacing  22/coordinate 3 (-)>>>
             <<<Displacing  24/coordinate 2 (+)>>>
             <<<Displacing  23/coordinate 2 (-)>>>
             <<<Displacing  23/coordinate 3 (-)>>>
             <<<Displacing  24/coordinate 3 (+)>>>
             <<<Displacing  24/coordinate 1 (-)>>>
             <<<Displacing  24/coordinate 2 (-)>>>
             <<<Displacing  24/coordinate 3 (-)>>>
             <<<Displacing  25/coordinate 3 (+)>>>
             <<<Displacing  25/coordinate 1 (+)>>>
             <<<Displacing  25/coordinate 2 (+)>>>
             <<<Displacing  26/coordinate 1 (+)>>>
             <<<Displacing  25/coordinate 3 (-)>>>
             <<<Displacing  25/coordinate 1 (-)>>>
             <<<Displacing  26/coordinate 2 (+)>>>
             <<<Displacing  26/coordinate 3 (+)>>>
             <<<Displacing  25/coordinate 2 (-)>>>
             <<<Displacing  27/coordinate 1 (+)>>>
             <<<Displacing  26/coordinate 1 (-)>>>
             <<<Displacing  27/coordinate 2 (+)>>>
             <<<Displacing  26/coordinate 2 (-)>>>
             <<<Displacing  26/coordinate 3 (-)>>>
             <<<Displacing  27/coordinate 1 (-)>>>
             <<<Displacing  27/coordinate 2 (-)>>>
             <<<Displacing  27/coordinate 3 (+)>>>
             <<<Displacing  28/coordinate 2 (+)>>>
             <<<Displacing  28/coordinate 1 (+)>>>
             <<<Displacing  28/coordinate 3 (+)>>>
             <<<Displacing  27/coordinate 3 (-)>>>
             <<<Displacing  29/coordinate 1 (+)>>>
             <<<Displacing  28/coordinate 2 (-)>>>
             <<<Displacing  28/coordinate 1 (-)>>>
             <<<Displacing  29/coordinate 2 (+)>>>
             <<<Displacing  29/coordinate 3 (+)>>>
             <<<Displacing  28/coordinate 3 (-)>>>
             <<<Displacing  29/coordinate 1 (-)>>>
             <<<Displacing  30/coordinate 1 (+)>>>
             <<<Displacing  29/coordinate 2 (-)>>>
             <<<Displacing  29/coordinate 3 (-)>>>
             <<<Displacing  30/coordinate 1 (-)>>>
             <<<Displacing  30/coordinate 2 (+)>>>
             <<<Displacing  30/coordinate 3 (+)>>>
             <<<Displacing  31/coordinate 2 (+)>>>
             <<<Displacing  31/coordinate 1 (+)>>>
             <<<Displacing  31/coordinate 3 (+)>>>
             <<<Displacing  30/coordinate 2 (-)>>>
             <<<Displacing  30/coordinate 3 (-)>>>
             <<<Displacing  32/coordinate 2 (+)>>>
             <<<Displacing  31/coordinate 2 (-)>>>
             <<<Displacing  32/coordinate 1 (+)>>>
             <<<Displacing  31/coordinate 3 (-)>>>
             <<<Displacing  31/coordinate 1 (-)>>>
             <<<Displacing  32/coordinate 3 (+)>>>
             <<<Displacing  32/coordinate 2 (-)>>>
             <<<Displacing  32/coordinate 1 (-)>>>
             <<<Displacing  32/coordinate 3 (-)>>>
             <<<Displacing  33/coordinate 1 (+)>>>
             <<<Displacing  33/coordinate 2 (+)>>>
             <<<Displacing  33/coordinate 3 (+)>>>
             <<<Displacing  34/coordinate 1 (+)>>>
             <<<Displacing  34/coordinate 2 (+)>>>
             <<<Displacing  33/coordinate 1 (-)>>>
             <<<Displacing  33/coordinate 2 (-)>>>
             <<<Displacing  35/coordinate 1 (+)>>>
             <<<Displacing  34/coordinate 3 (+)>>>
             <<<Displacing  33/coordinate 3 (-)>>>
             <<<Displacing  34/coordinate 1 (-)>>>
             <<<Displacing  34/coordinate 2 (-)>>>
             <<<Displacing  35/coordinate 1 (-)>>>
             <<<Displacing  35/coordinate 2 (+)>>>
             <<<Displacing  34/coordinate 3 (-)>>>
             <<<Displacing  35/coordinate 2 (-)>>>
             <<<Displacing  36/coordinate 1 (+)>>>
             <<<Displacing  36/coordinate 2 (+)>>>
             <<<Displacing  35/coordinate 3 (+)>>>
             <<<Displacing  36/coordinate 3 (+)>>>
             <<<Displacing  36/coordinate 1 (-)>>>
             <<<Displacing  37/coordinate 1 (+)>>>
             <<<Displacing  36/coordinate 2 (-)>>>
             <<<Displacing  35/coordinate 3 (-)>>>
             <<<Displacing  37/coordinate 2 (+)>>>
             <<<Displacing  37/coordinate 3 (+)>>>
             <<<Displacing  36/coordinate 3 (-)>>>
             <<<Displacing  37/coordinate 1 (-)>>>
             <<<Displacing  37/coordinate 2 (-)>>>
             <<<Displacing  38/coordinate 1 (+)>>>
             <<<Displacing  37/coordinate 3 (-)>>>
             <<<Displacing  38/coordinate 1 (-)>>>
             <<<Displacing  38/coordinate 3 (+)>>>
             <<<Displacing  38/coordinate 2 (+)>>>
             <<<Displacing  39/coordinate 1 (+)>>>
             <<<Displacing  39/coordinate 2 (+)>>>
             <<<Displacing  39/coordinate 3 (+)>>>
             <<<Displacing  38/coordinate 3 (-)>>>
             <<<Displacing  38/coordinate 2 (-)>>>
             <<<Displacing  40/coordinate 1 (+)>>>
             <<<Displacing  39/coordinate 1 (-)>>>
             <<<Displacing  40/coordinate 2 (+)>>>
             <<<Displacing  39/coordinate 2 (-)>>>
             <<<Displacing  39/coordinate 3 (-)>>>
             <<<Displacing  40/coordinate 1 (-)>>>
             <<<Displacing  40/coordinate 2 (-)>>>
             <<<Displacing  40/coordinate 3 (+)>>>
             <<<Displacing  40/coordinate 3 (-)>>>
             <<<Displacing  41/coordinate 1 (+)>>>
             <<<Displacing  41/coordinate 2 (+)>>>
             <<<Displacing  41/coordinate 3 (+)>>>
             <<<Displacing  41/coordinate 1 (-)>>>
             <<<Displacing  42/coordinate 1 (+)>>>
             <<<Displacing  41/coordinate 2 (-)>>>
             <<<Displacing  42/coordinate 2 (+)>>>
             <<<Displacing  43/coordinate 1 (+)>>>
             <<<Displacing  42/coordinate 3 (+)>>>
             <<<Displacing  41/coordinate 3 (-)>>>
             <<<Displacing  42/coordinate 1 (-)>>>
             <<<Displacing  42/coordinate 2 (-)>>>
             <<<Displacing  43/coordinate 1 (-)>>>
             <<<Displacing  42/coordinate 3 (-)>>>
             <<<Displacing  43/coordinate 2 (+)>>>
             <<<Displacing  43/coordinate 2 (-)>>>
             <<<Displacing  43/coordinate 3 (+)>>>
             <<<Displacing  43/coordinate 3 (-)>>>

-----------------------
VIBRATIONAL FREQUENCIES
-----------------------

Scaling factor for frequencies =  1.000000000 (already applied!)

   0:         0.00 cm**-1
   1:         0.00 cm**-1
   2:         0.00 cm**-1
   3:         0.00 cm**-1
   4:         0.00 cm**-1
   5:         0.00 cm**-1
   6:        33.64 cm**-1
   7:        35.11 cm**-1
   8:        50.85 cm**-1
   9:        57.84 cm**-1
  10:        60.78 cm**-1
  11:        66.58 cm**-1
  12:        80.74 cm**-1
  13:        86.88 cm**-1
  14:        97.07 cm**-1
  15:       113.32 cm**-1
  16:       128.04 cm**-1
  17:       144.54 cm**-1
  18:       157.29 cm**-1
  19:       160.42 cm**-1
  20:       203.56 cm**-1
  21:       215.94 cm**-1
  22:       263.58 cm**-1
  23:       264.75 cm**-1
  24:       269.98 cm**-1
  25:       282.92 cm**-1
  26:       368.08 cm**-1
  27:       377.37 cm**-1
  28:       381.21 cm**-1
  29:       391.37 cm**-1
  30:       427.41 cm**-1
  31:       434.30 cm**-1
  32:       462.74 cm**-1
  33:       509.19 cm**-1
  34:       588.44 cm**-1
  35:       624.31 cm**-1
  36:       665.55 cm**-1
  37:       758.13 cm**-1
  38:       760.53 cm**-1
  39:       772.20 cm**-1
  40:       815.27 cm**-1
  41:       822.84 cm**-1
  42:       857.55 cm**-1
  43:       879.05 cm**-1
  44:       904.03 cm**-1
  45:       917.30 cm**-1
  46:       922.86 cm**-1
  47:       932.38 cm**-1
  48:       935.02 cm**-1
  49:       940.64 cm**-1
  50:       941.33 cm**-1
  51:       952.23 cm**-1
  52:       973.40 cm**-1
  53:       983.36 cm**-1
  54:      1017.74 cm**-1
  55:      1019.44 cm**-1
  56:      1059.19 cm**-1
  57:      1068.43 cm**-1
  58:      1071.80 cm**-1
  59:      1084.59 cm**-1
  60:      1099.87 cm**-1
  61:      1104.48 cm**-1
  62:      1116.51 cm**-1
  63:      1126.03 cm**-1
  64:      1136.96 cm**-1
  65:      1143.92 cm**-1
  66:      1178.97 cm**-1
  67:      1187.45 cm**-1
  68:      1206.57 cm**-1
  69:      1209.40 cm**-1
  70:      1217.66 cm**-1
  71:      1251.10 cm**-1
  72:      1262.30 cm**-1
  73:      1268.46 cm**-1
  74:      1271.19 cm**-1
  75:      1275.84 cm**-1
  76:      1276.80 cm**-1
  77:      1280.36 cm**-1
  78:      1293.13 cm**-1
  79:      1311.91 cm**-1
  80:      1323.83 cm**-1
  81:      1334.38 cm**-1
  82:      1355.20 cm**-1
  83:      1367.90 cm**-1
  84:      1371.29 cm**-1
  85:      1422.79 cm**-1
  86:      1427.16 cm**-1
  87:      1429.16 cm**-1
  88:      1454.14 cm**-1
  89:      1473.32 cm**-1
  90:      1495.21 cm**-1
  91:      1498.09 cm**-1
  92:      1501.55 cm**-1
  93:      1505.03 cm**-1
  94:      1505.55 cm**-1
  95:      1509.05 cm**-1
  96:      1510.97 cm**-1
  97:      1512.24 cm**-1
  98:      1516.13 cm**-1
  99:      1560.04 cm**-1
 100:      1566.17 cm**-1
 101:      1566.97 cm**-1
 102:      1669.32 cm**-1
 103:      2855.70 cm**-1
 104:      2877.68 cm**-1
 105:      2932.47 cm**-1
 106:      2940.65 cm**-1
 107:      2941.20 cm**-1
 108:      2942.99 cm**-1
 109:      2946.94 cm**-1
 110:      2959.05 cm**-1
 111:      2963.02 cm**-1
 112:      2966.45 cm**-1
 113:      2968.23 cm**-1
 114:      2977.27 cm**-1
 115:      2979.59 cm**-1
 116:      2982.16 cm**-1
 117:      2984.96 cm**-1
 118:      2985.81 cm**-1
 119:      2993.34 cm**-1
 120:      2996.49 cm**-1
 121:      2999.24 cm**-1
 122:      3048.37 cm**-1
 123:      3055.86 cm**-1
 124:      3062.37 cm**-1
 125:      3071.68 cm**-1
 126:      3087.32 cm**-1
 127:      3326.19 cm**-1
 128:      3400.91 cm**-1


------------
NORMAL MODES
------------

These modes are the cartesian displacements weighted by the diagonal matrix
M(i,i)=1/sqrt(m[i]) where m[i] is the mass of the displaced atom
Thus, these vectors are normalized but *not* orthogonal

                  0          1          2          3          4          5    
      0       0.000000   0.000000   0.000000   0.000000   0.000000   0.000000
      1       0.000000   0.000000   0.000000   0.000000   0.000000   0.000000
      2       0.000000   0.000000   0.000000   0.000000   0.000000   0.000000
      3       0.000000   0.000000   0.000000   0.000000   0.000000   0.000000
      4       0.000000   0.000000   0.000000   0.000000   0.000000   0.000000
      5       0.000000   0.000000   0.000000   0.000000   0.000000   0.000000
      6       0.000000   0.000000   0.000000   0.000000   0.000000   0.000000
      7       0.000000   0.000000   0.000000   0.000000   0.000000   0.000000
      8       0.000000   0.000000   0.000000   0.000000   0.000000   0.000000
      9       0.000000   0.000000   0.000000   0.000000   0.000000   0.000000
     10       0.000000   0.000000   0.000000   0.000000   0.000000   0.000000
     11       0.000000   0.000000   0.000000   0.000000   0.000000   0.000000
     12       0.000000   0.000000   0.000000   0.000000   0.000000   0.000000
     13       0.000000   0.000000   0.000000   0.000000   0.000000   0.000000
     14       0.000000   0.000000   0.000000   0.000000   0.000000   0.000000
     15       0.000000   0.000000   0.000000   0.000000   0.000000   0.000000
     16       0.000000   0.000000   0.000000   0.000000   0.000000   0.000000
     17       0.000000   0.000000   0.000000   0.000000   0.000000   0.000000
     18       0.000000   0.000000   0.000000   0.000000   0.000000   0.000000
     19       0.000000   0.000000   0.000000   0.000000   0.000000   0.000000
     20       0.000000   0.000000   0.000000   0.000000   0.000000   0.000000
     21       0.000000   0.000000   0.000000   0.000000   0.000000   0.000000
     22       0.000000   0.000000   0.000000   0.000000   0.000000   0.000000
     23       0.000000   0.000000   0.000000   0.000000   0.000000   0.000000
     24       0.000000   0.000000   0.000000   0.000000   0.000000   0.000000
     25       0.000000   0.000000   0.000000   0.000000   0.000000   0.000000
     26       0.000000   0.000000   0.000000   0.000000   0.000000   0.000000
     27       0.000000   0.000000   0.000000   0.000000   0.000000   0.000000
     28       0.000000   0.000000   0.000000   0.000000   0.000000   0.000000
     29       0.000000   0.000000   0.000000   0.000000   0.000000   0.000000
     30       0.000000   0.000000   0.000000   0.000000   0.000000   0.000000
     31       0.000000   0.000000   0.000000   0.000000   0.000000   0.000000
     32       0.000000   0.000000   0.000000   0.000000   0.000000   0.000000
     33       0.000000   0.000000   0.000000   0.000000   0.000000   0.000000
     34       0.000000   0.000000   0.000000   0.000000   0.000000   0.000000
     35       0.000000   0.000000   0.000000   0.000000   0.000000   0.000000
     36       0.000000   0.000000   0.000000   0.000000   0.000000   0.000000
     37       0.000000   0.000000   0.000000   0.000000   0.000000   0.000000
     38       0.000000   0.000000   0.000000   0.000000   0.000000   0.000000
     39       0.000000   0.000000   0.000000   0.000000   0.000000   0.000000
     40       0.000000   0.000000   0.000000   0.000000   0.000000   0.000000
     41       0.000000   0.000000   0.000000   0.000000   0.000000   0.000000
     42       0.000000   0.000000   0.000000   0.000000   0.000000   0.000000
     43       0.000000   0.000000   0.000000   0.000000   0.000000   0.000000
     44       0.000000   0.000000   0.000000   0.000000   0.000000   0.000000
     45       0.000000   0.000000   0.000000   0.000000   0.000000   0.000000
     46       0.000000   0.000000   0.000000   0.000000   0.000000   0.000000
     47       0.000000   0.000000   0.000000   0.000000   0.000000   0.000000
     48       0.000000   0.000000   0.000000   0.000000   0.000000   0.000000
     49       0.000000   0.000000   0.000000   0.000000   0.000000   0.000000
     50       0.000000   0.000000   0.000000   0.000000   0.000000   0.000000
     51       0.000000   0.000000   0.000000   0.000000   0.000000   0.000000
     52       0.000000   0.000000   0.000000   0.000000   0.000000   0.000000
     53       0.000000   0.000000   0.000000   0.000000   0.000000   0.000000
     54       0.000000   0.000000   0.000000   0.000000   0.000000   0.000000
     55       0.000000   0.000000   0.000000   0.000000   0.000000   0.000000
     56       0.000000   0.000000   0.000000   0.000000   0.000000   0.000000
     57       0.000000   0.000000   0.000000   0.000000   0.000000   0.000000
     58       0.000000   0.000000   0.000000   0.000000   0.000000   0.000000
     59       0.000000   0.000000   0.000000   0.000000   0.000000   0.000000
     60       0.000000   0.000000   0.000000   0.000000   0.000000   0.000000
     61       0.000000   0.000000   0.000000   0.000000   0.000000   0.000000
     62       0.000000   0.000000   0.000000   0.000000   0.000000   0.000000
     63       0.000000   0.000000   0.000000   0.000000   0.000000   0.000000
     64       0.000000   0.000000   0.000000   0.000000   0.000000   0.000000
     65       0.000000   0.000000   0.000000   0.000000   0.000000   0.000000
     66       0.000000   0.000000   0.000000   0.000000   0.000000   0.000000
     67       0.000000   0.000000   0.000000   0.000000   0.000000   0.000000
     68       0.000000   0.000000   0.000000   0.000000   0.000000   0.000000
     69       0.000000   0.000000   0.000000   0.000000   0.000000   0.000000
     70       0.000000   0.000000   0.000000   0.000000   0.000000   0.000000
     71       0.000000   0.000000   0.000000   0.000000   0.000000   0.000000
     72       0.000000   0.000000   0.000000   0.000000   0.000000   0.000000
     73       0.000000   0.000000   0.000000   0.000000   0.000000   0.000000
     74       0.000000   0.000000   0.000000   0.000000   0.000000   0.000000
     75       0.000000   0.000000   0.000000   0.000000   0.000000   0.000000
     76       0.000000   0.000000   0.000000   0.000000   0.000000   0.000000
     77       0.000000   0.000000   0.000000   0.000000   0.000000   0.000000
     78       0.000000   0.000000   0.000000   0.000000   0.000000   0.000000
     79       0.000000   0.000000   0.000000   0.000000   0.000000   0.000000
     80       0.000000   0.000000   0.000000   0.000000   0.000000   0.000000
     81       0.000000   0.000000   0.000000   0.000000   0.000000   0.000000
     82       0.000000   0.000000   0.000000   0.000000   0.000000   0.000000
     83       0.000000   0.000000   0.000000   0.000000   0.000000   0.000000
     84       0.000000   0.000000   0.000000   0.000000   0.000000   0.000000
     85       0.000000   0.000000   0.000000   0.000000   0.000000   0.000000
     86       0.000000   0.000000   0.000000   0.000000   0.000000   0.000000
     87       0.000000   0.000000   0.000000   0.000000   0.000000   0.000000
     88       0.000000   0.000000   0.000000   0.000000   0.000000   0.000000
     89       0.000000   0.000000   0.000000   0.000000   0.000000   0.000000
     90       0.000000   0.000000   0.000000   0.000000   0.000000   0.000000
     91       0.000000   0.000000   0.000000   0.000000   0.000000   0.000000
     92       0.000000   0.000000   0.000000   0.000000   0.000000   0.000000
     93       0.000000   0.000000   0.000000   0.000000   0.000000   0.000000
     94       0.000000   0.000000   0.000000   0.000000   0.000000   0.000000
     95       0.000000   0.000000   0.000000   0.000000   0.000000   0.000000
     96       0.000000   0.000000   0.000000   0.000000   0.000000   0.000000
     97       0.000000   0.000000   0.000000   0.000000   0.000000   0.000000
     98       0.000000   0.000000   0.000000   0.000000   0.000000   0.000000
     99       0.000000   0.000000   0.000000   0.000000   0.000000   0.000000
    100       0.000000   0.000000   0.000000   0.000000   0.000000   0.000000
    101       0.000000   0.000000   0.000000   0.000000   0.000000   0.000000
    102       0.000000   0.000000   0.000000   0.000000   0.000000   0.000000
    103       0.000000   0.000000   0.000000   0.000000   0.000000   0.000000
    104       0.000000   0.000000   0.000000   0.000000   0.000000   0.000000
    105       0.000000   0.000000   0.000000   0.000000   0.000000   0.000000
    106       0.000000   0.000000   0.000000   0.000000   0.000000   0.000000
    107       0.000000   0.000000   0.000000   0.000000   0.000000   0.000000
    108       0.000000   0.000000   0.000000   0.000000   0.000000   0.000000
    109       0.000000   0.000000   0.000000   0.000000   0.000000   0.000000
    110       0.000000   0.000000   0.000000   0.000000   0.000000   0.000000
    111       0.000000   0.000000   0.000000   0.000000   0.000000   0.000000
    112       0.000000   0.000000   0.000000   0.000000   0.000000   0.000000
    113       0.000000   0.000000   0.000000   0.000000   0.000000   0.000000
    114       0.000000   0.000000   0.000000   0.000000   0.000000   0.000000
    115       0.000000   0.000000   0.000000   0.000000   0.000000   0.000000
    116       0.000000   0.000000   0.000000   0.000000   0.000000   0.000000
    117       0.000000   0.000000   0.000000   0.000000   0.000000   0.000000
    118       0.000000   0.000000   0.000000   0.000000   0.000000   0.000000
    119       0.000000   0.000000   0.000000   0.000000   0.000000   0.000000
    120       0.000000   0.000000   0.000000   0.000000   0.000000   0.000000
    121       0.000000   0.000000   0.000000   0.000000   0.000000   0.000000
    122       0.000000   0.000000   0.000000   0.000000   0.000000   0.000000
    123       0.000000   0.000000   0.000000   0.000000   0.000000   0.000000
    124       0.000000   0.000000   0.000000   0.000000   0.000000   0.000000
    125       0.000000   0.000000   0.000000   0.000000   0.000000   0.000000
    126       0.000000   0.000000   0.000000   0.000000   0.000000   0.000000
    127       0.000000   0.000000   0.000000   0.000000   0.000000   0.000000
    128       0.000000   0.000000   0.000000   0.000000   0.000000   0.000000
                  6          7          8          9         10         11    
      0      -0.041677   0.011654  -0.075123  -0.001503   0.028652  -0.010576
      1      -0.110130   0.040062   0.053597  -0.021845  -0.016390   0.052011
      2      -0.003222   0.088836   0.032698   0.160703  -0.132476   0.086262
      3      -0.039184   0.011821  -0.078128   0.002679   0.028363  -0.015201
      4      -0.083326   0.030421   0.002407  -0.001834  -0.007018   0.037351
      5       0.008667   0.060460  -0.019946   0.112151  -0.104866   0.162959
      6      -0.060993   0.017774  -0.042630  -0.015897   0.021237   0.007887
      7      -0.064807   0.020203  -0.025372  -0.006785   0.015552   0.002622
      8       0.024523   0.018441  -0.026292  -0.025845   0.018248   0.044350
      9      -0.083752   0.022480  -0.005059  -0.039284   0.014479   0.037292
     10      -0.074503   0.020624   0.000320  -0.032215   0.028070  -0.016673
     11       0.030193   0.007140   0.022176  -0.109717   0.108330  -0.147649
     12      -0.085667   0.022047  -0.002334  -0.043338   0.014728   0.042231
     13      -0.101159   0.030380   0.051492  -0.051262   0.017991  -0.002663
     14       0.017498   0.037642   0.074701  -0.058312   0.078263  -0.227418
     15      -0.064511   0.016511  -0.037400  -0.024465   0.021694   0.018605
     16      -0.119564   0.040285   0.078361  -0.046591  -0.003782   0.030940
     17       0.000926   0.077554   0.079987   0.075036  -0.040174  -0.113587
     18      -0.020631   0.007427  -0.108043   0.020403   0.033807  -0.037395
     19      -0.075684   0.030054  -0.016984   0.017654  -0.016929   0.052874
     20       0.004627   0.069902  -0.055312   0.180369  -0.177719   0.313024
     21      -0.095454   0.024466   0.021423  -0.052695   0.007552   0.056951
     22      -0.063237   0.013940  -0.019795  -0.035954   0.044922  -0.042619
     23       0.044281  -0.028594   0.018529  -0.208758   0.193439  -0.228880
     24      -0.066335   0.016381  -0.034892  -0.027722   0.021869   0.022312
     25      -0.140489   0.047783   0.118178  -0.061890  -0.011093   0.040615
     26      -0.008364   0.099193   0.120525   0.112978  -0.062101  -0.177254
     27      -0.083616   0.026295  -0.018173  -0.022079   0.015929   0.006160
     28      -0.005693  -0.003582  -0.103414   0.018235   0.035426  -0.017190
     29       0.013150  -0.026824  -0.054842  -0.132723   0.114813   0.046706
     30      -0.074295   0.024438  -0.026042  -0.019861   0.018157   0.008456
     31       0.036997  -0.016948  -0.137609   0.031408   0.039351  -0.002186
     32       0.019403  -0.052633  -0.056380  -0.100438   0.081000   0.036211
     33      -0.040368   0.017843  -0.052667  -0.018980   0.028441   0.029205
     34       0.049217  -0.025184  -0.168283   0.025682   0.033496   0.006627
     35       0.051128  -0.084829  -0.174447  -0.123550   0.047042   0.059617
     36      -0.089990   0.038562  -0.044123  -0.058359   0.034679   0.020484
     37       0.075598  -0.044202  -0.239282   0.008354   0.020445   0.025536
     38      -0.000485  -0.040149   0.030244  -0.060861   0.085169   0.008706
     39       0.080978  -0.020810   0.080947  -0.092919  -0.012005   0.036231
     40       0.088841  -0.063592  -0.141466   0.122893  -0.014265  -0.116541
     41      -0.162380  -0.137773  -0.043032  -0.017230   0.042240   0.054067
     42       0.117025  -0.191011   0.046533  -0.018702  -0.048016   0.051969
     43       0.060711   0.005594  -0.150359   0.099491   0.058906  -0.123529
     44      -0.117661  -0.266482  -0.031591   0.026510  -0.074131   0.069376
     45      -0.056571   0.017524  -0.047162  -0.011105   0.021214   0.004062
     46      -0.028195   0.006163  -0.078191   0.016204   0.021632  -0.009225
     47       0.032746  -0.011118  -0.068224  -0.056964   0.031767   0.094318
     48      -0.028190   0.009244  -0.080190   0.003694   0.026881  -0.003614
     49      -0.016139   0.002695  -0.093585   0.029895   0.011553  -0.001442
     50       0.055915  -0.017921  -0.105319   0.010200  -0.052592   0.162879
     51      -0.091883   0.012992   0.031782   0.045162  -0.023925  -0.046820
     52       0.020441   0.015671   0.005945   0.075453   0.077043  -0.014158
     53       0.005732  -0.049986   0.012022  -0.053715   0.067986   0.003286
     54      -0.073273   0.003675   0.108758   0.087465  -0.027492  -0.019879
     55      -0.016112   0.036973   0.053538   0.100728   0.076875  -0.077980
     56       0.026677  -0.062945  -0.065150  -0.095328   0.069625   0.042686
     57      -0.129064   0.013628  -0.001052   0.062697  -0.061248  -0.136124
     58       0.003198   0.023435   0.015593   0.084429   0.072300  -0.046641
     59      -0.023803  -0.020094   0.081213  -0.035466   0.089123  -0.032951
     60      -0.086794   0.013549   0.033872   0.040293  -0.017957  -0.033633
     61       0.076056   0.011041   0.071069   0.064802   0.122676   0.115454
     62       0.001820  -0.069427   0.089082   0.031325   0.020050  -0.042878
     63      -0.104485   0.024817  -0.040933  -0.005662  -0.014018  -0.057724
     64       0.105520   0.008704   0.028095   0.033417   0.116274   0.172385
     65      -0.012715  -0.073031   0.155664   0.075643   0.022574  -0.075675
     66      -0.049228   0.014196   0.068132   0.018966   0.022538   0.062927
     67       0.090382   0.009669   0.065283   0.054641   0.125653   0.145546
     68       0.021649  -0.075687   0.028845   0.012224  -0.010050  -0.019938
     69      -0.025924   0.007753  -0.101794   0.013036   0.034187  -0.029599
     70      -0.123466   0.047216   0.073860  -0.017935  -0.033561   0.078967
     71      -0.015616   0.119507   0.036999   0.265631  -0.226342   0.179025
     72      -0.104468   0.026420   0.027190  -0.061110   0.009459   0.064705
     73      -0.108808   0.030752   0.070774  -0.069882   0.027182  -0.018182
     74       0.021232   0.028475   0.110939  -0.121236   0.145755  -0.376520
     75       0.177891  -0.001046   0.026114  -0.011427  -0.007666   0.016977
     76       0.084191  -0.086235  -0.098738   0.089801  -0.075246  -0.102601
     77      -0.073466  -0.148912  -0.039300   0.029082  -0.062646   0.048021
     78       0.210912  -0.021931  -0.025363   0.052979  -0.007080  -0.002456
     79       0.094164  -0.104785  -0.108922   0.106687  -0.088976  -0.105927
     80      -0.045803  -0.252225  -0.048353   0.069244  -0.159047   0.046197
     81       0.200670   0.129485   0.046410  -0.045767   0.017011   0.009300
     82       0.117885  -0.159627  -0.105155   0.124267  -0.158741  -0.105287
     83      -0.088906  -0.113881  -0.036246   0.012818  -0.023847   0.049249
     84       0.151802  -0.072795   0.038212  -0.020120  -0.023960   0.032491
     85       0.031246   0.003614  -0.022718  -0.021299  -0.020953  -0.072244
     86      -0.031821   0.026150  -0.043181   0.017412  -0.012690   0.024076
     87       0.122943  -0.200202   0.010148   0.035332  -0.024855   0.033919
     88      -0.017286   0.073177  -0.027893  -0.010973   0.113205  -0.079119
     89      -0.005791  -0.010384  -0.040373   0.011603  -0.084372   0.027814
     90       0.132459  -0.068241   0.103625  -0.111362  -0.060582   0.065470
     91       0.019143   0.022226  -0.014347  -0.032270   0.003509  -0.068902
     92      -0.079997   0.121068  -0.049051   0.028387   0.138777   0.012775
     93       0.188907   0.014543   0.001177   0.016911   0.007566   0.002376
     94       0.062682  -0.030586   0.054903  -0.132301  -0.180333  -0.032369
     95       0.035536   0.121506  -0.046185  -0.000205  -0.066584   0.008098
     96       0.226120   0.114232   0.008105  -0.031970  -0.023625   0.007238
     97       0.100319  -0.075111   0.082684  -0.147877  -0.278789  -0.034067
     98       0.015045   0.141828  -0.060985   0.009482  -0.014247   0.009134
     99       0.198042   0.029757  -0.050944   0.101912   0.071168  -0.038297
    100       0.070570  -0.040288   0.053620  -0.123735  -0.191859  -0.037829
    101       0.071001   0.058026  -0.013301  -0.019548  -0.177604   0.009389
    102       0.134004  -0.063095   0.053081  -0.042020  -0.022501   0.036135
    103       0.095826  -0.073876  -0.143816   0.129866  -0.020496  -0.115490
    104      -0.130775  -0.234674  -0.033863   0.014595  -0.043501   0.066387
    105       0.164674  -0.048291   0.021723   0.005069  -0.003932   0.019216
    106       0.037148   0.001647   0.097962  -0.228936  -0.196158   0.018045
    107       0.079435   0.266219  -0.076188  -0.006440  -0.047351  -0.011452
    108       0.188290   0.011320  -0.005442   0.028334   0.014389  -0.002913
    109       0.050732  -0.023027   0.146371  -0.291247  -0.277845   0.041221
    110       0.116806   0.325784  -0.081504  -0.014264  -0.072703  -0.025265
    111       0.153943  -0.061470   0.068349  -0.069024  -0.050420   0.058163
    112       0.031311   0.009424   0.101477  -0.240302  -0.191119   0.025547
    113       0.056990   0.326914  -0.105308   0.001544   0.028601  -0.008283
    114       0.134586  -0.140502   0.017044   0.047966   0.016883   0.015813
    115       0.011151   0.040858   0.077872  -0.224748  -0.130438   0.025094
    116       0.095584   0.251342  -0.065023  -0.011633  -0.084330  -0.014988
    117      -0.107182  -0.001074   0.089287   0.125017  -0.070720  -0.115740
    118       0.074826   0.012040   0.195003   0.102380   0.171781   0.135503
    119      -0.009337  -0.077044   0.157452   0.088632   0.007072  -0.080750
    120      -0.104461   0.000190   0.086869   0.118466  -0.065516  -0.106594
    121       0.106259   0.018539   0.224339   0.090286   0.202707   0.212962
    122      -0.015593  -0.086590   0.207987   0.153185  -0.027792  -0.123359
    123      -0.137488  -0.009086   0.066735   0.149527  -0.109367  -0.197481
    124       0.064048   0.010139   0.205499   0.112206   0.169378   0.112924
    125      -0.023808  -0.077815   0.220379   0.106062   0.034261  -0.094156
    126      -0.095178  -0.005066   0.154585   0.170684  -0.076113  -0.104523
    127       0.053529   0.008710   0.244143   0.130677   0.178685   0.095557
    128       0.002600  -0.072995   0.095040   0.049656   0.003646  -0.054151
                 12         13         14         15         16         17    
      0      -0.029349   0.010835   0.020083  -0.024465   0.025905   0.005434
      1       0.045758   0.009246  -0.022985  -0.013923  -0.009373   0.002689
      2      -0.000521  -0.028611   0.003197  -0.105185   0.016574   0.008018
      3      -0.037507   0.009842   0.022490  -0.029633   0.029514   0.005886
      4      -0.027040   0.011746   0.016687   0.009136   0.015012   0.006844
      5       0.023951  -0.001092   0.033074   0.080444  -0.025334  -0.000365
      6       0.021374   0.010691  -0.003383  -0.024531   0.007065   0.002965
      7      -0.073812   0.015832   0.036451   0.020960   0.029933   0.008578
      8       0.017372   0.033041   0.028804   0.187670  -0.041750  -0.006321
      9       0.090271   0.011562  -0.032456  -0.019905  -0.019173  -0.001540
     10      -0.048691   0.018247   0.018507   0.019725   0.019461   0.006562
     11      -0.016717   0.043905   0.000827   0.166787  -0.032155  -0.006559
     12       0.099588   0.012424  -0.035769  -0.015194  -0.023842  -0.002374
     13       0.024280   0.016580  -0.022047  -0.000253  -0.004739   0.001397
     14      -0.045377   0.021365  -0.031580  -0.003003   0.009050  -0.004331
     15       0.039747   0.011934  -0.009180  -0.017745  -0.001050   0.001141
     16       0.070254   0.011810  -0.042144  -0.020161  -0.017658   0.000054
     17      -0.036915  -0.016303  -0.032940  -0.158883   0.038639   0.003778
     18      -0.090991   0.008685   0.045624  -0.036325   0.051039   0.009168
     19      -0.046652   0.009768   0.031067   0.010949   0.022543   0.008501
     20       0.049566  -0.009830   0.056819   0.109548  -0.037718   0.000455
     21       0.137044   0.009091  -0.053354  -0.020426  -0.037473  -0.007275
     22      -0.085439   0.023217   0.034530   0.033216   0.030654   0.010219
     23      -0.027065   0.069529   0.001760   0.261972  -0.050434  -0.009463
     24       0.046377   0.012590  -0.011170  -0.013184  -0.004385   0.000725
     25       0.124149   0.010089  -0.072092  -0.039294  -0.034106  -0.003015
     26      -0.058955  -0.035309  -0.060662  -0.312499   0.075936   0.006772
     27       0.032199   0.013080   0.001576  -0.003946   0.013545   0.012308
     28      -0.141768   0.004069   0.052589  -0.040026   0.040390  -0.001189
     29       0.088955  -0.012288   0.024880  -0.112451   0.014696   0.045349
     30       0.026113   0.012680  -0.001437  -0.006681   0.007695   0.007809
     31      -0.171664   0.006153   0.032493  -0.059251   0.012777  -0.027678
     32       0.032300   0.010740   0.003456  -0.131505   0.035263   0.014653
     33       0.016271   0.014590  -0.019064  -0.020204  -0.014494  -0.010143
     34      -0.203976   0.029897   0.016053  -0.069423   0.037062  -0.052855
     35      -0.102677   0.112134  -0.056411  -0.163639   0.155206  -0.085936
     36       0.054434   0.014578   0.013624  -0.001796   0.031444   0.022131
     37      -0.273418   0.082705  -0.020737  -0.098384   0.096607  -0.110729
     38       0.092115  -0.047098   0.034637  -0.102584  -0.041473   0.068225
     39      -0.013359  -0.022275   0.036610  -0.016439  -0.087894   0.026253
     40       0.187971  -0.021435  -0.089126   0.040212   0.107806  -0.074562
     41       0.057950  -0.174529  -0.070989   0.025400   0.134107  -0.279219
     42      -0.095906  -0.027311  -0.006301   0.032031   0.065313  -0.004192
     43       0.253547  -0.122515  -0.118886   0.041707   0.183432  -0.279340
     44      -0.064180  -0.026161  -0.028117   0.032975   0.038019   0.020105
     45       0.013628   0.009457  -0.001500  -0.024407   0.007492   0.001872
     46      -0.131266   0.014478   0.055741   0.013341   0.040613   0.001262
     47       0.022049   0.052198   0.032058   0.207598  -0.035974  -0.015841
     48      -0.017394   0.005281   0.003509  -0.042928   0.005361  -0.005289
     49      -0.151867   0.023784   0.056542   0.041912   0.036536  -0.010397
     50      -0.054602   0.124484   0.027998   0.452870  -0.057659  -0.084256
     51      -0.013039   0.004166   0.000605   0.028254  -0.010134   0.001620
     52      -0.020303  -0.109514   0.085124  -0.009484  -0.148555   0.073115
     53       0.051618  -0.025013   0.019142  -0.101239  -0.016326   0.037718
     54      -0.070260   0.064546  -0.122519   0.055212  -0.026778  -0.037201
     55       0.098079  -0.234154   0.231590   0.021778  -0.230395   0.158706
     56      -0.017991   0.048441  -0.040843  -0.139432   0.059902  -0.014218
     57       0.009077  -0.073700   0.143844   0.038252  -0.016036   0.038532
     58       0.024784  -0.162632   0.153432   0.002095  -0.176288   0.106125
     59       0.197723  -0.153533   0.140954  -0.066531  -0.118437   0.126681
     60      -0.014699   0.014731  -0.016871   0.027384  -0.006695  -0.003604
     61      -0.083924   0.025473  -0.155302  -0.015309  -0.125436  -0.005406
     62      -0.038826   0.011057  -0.046716  -0.047097  -0.034096   0.001094
     63       0.044393  -0.056900   0.092352  -0.007230  -0.026325   0.048486
     64      -0.217266   0.084287  -0.405114  -0.047051  -0.255775  -0.047106
     65       0.036538  -0.001209   0.095428  -0.007131   0.074678   0.009333
     66      -0.037014   0.101116  -0.161245   0.013214   0.025755  -0.053438
     67      -0.129401   0.057354  -0.252613  -0.025482  -0.159965  -0.026498
     68      -0.204610   0.051411  -0.299864  -0.073805  -0.215086  -0.033710
     69      -0.076938   0.010563   0.041353  -0.025175   0.044230   0.008547
     70       0.081699   0.005369  -0.038298  -0.028286  -0.020357   0.001509
     71       0.006236  -0.057996   0.005456  -0.211761   0.034460   0.015591
     72       0.154343   0.013903  -0.059524  -0.008904  -0.045636  -0.005500
[...]
    123      -0.000038   0.000012   0.000081
    124       0.000140  -0.000042   0.000096
    125       0.000006  -0.000045  -0.000035
    126      -0.000123   0.000009  -0.000007
    127      -0.000283   0.000071  -0.000109
    128      -0.000332   0.000133  -0.000107


-----------
IR SPECTRUM  
-----------

 Mode    freq (cm**-1)   T**2         TX         TY         TZ
-------------------------------------------------------------------
   6:        33.64    0.000000  (  0.000000   0.000000   0.000000)
   7:        35.11    0.000000  (  0.000000   0.000000   0.000000)
   8:        50.85    0.000000  (  0.000000   0.000000   0.000000)
   9:        57.84    0.000000  (  0.000000   0.000000   0.000000)
  10:        60.78    0.000000  (  0.000000   0.000000   0.000000)
  11:        66.58    0.000000  (  0.000000   0.000000   0.000000)
  12:        80.74    0.000000  (  0.000000   0.000000   0.000000)
  13:        86.88    0.000000  (  0.000000   0.000000   0.000000)
  14:        97.07    0.000000  (  0.000000   0.000000   0.000000)
  15:       113.32    0.000000  (  0.000000   0.000000   0.000000)
  16:       128.04    0.000000  (  0.000000   0.000000   0.000000)
  17:       144.54    0.000000  (  0.000000   0.000000   0.000000)
  18:       157.29    0.000000  (  0.000000   0.000000   0.000000)
  19:       160.42    0.000000  (  0.000000   0.000000   0.000000)
  20:       203.56    0.000000  (  0.000000   0.000000   0.000000)
  21:       215.94    0.000000  (  0.000000   0.000000   0.000000)
  22:       263.58    0.000000  (  0.000000   0.000000   0.000000)
  23:       264.75    0.000000  (  0.000000   0.000000   0.000000)
  24:       269.98    0.000000  (  0.000000   0.000000   0.000000)
  25:       282.92    0.000000  (  0.000000   0.000000   0.000000)
  26:       368.08    0.000000  (  0.000000   0.000000   0.000000)
  27:       377.37    0.000000  (  0.000000   0.000000   0.000000)
  28:       381.21    0.000000  (  0.000000   0.000000   0.000000)
  29:       391.37    0.000000  (  0.000000   0.000000   0.000000)
  30:       427.41    0.000000  (  0.000000   0.000000   0.000000)
  31:       434.30    0.000000  (  0.000000   0.000000   0.000000)
  32:       462.74    0.000000  (  0.000000   0.000000   0.000000)
  33:       509.19    0.000000  (  0.000000   0.000000   0.000000)
  34:       588.44    0.000000  (  0.000000   0.000000   0.000000)
  35:       624.31    0.000000  (  0.000000   0.000000   0.000000)
  36:       665.55    0.000000  (  0.000000   0.000000   0.000000)
  37:       758.13    0.000000  (  0.000000   0.000000   0.000000)
  38:       760.53    0.000000  (  0.000000   0.000000   0.000000)
  39:       772.20    0.000000  (  0.000000   0.000000   0.000000)
  40:       815.27    0.000000  (  0.000000   0.000000   0.000000)
  41:       822.84    0.000000  (  0.000000   0.000000   0.000000)
  42:       857.55    0.000000  (  0.000000   0.000000   0.000000)
  43:       879.05    0.000000  (  0.000000   0.000000   0.000000)
  44:       904.03    0.000000  (  0.000000   0.000000   0.000000)
  45:       917.30    0.000000  (  0.000000   0.000000   0.000000)
  46:       922.86    0.000000  (  0.000000   0.000000   0.000000)
  47:       932.38    0.000000  (  0.000000   0.000000   0.000000)
  48:       935.02    0.000000  (  0.000000   0.000000   0.000000)
  49:       940.64    0.000000  (  0.000000   0.000000   0.000000)
  50:       941.33    0.000000  (  0.000000   0.000000   0.000000)
  51:       952.23    0.000000  (  0.000000   0.000000   0.000000)
  52:       973.40    0.000000  (  0.000000   0.000000   0.000000)
  53:       983.36    0.000000  (  0.000000   0.000000   0.000000)
  54:      1017.74    0.000000  (  0.000000   0.000000   0.000000)
  55:      1019.44    0.000000  (  0.000000   0.000000   0.000000)
  56:      1059.19    0.000000  (  0.000000   0.000000   0.000000)
  57:      1068.43    0.000000  (  0.000000   0.000000   0.000000)
  58:      1071.80    0.000000  (  0.000000   0.000000   0.000000)
  59:      1084.59    0.000000  (  0.000000   0.000000   0.000000)
  60:      1099.87    0.000000  (  0.000000   0.000000   0.000000)
  61:      1104.48    0.000000  (  0.000000   0.000000   0.000000)
  62:      1116.51    0.000000  (  0.000000   0.000000   0.000000)
  63:      1126.03    0.000000  (  0.000000   0.000000   0.000000)
  64:      1136.96    0.000000  (  0.000000   0.000000   0.000000)
  65:      1143.92    0.000000  (  0.000000   0.000000   0.000000)
  66:      1178.97    0.000000  (  0.000000   0.000000   0.000000)
  67:      1187.45    0.000000  (  0.000000   0.000000   0.000000)
  68:      1206.57    0.000000  (  0.000000   0.000000   0.000000)
  69:      1209.40    0.000000  (  0.000000   0.000000   0.000000)
  70:      1217.66    0.000000  (  0.000000   0.000000   0.000000)
  71:      1251.10    0.000000  (  0.000000   0.000000   0.000000)
  72:      1262.30    0.000000  (  0.000000   0.000000   0.000000)
  73:      1268.46    0.000000  (  0.000000   0.000000   0.000000)
  74:      1271.19    0.000000  (  0.000000   0.000000   0.000000)
  75:      1275.84    0.000000  (  0.000000   0.000000   0.000000)
  76:      1276.80    0.000000  (  0.000000   0.000000   0.000000)
  77:      1280.36    0.000000  (  0.000000   0.000000   0.000000)
  78:      1293.13    0.000000  (  0.000000   0.000000   0.000000)
  79:      1311.91    0.000000  (  0.000000   0.000000   0.000000)
  80:      1323.83    0.000000  (  0.000000   0.000000   0.000000)
  81:      1334.38    0.000000  (  0.000000   0.000000   0.000000)
  82:      1355.20    0.000000  (  0.000000   0.000000   0.000000)
  83:      1367.90    0.000000  (  0.000000   0.000000   0.000000)
  84:      1371.29    0.000000  (  0.000000   0.000000   0.000000)
  85:      1422.79    0.000000  (  0.000000   0.000000   0.000000)
  86:      1427.16    0.000000  (  0.000000   0.000000   0.000000)
  87:      1429.16    0.000000  (  0.000000   0.000000   0.000000)
  88:      1454.14    0.000000  (  0.000000   0.000000   0.000000)
  89:      1473.32    0.000000  (  0.000000   0.000000   0.000000)
  90:      1495.21    0.000000  (  0.000000   0.000000   0.000000)
  91:      1498.09    0.000000  (  0.000000   0.000000   0.000000)
  92:      1501.55    0.000000  (  0.000000   0.000000   0.000000)
  93:      1505.03    0.000000  (  0.000000   0.000000   0.000000)
  94:      1505.55    0.000000  (  0.000000   0.000000   0.000000)
  95:      1509.05    0.000000  (  0.000000   0.000000   0.000000)
  96:      1510.97    0.000000  (  0.000000   0.000000   0.000000)
  97:      1512.24    0.000000  (  0.000000   0.000000   0.000000)
  98:      1516.13    0.000000  (  0.000000   0.000000   0.000000)
  99:      1560.04    0.000000  (  0.000000   0.000000   0.000000)
 100:      1566.17    0.000000  (  0.000000   0.000000   0.000000)
 101:      1566.97    0.000000  (  0.000000   0.000000   0.000000)
 102:      1669.32    0.000000  (  0.000000   0.000000   0.000000)
 103:      2855.70    0.000000  (  0.000000   0.000000   0.000000)
 104:      2877.68    0.000000  (  0.000000   0.000000   0.000000)
 105:      2932.47    0.000000  (  0.000000   0.000000   0.000000)
 106:      2940.65    0.000000  (  0.000000   0.000000   0.000000)
 107:      2941.20    0.000000  (  0.000000   0.000000   0.000000)
 108:      2942.99    0.000000  (  0.000000   0.000000   0.000000)
 109:      2946.94    0.000000  (  0.000000   0.000000   0.000000)
 110:      2959.05    0.000000  (  0.000000   0.000000   0.000000)
 111:      2963.02    0.000000  (  0.000000   0.000000   0.000000)
 112:      2966.45    0.000000  (  0.000000   0.000000   0.000000)
 113:      2968.23    0.000000  (  0.000000   0.000000   0.000000)
 114:      2977.27    0.000000  (  0.000000   0.000000   0.000000)
 115:      2979.59    0.000000  (  0.000000   0.000000   0.000000)
 116:      2982.16    0.000000  (  0.000000   0.000000   0.000000)
 117:      2984.96    0.000000  (  0.000000   0.000000   0.000000)
 118:      2985.81    0.000000  (  0.000000   0.000000   0.000000)
 119:      2993.34    0.000000  (  0.000000   0.000000   0.000000)
 120:      2996.49    0.000000  (  0.000000   0.000000   0.000000)
 121:      2999.24    0.000000  (  0.000000   0.000000   0.000000)
 122:      3048.37    0.000000  (  0.000000   0.000000   0.000000)
 123:      3055.86    0.000000  (  0.000000   0.000000   0.000000)
 124:      3062.37    0.000000  (  0.000000   0.000000   0.000000)
 125:      3071.68    0.000000  (  0.000000   0.000000   0.000000)
 126:      3087.32    0.000000  (  0.000000   0.000000   0.000000)
 127:      3326.19    0.000000  (  0.000000   0.000000   0.000000)
 128:      3400.91    0.000000  (  0.000000   0.000000   0.000000)

The first frequency considered to be a vibration is 6
The total number of vibrations considered is 123


--------------------------
THERMOCHEMISTRY AT 298.15K
--------------------------

Temperature         ... 298.15 K
Pressure            ... 1.00 atm
Total Mass          ... 234.39 AMU

Throughout the following assumptions are being made:
  (1) The electronic state is orbitally nondegenerate
  (2) There are no thermally accessible electronically excited states
  (3) Hindered rotations indicated by low frequency modes are not
      treated as such but are treated as vibrations and this may
      cause some error
  (4) All equations used are the standard statistical mechanics
      equations for an ideal gas
  (5) All vibrations are strictly harmonic

freq.      33.64  E(vib)   ...       0.55 
freq.      35.11  E(vib)   ...       0.54 
freq.      50.85  E(vib)   ...       0.52 
freq.      57.84  E(vib)   ...       0.51 
freq.      60.78  E(vib)   ...       0.51 
freq.      66.58  E(vib)   ...       0.50 
freq.      80.74  E(vib)   ...       0.48 
freq.      86.88  E(vib)   ...       0.48 
freq.      97.07  E(vib)   ...       0.46 
freq.     113.32  E(vib)   ...       0.45 
freq.     128.04  E(vib)   ...       0.43 
freq.     144.54  E(vib)   ...       0.41 
freq.     157.29  E(vib)   ...       0.40 
freq.     160.42  E(vib)   ...       0.39 
freq.     203.56  E(vib)   ...       0.35 
freq.     215.94  E(vib)   ...       0.34 
freq.     263.58  E(vib)   ...       0.29 
freq.     264.75  E(vib)   ...       0.29 
freq.     269.98  E(vib)   ...       0.29 
freq.     282.92  E(vib)   ...       0.28 
freq.     368.08  E(vib)   ...       0.21 
freq.     377.37  E(vib)   ...       0.21 
freq.     381.21  E(vib)   ...       0.21 
freq.     391.37  E(vib)   ...       0.20 
freq.     427.41  E(vib)   ...       0.18 
freq.     434.30  E(vib)   ...       0.17 
freq.     462.74  E(vib)   ...       0.16 
freq.     509.19  E(vib)   ...       0.14 
freq.     588.44  E(vib)   ...       0.10 
freq.     624.31  E(vib)   ...       0.09 
freq.     665.55  E(vib)   ...       0.08 
freq.     758.13  E(vib)   ...       0.06 
freq.     760.53  E(vib)   ...       0.06 
freq.     772.20  E(vib)   ...       0.05 
freq.     815.27  E(vib)   ...       0.05 
freq.     822.84  E(vib)   ...       0.05 
freq.     857.55  E(vib)   ...       0.04 
freq.     879.05  E(vib)   ...       0.04 
freq.     904.03  E(vib)   ...       0.03 
freq.     917.30  E(vib)   ...       0.03 
freq.     922.86  E(vib)   ...       0.03 
freq.     932.38  E(vib)   ...       0.03 
freq.     935.02  E(vib)   ...       0.03 
freq.     940.64  E(vib)   ...       0.03 
freq.     941.33  E(vib)   ...       0.03 
freq.     952.23  E(vib)   ...       0.03 
freq.     973.40  E(vib)   ...       0.03 
freq.     983.36  E(vib)   ...       0.02 
freq.    1017.74  E(vib)   ...       0.02 
freq.    1019.44  E(vib)   ...       0.02 
freq.    1059.19  E(vib)   ...       0.02 
freq.    1068.43  E(vib)   ...       0.02 
freq.    1071.80  E(vib)   ...       0.02 
freq.    1084.59  E(vib)   ...       0.02 
freq.    1099.87  E(vib)   ...       0.02 
freq.    1104.48  E(vib)   ...       0.02 
freq.    1116.51  E(vib)   ...       0.01 
freq.    1126.03  E(vib)   ...       0.01 
freq.    1136.96  E(vib)   ...       0.01 
freq.    1143.92  E(vib)   ...       0.01 
freq.    1178.97  E(vib)   ...       0.01 
freq.    1187.45  E(vib)   ...       0.01 
freq.    1206.57  E(vib)   ...       0.01 
freq.    1209.40  E(vib)   ...       0.01 
freq.    1217.66  E(vib)   ...       0.01 
freq.    1251.10  E(vib)   ...       0.01 
freq.    1262.30  E(vib)   ...       0.01 
freq.    1268.46  E(vib)   ...       0.01 
freq.    1271.19  E(vib)   ...       0.01 
freq.    1275.84  E(vib)   ...       0.01 
freq.    1276.80  E(vib)   ...       0.01 
freq.    1280.36  E(vib)   ...       0.01 
freq.    1293.13  E(vib)   ...       0.01 
freq.    1311.91  E(vib)   ...       0.01 
freq.    1323.83  E(vib)   ...       0.01 
freq.    1334.38  E(vib)   ...       0.01 
freq.    1355.20  E(vib)   ...       0.01 
freq.    1367.90  E(vib)   ...       0.01 
freq.    1371.29  E(vib)   ...       0.01 
freq.    1422.79  E(vib)   ...       0.00 
freq.    1427.16  E(vib)   ...       0.00 
freq.    1429.16  E(vib)   ...       0.00 
freq.    1454.14  E(vib)   ...       0.00 
freq.    1473.32  E(vib)   ...       0.00 
freq.    1495.21  E(vib)   ...       0.00 
freq.    1498.09  E(vib)   ...       0.00 
freq.    1501.55  E(vib)   ...       0.00 
freq.    1505.03  E(vib)   ...       0.00 
freq.    1505.55  E(vib)   ...       0.00 
freq.    1509.05  E(vib)   ...       0.00 
freq.    1510.97  E(vib)   ...       0.00 
freq.    1512.24  E(vib)   ...       0.00 
freq.    1516.13  E(vib)   ...       0.00 
freq.    1560.04  E(vib)   ...       0.00 
freq.    1566.17  E(vib)   ...       0.00 
freq.    1566.97  E(vib)   ...       0.00 
freq.    1669.32  E(vib)   ...       0.00 
freq.    2855.70  E(vib)   ...       0.00 
freq.    2877.68  E(vib)   ...       0.00 
freq.    2932.47  E(vib)   ...       0.00 
freq.    2940.65  E(vib)   ...       0.00 
freq.    2941.20  E(vib)   ...       0.00 
freq.    2942.99  E(vib)   ...       0.00 
freq.    2946.94  E(vib)   ...       0.00 
freq.    2959.05  E(vib)   ...       0.00 
freq.    2963.02  E(vib)   ...       0.00 
freq.    2966.45  E(vib)   ...       0.00 
freq.    2968.23  E(vib)   ...       0.00 
freq.    2977.27  E(vib)   ...       0.00 
freq.    2979.59  E(vib)   ...       0.00 
freq.    2982.16  E(vib)   ...       0.00 
freq.    2984.96  E(vib)   ...       0.00 
freq.    2985.81  E(vib)   ...       0.00 
freq.    2993.34  E(vib)   ...       0.00 
freq.    2996.49  E(vib)   ...       0.00 
freq.    2999.24  E(vib)   ...       0.00 
freq.    3048.37  E(vib)   ...       0.00 
freq.    3055.86  E(vib)   ...       0.00 
freq.    3062.37  E(vib)   ...       0.00 
freq.    3071.68  E(vib)   ...       0.00 
freq.    3087.32  E(vib)   ...       0.00 
freq.    3326.19  E(vib)   ...       0.00 
freq.    3400.91  E(vib)   ...       0.00 

------------
INNER ENERGY
------------

The inner energy is: U= E(el) + E(ZPE) + E(vib) + E(rot) + E(trans)
    E(el)   - is the total energy from the electronic structure calculation
              = E(kin-el) + E(nuc-el) + E(el-el) + E(nuc-nuc)
    E(ZPE)  - the the zero temperature vibrational energy from the frequency calculation
    E(vib)  - the the finite temperature correction to E(ZPE) due to population
              of excited vibrational states
    E(rot)  - is the rotational thermal energy
    E(trans)- is the translational thermal energy

Summary of contributions to the inner energy U:
Electronic energy                ...    -51.21086767 Eh
Zero point energy                ...      0.37756861 Eh     236.93 kcal/mol
Thermal vibrational correction   ...      0.01794218 Eh      11.26 kcal/mol
Thermal rotational correction    ...      0.00141627 Eh       0.89 kcal/mol
Thermal translational correction ...      0.00141627 Eh       0.89 kcal/mol
-----------------------------------------------------------------------
Total thermal energy                    -50.81252434 Eh


Summary of corrections to the electronic energy:
(perhaps to be used in another calculation)
Total thermal correction                  0.02077472 Eh      13.04 kcal/mol
Non-thermal (ZPE) correction              0.37756861 Eh     236.93 kcal/mol
-----------------------------------------------------------------------
Total correction                          0.39834333 Eh     249.96 kcal/mol


--------
ENTHALPY
--------

The enthalpy is H = U + kB*T
                kB is Boltzmann's constant
Total free energy                 ...    -50.81252434 Eh 
Thermal Enthalpy correction       ...      0.00094421 Eh       0.59 kcal/mol
-----------------------------------------------------------------------
Total Enthalpy                    ...    -50.81158013 Eh


Note: Only C1 symmetry has been detected, increase convergence thresholds 
      if your molecule has a higher symmetry. Symmetry factor of 1.0 is   
      used for the rotational entropy correction. 
 

Note: Rotational entropy computed according to Herzberg 
Infrared and Raman Spectra, Chapter V,1, Van Nostrand Reinhold, 1945 
Point Group:  C1, Symmetry Number:   1  
Rotational constants in cm-1:     0.023804     0.006075     0.005081 

Vibrational entropy computed according to the QRRHO of S. Grimme
Chem.Eur.J. 2012 18 9955


-------
ENTROPY
-------

The entropy contributions are T*S = T*(S(el)+S(vib)+S(rot)+S(trans))
     S(el)   - electronic entropy
     S(vib)  - vibrational entropy
     S(rot)  - rotational entropy
     S(trans)- translational entropy
The entropies will be listed as mutliplied by the temperature to get
units of energy

Electronic entropy                ...      0.00000000 Eh      0.00 kcal/mol
Vibrational entropy               ...      0.03257774 Eh     20.44 kcal/mol
Rotational entropy                ...      0.01617849 Eh     10.15 kcal/mol
Translational entropy             ...      0.02007763 Eh     12.60 kcal/mol
-----------------------------------------------------------------------
Final entropy term                ...      0.06883385 Eh     43.19 kcal/mol

In case the symmetry of your molecule has not been determined correctly
or in case you have a reason to use a different symmetry number we print 
out the resulting rotational entropy values for sn=1,12 :
 --------------------------------------------------------
|  sn= 1 | S(rot)=       0.01617849 Eh     10.15 kcal/mol|
|  sn= 2 | S(rot)=       0.01552403 Eh      9.74 kcal/mol|
|  sn= 3 | S(rot)=       0.01514120 Eh      9.50 kcal/mol|
|  sn= 4 | S(rot)=       0.01486957 Eh      9.33 kcal/mol|
|  sn= 5 | S(rot)=       0.01465888 Eh      9.20 kcal/mol|
|  sn= 6 | S(rot)=       0.01448674 Eh      9.09 kcal/mol|
|  sn= 7 | S(rot)=       0.01434119 Eh      9.00 kcal/mol|
|  sn= 8 | S(rot)=       0.01421512 Eh      8.92 kcal/mol|
|  sn= 9 | S(rot)=       0.01410391 Eh      8.85 kcal/mol|
|  sn=10 | S(rot)=       0.01400443 Eh      8.79 kcal/mol|
|  sn=11 | S(rot)=       0.01391444 Eh      8.73 kcal/mol|
|  sn=12 | S(rot)=       0.01383228 Eh      8.68 kcal/mol|
 --------------------------------------------------------


-------------------
GIBBS FREE ENERGY
-------------------

The Gibbs free energy is G = H - T*S

Total enthalpy                    ...    -50.81158013 Eh 
Total entropy correction          ...     -0.06883385 Eh    -43.19 kcal/mol
-----------------------------------------------------------------------
Final Gibbs free energy         ...    -50.88041398 Eh

For completeness - the Gibbs free energy minus the electronic energy
G-E(el)                           ...      0.33045369 Eh    207.36 kcal/mol


Total Time for Numerical Frequencies  :        78.869 sec
Time for Reference State(s)           :         0.090 sec
Time for Displacements                :        68.369 sec

Timings for individual modules:

Sum of individual times         ...        0.187 sec (=   0.003 min)
XTB module                      ...        0.187 sec (=   0.003 min) 100.0 %
                             ****ORCA TERMINATED NORMALLY****
TOTAL RUN TIME: 0 days 0 hours 1 minutes 19 seconds 392 msec
(SLURM) EXECUTION TIME: 79.409458001 seconds.
