 Entering Gaussian System
 *********************************************
 Gaussian 98:
 frequency output generated by the xtb code
 *********************************************
                         Standard orientation:
 --------------------------------------------------------------------
  Center     Atomic     Atomic              Coordinates (Angstroms)
  Number     Number      Type              X           Y           Z
 --------------------------------------------------------------------
    1          6             0        2.361537   -1.253025   -0.201544
    2          6             0        3.039624    0.000078    0.345338
    3          6             0        0.872864    1.255202    0.149383
    4          1             0        0.257633   -0.000059   -1.500262
    5          6             0        2.361296    1.253039   -0.201595
    6          1             0        0.390064    2.144061   -0.262351
    7          1             0        0.750201    1.275919    1.235033
    8          6             0        0.873087   -1.255354    0.149335
    9          1             0        2.977951    0.000087    1.435754
   10          1             0        4.095214    0.000161    0.068889
   11          6             0        0.228793   -0.000114   -0.408507
   12          1             0        0.750364   -1.276131    1.234972
   13          1             0        0.390414   -2.144258   -0.262459
   14          1             0        2.477339    1.286632   -1.287297
   15          1             0        2.828995    2.146676    0.214003
   16          1             0        2.477649   -1.286735   -1.287230
   17          1             0        2.829343   -2.146557    0.214153
   18         35             0       -1.723115    0.000112    0.023579
 --------------------------------------------------------------------
     1 basis functions        1 primitive gaussians
     1 alpha electrons        1 beta electrons
 
 Harmonic frequencies (cm**-1), IR intensities (km*mol⁻¹),
 Raman scattering activities (A**4/amu), Raman depolarization ratios,
 reduced masses (AMU), force constants (mDyne/A) and normal coordinates:
                      1                      2                      3
                        a                      a                      a 
 Frequencies --   125.4406               207.1573               228.3910
 Red. masses --    15.5910                19.3603                 6.8777
 Frc consts  --     0.0000                 0.0000                 0.0000
 IR Inten    --     1.9070                 3.1882                 0.2364
 Raman Activ --     0.0000                 0.0000                 0.0000
 Depolar     --     0.0000                 0.0000                 0.0000
 Atom AN      X      Y      Z        X      Y      Z        X      Y      Z
   1   6    -0.03  -0.03  -0.04     0.24   0.03   0.04    -0.04   0.07  -0.31
   2   6     0.20   0.00  -0.38     0.00   0.20   0.00    -0.00  -0.09   0.00
   3   6     0.06  -0.04   0.39    -0.18  -0.36   0.07    -0.11  -0.02  -0.31
   4   1     0.06  -0.00   0.09    -0.00  -0.11  -0.00    -0.00  -0.16   0.00
   5   6    -0.03   0.03  -0.04    -0.24   0.03  -0.04     0.04   0.07   0.31
   6   1    -0.02   0.00   0.18    -0.13  -0.12   0.07     0.00  -0.06  -0.24
   7   1     0.09  -0.06   0.12    -0.03  -0.15   0.03    -0.16   0.11  -0.11
   8   6     0.06   0.04   0.39     0.18  -0.36  -0.07     0.11  -0.02   0.31
   9   1     0.21   0.00  -0.10     0.00   0.07   0.00    -0.00  -0.12   0.00
  10   1     0.02   0.00  -0.26     0.00   0.11   0.00     0.00  -0.00   0.00
  11   6     0.05  -0.00   0.32     0.00  -0.41  -0.00     0.00  -0.23   0.00
  12   1     0.09   0.06   0.12     0.03  -0.15  -0.03     0.16   0.11   0.11
  13   1    -0.02  -0.00   0.18     0.13  -0.12  -0.07    -0.00  -0.06   0.24
  14   1    -0.11   0.05  -0.02    -0.09   0.00  -0.01     0.14   0.16   0.11
  15   1     0.02  -0.00  -0.02    -0.12   0.04  -0.03    -0.05  -0.02   0.25
  16   1    -0.11  -0.05  -0.02     0.09   0.00   0.01    -0.14   0.16  -0.11
  17   1     0.02   0.00  -0.02     0.12   0.04   0.03     0.05  -0.02  -0.25
  18  35    -0.15   0.00  -0.28    -0.00   0.38   0.00    -0.00   0.07   0.00
                      4                      5                      6
                        a                      a                      a 
 Frequencies --   239.1254               315.5155               419.3932
 Red. masses --    42.1795                 6.9877                 8.1469
 Frc consts  --     0.0000                 0.0000                 0.0000
 IR Inten    --     0.2557                 0.1996                 0.6852
 Raman Activ --     0.0000                 0.0000                 0.0000
 Depolar     --     0.0000                 0.0000                 0.0000
 Atom AN      X      Y      Z        X      Y      Z        X      Y      Z
   1   6     0.30   0.07  -0.01    -0.01   0.14  -0.29    -0.05   0.22  -0.03
   2   6     0.31  -0.00   0.12    -0.24  -0.00   0.26     0.16   0.00   0.17
   3   6     0.24  -0.03  -0.09     0.09   0.07   0.12    -0.02  -0.35   0.07
   4   1    -0.02   0.00  -0.00     0.03   0.00   0.09    -0.06   0.00  -0.11
   5   6     0.30  -0.07  -0.01    -0.01  -0.14  -0.29    -0.05  -0.22  -0.03
   6   1     0.10  -0.00  -0.04    -0.00   0.00   0.03     0.01  -0.00   0.22
   7   1     0.07   0.01  -0.03     0.11   0.07   0.04     0.04  -0.31   0.03
   8   6     0.24   0.03  -0.09     0.09  -0.07   0.12    -0.02   0.35   0.07
   9   1     0.06  -0.00   0.03    -0.30  -0.00   0.06     0.05   0.00   0.05
  10   1     0.10  -0.00   0.06    -0.01   0.00   0.29     0.04   0.00   0.04
  11   6     0.10   0.00  -0.01     0.03   0.00   0.32    -0.19  -0.00  -0.41
  12   1     0.07  -0.01  -0.03     0.11  -0.07   0.04     0.04   0.31   0.03
  13   1     0.10   0.00  -0.04    -0.00  -0.00   0.03     0.01   0.00   0.22
  14   1     0.11  -0.05  -0.00    -0.07  -0.23  -0.10    -0.04  -0.15  -0.01
  15   1     0.06  -0.00  -0.02     0.06   0.01  -0.26    -0.05  -0.00  -0.10
  16   1     0.11   0.05  -0.00    -0.07   0.23  -0.10    -0.04   0.15  -0.01
  17   1     0.06   0.00  -0.02     0.06  -0.01  -0.26    -0.05   0.00  -0.10
  18  35    -0.68  -0.00   0.05     0.03  -0.00  -0.08     0.07  -0.00   0.03
                      7                      8                      9
                        a                      a                      a 
 Frequencies --   428.5909               499.6510               671.6038
 Red. masses --     9.5306                 7.4532                10.0237
 Frc consts  --     0.0000                 0.0000                 0.0000
 IR Inten    --     0.2116                 1.7371                 5.2821
 Raman Activ --     0.0000                 0.0000                 0.0000
 Depolar     --     0.0000                 0.0000                 0.0000
 Atom AN      X      Y      Z        X      Y      Z        X      Y      Z
   1   6     0.33  -0.28  -0.08    -0.07   0.26   0.08     0.12  -0.01  -0.06
   2   6    -0.00  -0.18  -0.00     0.38   0.00   0.10     0.04  -0.00  -0.06
   3   6    -0.32   0.22   0.05    -0.13   0.06  -0.06     0.04  -0.13  -0.07
   4   1    -0.00   0.07  -0.00    -0.05  -0.00   0.06    -0.22  -0.00   0.09
   5   6    -0.33  -0.28   0.08    -0.07  -0.26   0.08     0.12   0.01  -0.06
   6   1    -0.02   0.06  -0.08     0.05  -0.02  -0.20     0.03  -0.00   0.02
   7   1    -0.17   0.13   0.00    -0.12   0.20  -0.03     0.11  -0.00  -0.01
   8   6     0.32   0.22  -0.05    -0.13  -0.06  -0.06     0.04   0.13  -0.07
   9   1    -0.00  -0.10  -0.00     0.34   0.00   0.04    -0.16  -0.00  -0.02
  10   1    -0.00   0.08   0.00     0.05   0.00  -0.22     0.06   0.00   0.16
  11   6    -0.00   0.15  -0.00    -0.26  -0.00   0.22    -0.70  -0.00   0.34
  12   1     0.17   0.13  -0.00    -0.12  -0.20  -0.03     0.11   0.00  -0.01
  13   1     0.02   0.06   0.08     0.05   0.02  -0.20     0.03   0.00   0.02
  14   1    -0.15  -0.15   0.01    -0.07  -0.21   0.01     0.14   0.16   0.00
  15   1    -0.03  -0.07  -0.06    -0.03  -0.00  -0.13    -0.05  -0.03   0.16
  16   1     0.15  -0.15  -0.01    -0.07   0.21   0.01     0.14  -0.16   0.00
  17   1     0.03  -0.07   0.06    -0.03   0.00  -0.13    -0.05   0.03   0.16
  18  35     0.00   0.05   0.00     0.11  -0.00  -0.05     0.11  -0.00  -0.07
                     10                     11                     12
                        a                      a                      a 
 Frequencies --   821.0424               854.6458               893.9261
 Red. masses --     4.3602                 7.5513                 6.3604
 Frc consts  --     0.0000                 0.0000                 0.0000
 IR Inten    --     0.6958                 2.8871                 3.0120
 Raman Activ --     0.0000                 0.0000                 0.0000
 Depolar     --     0.0000                 0.0000                 0.0000
 Atom AN      X      Y      Z        X      Y      Z        X      Y      Z
   1   6    -0.14   0.11  -0.20     0.11  -0.30   0.01     0.09  -0.16  -0.04
   2   6     0.00   0.14   0.00     0.03   0.00   0.21     0.49   0.00  -0.10
   3   6     0.13  -0.09   0.18    -0.03   0.34  -0.03    -0.21   0.05   0.15
   4   1     0.00   0.06   0.00    -0.14   0.00  -0.04     0.05  -0.00  -0.04
   5   6     0.14   0.11   0.20     0.11   0.30   0.01     0.09   0.16  -0.04
   6   1     0.09  -0.12  -0.24    -0.09   0.15   0.21    -0.02  -0.00  -0.05
   7   1    -0.17   0.22   0.02     0.10  -0.10   0.01    -0.20   0.05   0.02
   8   6    -0.13  -0.09  -0.18    -0.03  -0.34  -0.03    -0.21  -0.05   0.15
   9   1     0.00  -0.07   0.00     0.23   0.00   0.07    -0.31  -0.00  -0.04
  10   1     0.00  -0.02   0.00    -0.04  -0.00  -0.14     0.24  -0.00   0.41
  11   6     0.00  -0.16   0.00    -0.32   0.00  -0.14    -0.05  -0.00  -0.15
  12   1     0.17   0.22  -0.02     0.10   0.10   0.01    -0.20  -0.05   0.02
  13   1    -0.09  -0.12   0.24    -0.09  -0.15   0.21    -0.02   0.00  -0.05
  14   1    -0.17  -0.24   0.02     0.02  -0.11  -0.01    -0.16   0.07  -0.03
  15   1     0.10   0.14  -0.26     0.11   0.11  -0.16     0.02   0.09  -0.09
  16   1     0.17  -0.24  -0.02     0.02   0.11  -0.01    -0.16  -0.07  -0.03
  17   1    -0.10   0.14   0.26     0.11  -0.11  -0.16     0.02  -0.09  -0.09
  18  35    -0.00  -0.00   0.00     0.02  -0.00  -0.01     0.01   0.00   0.01
                     13                     14                     15
                        a                      a                      a 
 Frequencies --   930.0688               930.1203               966.8788
 Red. masses --     7.4023                 3.7301                 7.5270
 Frc consts  --     0.0000                 0.0000                 0.0000
 IR Inten    --     7.4106                 8.2540                 2.3336
 Raman Activ --     0.0000                 0.0000                 0.0000
 Depolar     --     0.0000                 0.0000                 0.0000
 Atom AN      X      Y      Z        X      Y      Z        X      Y      Z
   1   6    -0.09  -0.21  -0.15     0.09  -0.14   0.16    -0.20   0.16   0.19
   2   6     0.23  -0.01   0.28     0.01   0.09   0.02    -0.00  -0.31  -0.00
   3   6    -0.14  -0.18  -0.16     0.11  -0.14   0.17    -0.29   0.10   0.17
   4   1     0.06  -0.02   0.08     0.00   0.30   0.00    -0.00   0.01  -0.00
   5   6    -0.08   0.23  -0.13    -0.10  -0.11  -0.18     0.20   0.16  -0.19
   6   1    -0.25  -0.14   0.02     0.10  -0.12  -0.23    -0.21  -0.07  -0.01
   7   1     0.12  -0.06  -0.02    -0.01   0.27   0.03    -0.10   0.07   0.04
   8   6    -0.13   0.20  -0.14    -0.12  -0.12  -0.19     0.29   0.10  -0.17
   9   1     0.15  -0.02   0.08     0.01   0.29   0.00    -0.00   0.09  -0.00
  10   1     0.04  -0.00  -0.01     0.00   0.01  -0.00     0.00  -0.39   0.00
  11   6     0.26  -0.00   0.28     0.02   0.07   0.02    -0.00  -0.22  -0.00
  12   1     0.12   0.03  -0.02     0.02   0.28  -0.03     0.10   0.07  -0.04
  13   1    -0.23   0.15  -0.01    -0.13  -0.10   0.23     0.21  -0.07   0.01
  14   1     0.12   0.00  -0.02    -0.01   0.27  -0.03    -0.03   0.13  -0.06
  15   1    -0.22   0.17  -0.03    -0.10  -0.10   0.20     0.18  -0.05  -0.00
  16   1     0.12  -0.03  -0.02     0.02   0.27   0.03     0.03   0.13   0.06
  17   1    -0.23  -0.15  -0.01     0.07  -0.12  -0.21    -0.18  -0.05   0.00
  18  35     0.00   0.00  -0.00     0.00  -0.00  -0.00     0.00   0.01   0.00
                     16                     17                     18
                        a                      a                      a 
 Frequencies --   987.8817              1063.8594              1084.6406
 Red. masses --     7.3240                 1.5122                 6.8182
 Frc consts  --     0.0000                 0.0000                 0.0000
 IR Inten    --    11.8716                 0.0320                 3.3406
 Raman Activ --     0.0000                 0.0000                 0.0000
 Depolar     --     0.0000                 0.0000                 0.0000
 Atom AN      X      Y      Z        X      Y      Z        X      Y      Z
   1   6    -0.06   0.31  -0.12     0.02   0.07   0.04     0.35   0.06  -0.03
   2   6     0.23   0.00   0.03     0.00  -0.11   0.00    -0.19  -0.00  -0.08
   3   6    -0.19   0.31  -0.03    -0.08  -0.06  -0.01    -0.31  -0.12   0.05
   4   1     0.10   0.00  -0.00     0.00   0.43   0.00     0.05   0.00   0.02
   5   6    -0.06  -0.31  -0.12    -0.02   0.07  -0.04     0.35  -0.06  -0.03
   6   1    -0.09   0.15   0.18    -0.23  -0.15  -0.04    -0.24  -0.13  -0.01
   7   1     0.14  -0.05   0.02     0.26   0.18   0.02    -0.12  -0.04   0.01
   8   6    -0.19  -0.31  -0.03     0.08  -0.06   0.01    -0.31   0.12   0.05
   9   1    -0.04  -0.00   0.00     0.00  -0.37   0.00     0.05  -0.00  -0.02
  10   1     0.08   0.00   0.09    -0.00   0.06  -0.00    -0.06  -0.00  -0.09
  11   6     0.14   0.00  -0.02    -0.00   0.04  -0.00     0.03  -0.00   0.08
  12   1     0.14   0.05   0.02    -0.26   0.18  -0.02    -0.12   0.04   0.01
  13   1    -0.09  -0.15   0.18     0.23  -0.15   0.04    -0.24   0.13  -0.01
  14   1     0.18   0.10  -0.00     0.27  -0.15   0.01     0.15  -0.09  -0.00
  15   1    -0.06  -0.16   0.20    -0.16   0.11  -0.03     0.30  -0.13  -0.01
  16   1     0.18  -0.10  -0.00    -0.27  -0.15  -0.01     0.15   0.09  -0.00
  17   1    -0.06   0.16   0.20     0.16   0.11   0.03     0.30   0.13  -0.01
  18  35    -0.00   0.00   0.01    -0.00   0.00   0.00     0.01   0.00   0.00
                     19                     20                     21
                        a                      a                      a 
 Frequencies --  1104.5436              1134.0524              1134.6703
 Red. masses --     5.3478                 7.7606                 6.2195
 Frc consts  --     0.0000                 0.0000                 0.0000
 IR Inten    --     1.6635                 0.0685                 5.1757
 Raman Activ --     0.0000                 0.0000                 0.0000
 Depolar     --     0.0000                 0.0000                 0.0000
 Atom AN      X      Y      Z        X      Y      Z        X      Y      Z
   1   6     0.07  -0.04  -0.02    -0.30  -0.22  -0.04    -0.05   0.05   0.24
   2   6     0.00   0.06  -0.00    -0.00   0.43   0.00     0.08   0.00  -0.23
   3   6     0.16   0.23   0.10    -0.26  -0.04   0.05     0.01   0.03  -0.26
   4   1    -0.00  -0.18   0.00     0.00   0.13  -0.00    -0.47   0.00   0.07
   5   6    -0.07  -0.04   0.02     0.31  -0.22   0.03    -0.04  -0.05   0.24
   6   1    -0.15  -0.05   0.02    -0.03   0.01   0.02    -0.10   0.03   0.11
   7   1     0.20   0.13   0.04    -0.11  -0.05   0.01    -0.00  -0.23  -0.06
   8   6    -0.16   0.23  -0.10     0.26  -0.04  -0.05     0.01  -0.03  -0.26
   9   1    -0.00  -0.05  -0.00     0.00   0.25   0.00    -0.17   0.00  -0.06
  10   1    -0.00   0.45   0.00    -0.00   0.24  -0.00     0.06   0.00   0.13
  11   6     0.00  -0.45   0.00    -0.00   0.06  -0.00     0.23   0.00   0.30
  12   1    -0.20   0.13  -0.04     0.11  -0.05  -0.01    -0.00   0.23  -0.06
  13   1     0.15  -0.05  -0.02     0.03   0.01  -0.02    -0.10  -0.03   0.11
  14   1     0.02   0.01   0.01     0.27  -0.13   0.03    -0.17  -0.09   0.04
  15   1     0.26  -0.18   0.06     0.11  -0.08   0.03     0.10  -0.02  -0.06
  16   1    -0.02   0.01  -0.01    -0.26  -0.14  -0.03    -0.17   0.09   0.04
  17   1    -0.26  -0.18  -0.06    -0.11  -0.08  -0.03     0.10   0.02  -0.06
  18  35    -0.00   0.00  -0.00    -0.00   0.01   0.00     0.01   0.00  -0.03
                     22                     23                     24
                        a                      a                      a 
 Frequencies --  1196.9276              1204.6153              1239.5997
 Red. masses --     4.3416                 4.1641                 3.1749
 Frc consts  --     0.0000                 0.0000                 0.0000
 IR Inten    --     0.0386                27.7856                11.3276
 Raman Activ --     0.0000                 0.0000                 0.0000
 Depolar     --     0.0000                 0.0000                 0.0000
 Atom AN      X      Y      Z        X      Y      Z        X      Y      Z
   1   6    -0.03  -0.10   0.02    -0.01  -0.01   0.24     0.16   0.01  -0.01
   2   6    -0.00   0.13   0.00     0.00   0.00  -0.29    -0.15  -0.00  -0.18
   3   6    -0.04   0.18   0.19    -0.01  -0.02  -0.15    -0.15   0.01   0.05
   4   1    -0.00  -0.32  -0.00     0.69  -0.00   0.02    -0.11  -0.00   0.03
   5   6     0.03  -0.10  -0.02    -0.01   0.01   0.24     0.16  -0.00  -0.01
   6   1     0.19   0.15   0.04    -0.05   0.01   0.05     0.28   0.19   0.05
   7   1     0.09   0.13   0.06     0.19   0.00  -0.02    -0.19  -0.10   0.00
   8   6     0.04   0.18  -0.19    -0.01   0.02  -0.15    -0.15  -0.01   0.05
   9   1     0.00   0.02   0.00    -0.16   0.00  -0.08    -0.05  -0.00  -0.05
  10   1    -0.00  -0.29  -0.00     0.04  -0.00   0.09    -0.03   0.00  -0.03
  11   6     0.00  -0.34  -0.00    -0.18  -0.00   0.04     0.14   0.00   0.12
  12   1    -0.09   0.13  -0.06     0.19  -0.00  -0.02    -0.19   0.10   0.00
  13   1    -0.19   0.15  -0.04    -0.05  -0.01   0.05     0.28  -0.19   0.05
  14   1     0.19  -0.06   0.02     0.06  -0.19   0.06     0.26  -0.16   0.01
  15   1    -0.33   0.14   0.02    -0.02   0.08  -0.10    -0.31   0.21  -0.05
  16   1    -0.20  -0.06  -0.02     0.06   0.19   0.06     0.26   0.16   0.01
  17   1     0.33   0.14  -0.02    -0.02  -0.08  -0.10    -0.31  -0.21  -0.05
  18  35     0.00   0.01  -0.00    -0.02   0.00   0.03     0.01  -0.00  -0.00
                     25                     26                     27
                        a                      a                      a 
 Frequencies --  1240.0499              1252.8053              1290.9790
 Red. masses --     3.8517                 3.4082                 3.6079
 Frc consts  --     0.0000                 0.0000                 0.0000
 IR Inten    --     3.9330                 2.0298                 1.0990
 Raman Activ --     0.0000                 0.0000                 0.0000
 Depolar     --     0.0000                 0.0000                 0.0000
 Atom AN      X      Y      Z        X      Y      Z        X      Y      Z
   1   6     0.04  -0.10  -0.27     0.03  -0.02  -0.11     0.00  -0.08  -0.02
   2   6    -0.00   0.11  -0.00    -0.01  -0.00   0.22    -0.00   0.03   0.00
   3   6     0.02   0.06  -0.16    -0.01  -0.02  -0.17     0.15   0.03   0.10
   4   1    -0.00   0.24   0.00     0.42   0.00   0.08     0.00  -0.52  -0.00
   5   6    -0.04  -0.10   0.27     0.03   0.02  -0.11    -0.00  -0.08   0.02
   6   1    -0.16  -0.03   0.05     0.19   0.15   0.07    -0.36  -0.26  -0.08
   7   1     0.27   0.04  -0.01    -0.26  -0.26  -0.06    -0.08   0.01   0.01
   8   6    -0.02   0.06   0.17    -0.01   0.02  -0.17    -0.15   0.03  -0.10
   9   1    -0.00   0.51  -0.00     0.11   0.00   0.06    -0.00   0.13   0.00
  10   1    -0.00  -0.39  -0.00    -0.03  -0.00  -0.06     0.00  -0.07   0.00
  11   6     0.00  -0.11   0.00    -0.03  -0.00   0.29    -0.00   0.39   0.00
  12   1    -0.27   0.04   0.01    -0.26   0.26  -0.06     0.08   0.01  -0.01
  13   1     0.16  -0.04  -0.05     0.19  -0.15   0.07     0.36  -0.26   0.08
  14   1    -0.15  -0.06   0.05    -0.20   0.18  -0.05     0.06  -0.05   0.01
  15   1     0.01   0.01  -0.03     0.10  -0.07   0.02    -0.12   0.03   0.03
  16   1     0.15  -0.06  -0.05    -0.20  -0.18  -0.05    -0.06  -0.05  -0.01
  17   1    -0.01   0.01   0.03     0.10   0.07   0.02     0.12   0.03  -0.03
  18  35     0.00   0.00  -0.00    -0.01   0.00   0.01    -0.00  -0.01   0.00
                     28                     29                     30
                        a                      a                      a 
 Frequencies --  1331.3695              1336.0988              1338.9514
 Red. masses --     4.2464                 4.6797                 4.3913
 Frc consts  --     0.0000                 0.0000                 0.0000
 IR Inten    --     3.9651                 1.8046                 5.3849
 Raman Activ --     0.0000                 0.0000                 0.0000
 Depolar     --     0.0000                 0.0000                 0.0000
 Atom AN      X      Y      Z        X      Y      Z        X      Y      Z
   1   6     0.27   0.08   0.03    -0.15  -0.04  -0.04     0.02   0.11  -0.02
   2   6    -0.00   0.34  -0.00    -0.00   0.12  -0.00    -0.01  -0.00  -0.04
   3   6     0.01  -0.08   0.02    -0.25  -0.18  -0.01     0.31   0.18   0.05
   4   1     0.00  -0.08  -0.00     0.00  -0.36  -0.00     0.09   0.00   0.00
   5   6    -0.27   0.08  -0.03     0.15  -0.04   0.04     0.02  -0.11  -0.02
   6   1     0.07  -0.01  -0.04     0.09   0.03  -0.02    -0.34  -0.18   0.00
   7   1     0.01   0.00   0.00     0.36   0.21   0.04    -0.35  -0.15  -0.03
   8   6    -0.01  -0.08  -0.02     0.25  -0.18   0.01     0.31  -0.18   0.05
   9   1     0.00  -0.23  -0.00    -0.00  -0.19  -0.00    -0.05   0.00  -0.02
  10   1     0.00  -0.50  -0.00    -0.00   0.05  -0.00    -0.01   0.00  -0.04
  11   6    -0.00   0.10  -0.00    -0.00   0.27   0.00    -0.15  -0.00   0.00
  12   1    -0.01   0.00  -0.00    -0.36   0.21  -0.04    -0.35   0.15  -0.03
  13   1    -0.07  -0.01   0.04    -0.09   0.03   0.02    -0.34   0.18   0.00
  14   1     0.20  -0.13   0.02    -0.23   0.11  -0.02     0.07  -0.02   0.00
  15   1     0.29  -0.21   0.07     0.07  -0.02  -0.01    -0.20   0.07   0.02
  16   1    -0.20  -0.13  -0.02     0.23   0.11   0.02     0.06   0.02   0.00
  17   1    -0.29  -0.21  -0.07    -0.07  -0.02   0.01    -0.20  -0.07   0.02
  18  35    -0.00  -0.00   0.00    -0.00   0.00   0.00    -0.01  -0.00   0.00
                     31                     32                     33
                        a                      a                      a 
 Frequencies --  1347.8516              1352.8987              1475.8695
 Red. masses --     4.9207                 5.2264                 1.8892
 Frc consts  --     0.0000                 0.0000                 0.0000
 IR Inten    --    12.0627                 0.1077                 0.0522
 Raman Activ --     0.0000                 0.0000                 0.0000
 Depolar     --     0.0000                 0.0000                 0.0000
 Atom AN      X      Y      Z        X      Y      Z        X      Y      Z
   1   6    -0.34  -0.17  -0.06    -0.14  -0.22   0.04    -0.07   0.09   0.07
   2   6     0.17   0.00  -0.04    -0.00   0.43   0.00    -0.00   0.02  -0.00
   3   6     0.09  -0.04   0.04     0.08   0.13  -0.04     0.07  -0.10  -0.08
   4   1    -0.00   0.00   0.02    -0.00   0.18   0.00     0.00   0.00  -0.00
   5   6    -0.34   0.17  -0.06     0.14  -0.22  -0.04     0.07   0.09  -0.07
   6   1     0.09   0.01  -0.03    -0.15  -0.05   0.01    -0.08   0.10   0.33
   7   1    -0.17  -0.08  -0.01    -0.09  -0.10  -0.02    -0.16   0.30  -0.03
   8   6     0.09   0.04   0.04    -0.08   0.13   0.04    -0.07  -0.10   0.08
   9   1    -0.03  -0.00  -0.01     0.00  -0.52   0.00     0.00  -0.01   0.00
  10   1     0.07  -0.00   0.08     0.00  -0.19  -0.00     0.00   0.00   0.00
  11   6    -0.00  -0.00   0.05    -0.00  -0.12  -0.00    -0.00  -0.02  -0.00
  12   1    -0.17   0.08  -0.01     0.09  -0.10   0.02     0.16   0.30   0.03
  13   1     0.09  -0.01  -0.03     0.15  -0.05  -0.01     0.08   0.10  -0.33
  14   1     0.38  -0.18   0.03    -0.23   0.18  -0.03    -0.17  -0.28  -0.03
  15   1     0.27  -0.16   0.02    -0.09  -0.01   0.04    -0.08  -0.10   0.30
  16   1     0.38   0.18   0.03     0.23   0.18   0.03     0.17  -0.28   0.03
  17   1     0.27   0.16   0.02     0.09  -0.01  -0.04     0.08  -0.10  -0.30
  18  35    -0.00  -0.00  -0.00    -0.00   0.00  -0.00    -0.00  -0.00   0.00
                     34                     35                     36
                        a                      a                      a 
 Frequencies --  1481.1467              1483.4071              1486.2586
 Red. masses --     1.9241                 2.0548                 1.9486
 Frc consts  --     0.0000                 0.0000                 0.0000
 IR Inten    --     0.4105                 0.0218                 0.5467
 Raman Activ --     0.0000                 0.0000                 0.0000
 Depolar     --     0.0000                 0.0000                 0.0000
 Atom AN      X      Y      Z        X      Y      Z        X      Y      Z
   1   6    -0.03   0.06   0.05     0.08  -0.11  -0.07     0.06  -0.11  -0.08
   2   6     0.18   0.00   0.15    -0.00   0.02  -0.00     0.03   0.00   0.01
   3   6     0.01  -0.07  -0.04     0.07  -0.12  -0.07     0.05  -0.11  -0.08
   4   1    -0.02  -0.00   0.00     0.00  -0.03   0.00     0.00  -0.00  -0.00
   5   6    -0.03  -0.06   0.05    -0.08  -0.11   0.07     0.05   0.11  -0.08
   6   1    -0.03   0.05   0.16    -0.08   0.08   0.30    -0.06   0.10   0.31
   7   1    -0.07   0.16  -0.01    -0.16   0.28  -0.03    -0.14   0.30  -0.03
   8   6     0.01   0.07  -0.04    -0.07  -0.12   0.07     0.05   0.11  -0.08
   9   1    -0.56  -0.00  -0.02     0.00  -0.02   0.00    -0.05  -0.00  -0.00
  10   1    -0.14  -0.00  -0.55     0.00  -0.03   0.00    -0.00  -0.00  -0.05
  11   6     0.02   0.00   0.00    -0.00   0.02   0.00     0.03   0.00  -0.01
  12   1    -0.06  -0.15  -0.01     0.16   0.29   0.03    -0.14  -0.30  -0.03
  13   1    -0.03  -0.05   0.16     0.08   0.08  -0.30    -0.06  -0.10   0.30
  14   1     0.10   0.17   0.02     0.18   0.30   0.03    -0.16  -0.31  -0.03
  15   1     0.07   0.05  -0.19     0.10   0.09  -0.32    -0.07  -0.11   0.32
  16   1     0.10  -0.17   0.02    -0.18   0.30  -0.03    -0.16   0.31  -0.03
  17   1     0.07  -0.05  -0.19    -0.10   0.09   0.32    -0.07   0.11   0.32
  18  35    -0.00  -0.00  -0.00     0.00  -0.00  -0.00    -0.00  -0.00   0.00
                     37                     38                     39
                        a                      a                      a 
 Frequencies --  1498.6667              2949.7743              2964.3796
 Red. masses --     2.0294                 1.7673                 1.9022
 Frc consts  --     0.0000                 0.0000                 0.0000
 IR Inten    --     0.0580                 7.1844                14.7657
 Raman Activ --     0.0000                 0.0000                 0.0000
 Depolar     --     0.0000                 0.0000                 0.0000
 Atom AN      X      Y      Z        X      Y      Z        X      Y      Z
   1   6     0.05  -0.09  -0.05     0.00  -0.00   0.01    -0.01   0.03  -0.13
   2   6     0.14   0.00   0.10     0.01   0.00  -0.01     0.00   0.00  -0.00
   3   6    -0.05   0.10   0.07     0.01  -0.03   0.05    -0.02   0.06  -0.14
   4   1     0.02   0.00   0.00    -0.01  -0.00   0.93    -0.00  -0.00   0.00
   5   6     0.05   0.09  -0.05     0.00   0.00   0.01     0.01   0.03   0.14
   6   1     0.07  -0.08  -0.28    -0.05   0.10  -0.04     0.12  -0.22   0.09
   7   1     0.14  -0.27   0.03     0.02  -0.01  -0.15    -0.05   0.01   0.42
   8   6    -0.05  -0.10   0.07     0.01   0.03   0.05     0.02   0.06   0.13
   9   1    -0.37  -0.00  -0.02    -0.00   0.00   0.03    -0.00  -0.00   0.02
  10   1    -0.08  -0.00  -0.36    -0.02  -0.00   0.00    -0.01   0.00   0.00
  11   6    -0.03  -0.00   0.00     0.00   0.00  -0.25    -0.00   0.00  -0.00
  12   1     0.14   0.27   0.03     0.02   0.01  -0.15     0.05   0.01  -0.40
  13   1     0.07   0.08  -0.28    -0.05  -0.10  -0.04    -0.12  -0.22  -0.09
  14   1    -0.12  -0.23  -0.02     0.00   0.00  -0.03     0.05   0.01  -0.46
  15   1    -0.06  -0.07   0.24    -0.01  -0.01  -0.00    -0.07  -0.13  -0.04
  16   1    -0.12   0.23  -0.02     0.00  -0.00  -0.03    -0.05   0.01   0.42
  17   1    -0.06   0.07   0.24    -0.01   0.01  -0.00     0.07  -0.12   0.04
  18  35     0.00  -0.00   0.00     0.00  -0.00  -0.00    -0.00  -0.00  -0.00
                     40                     41                     42
                        a                      a                      a 
 Frequencies --  2964.8122              2970.8718              2972.7283
 Red. masses --     1.8427                 1.9812                 2.0020
 Frc consts  --     0.0000                 0.0000                 0.0000
 IR Inten    --     6.4376                15.8191                 2.2153
 Raman Activ --     0.0000                 0.0000                 0.0000
 Depolar     --     0.0000                 0.0000                 0.0000
 Atom AN      X      Y      Z        X      Y      Z        X      Y      Z
   1   6    -0.01   0.04  -0.14     0.00   0.00  -0.02     0.02  -0.05   0.14
   2   6    -0.08   0.00   0.14     0.08   0.00  -0.15     0.00  -0.00  -0.00
   3   6     0.01  -0.02   0.05     0.03  -0.07   0.15    -0.03   0.07  -0.13
   4   1     0.00  -0.00  -0.03     0.00   0.00  -0.23     0.00  -0.00  -0.00
   5   6    -0.01  -0.04  -0.14     0.00  -0.00  -0.02    -0.02  -0.05  -0.14
   6   1    -0.05   0.09  -0.04    -0.14   0.26  -0.11     0.15  -0.28   0.12
   7   1     0.02  -0.01  -0.16     0.05  -0.01  -0.41    -0.04   0.01   0.31
   8   6     0.01   0.03   0.06     0.03   0.07   0.15     0.03   0.07   0.13
   9   1     0.02  -0.00  -0.49    -0.03  -0.00   0.48    -0.00   0.00   0.00
  10   1     0.25   0.00  -0.05    -0.26  -0.00   0.05    -0.00   0.00   0.00
  11   6     0.00   0.00   0.01     0.00  -0.00   0.07     0.00   0.00   0.00
  12   1     0.02   0.01  -0.19     0.05   0.01  -0.41     0.04   0.01  -0.31
  13   1    -0.06  -0.10  -0.04    -0.14  -0.26  -0.11    -0.15  -0.28  -0.12
  14   1    -0.05  -0.02   0.47    -0.01  -0.00   0.07    -0.05  -0.01   0.43
  15   1     0.07   0.14   0.05     0.01   0.01   0.00     0.10   0.19   0.08
  16   1    -0.05   0.02   0.50    -0.01   0.00   0.07     0.05  -0.01  -0.43
  17   1     0.08  -0.14   0.05     0.01  -0.01   0.00    -0.10   0.19  -0.08
  18  35     0.00  -0.00   0.00    -0.00   0.00   0.00    -0.00  -0.00   0.00
                     43                     44                     45
                        a                      a                      a 
 Frequencies --  2979.8866              2982.2185              2983.3727
 Red. masses --     1.9171                 1.4900                 1.5857
 Frc consts  --     0.0000                 0.0000                 0.0000
 IR Inten    --   123.7675                 3.9794               185.3911
 Raman Activ --     0.0000                 0.0000                 0.0000
 Depolar     --     0.0000                 0.0000                 0.0000
 Atom AN      X      Y      Z        X      Y      Z        X      Y      Z
   1   6     0.03  -0.07   0.11    -0.03   0.04   0.03    -0.03   0.03   0.08
   2   6    -0.11  -0.00   0.12    -0.00   0.00  -0.00     0.00   0.00   0.10
   3   6     0.05  -0.08   0.05     0.07  -0.10  -0.06    -0.04   0.06   0.09
   4   1     0.00   0.00  -0.12    -0.00  -0.00   0.00     0.00  -0.00  -0.07
   5   6     0.03   0.07   0.11     0.03   0.04  -0.03    -0.03  -0.03   0.08
   6   1    -0.17   0.32  -0.15    -0.20   0.38  -0.20     0.11  -0.21   0.12
   7   1     0.01  -0.01  -0.02    -0.03  -0.01   0.42     0.04   0.00  -0.44
   8   6     0.05   0.08   0.05    -0.07  -0.10   0.06    -0.04  -0.06   0.09
   9   1     0.01  -0.00  -0.31    -0.00   0.00   0.00     0.03  -0.00  -0.37
  10   1     0.38   0.00  -0.09     0.00  -0.00  -0.00    -0.05  -0.00   0.03
  11   6     0.00   0.00   0.03     0.00  -0.01  -0.00    -0.00  -0.00   0.03
  12   1     0.01   0.01  -0.02     0.03  -0.01  -0.42     0.04  -0.00  -0.45
  13   1    -0.17  -0.32  -0.15     0.20   0.38   0.20     0.11   0.22   0.12
  14   1     0.03   0.01  -0.25    -0.01   0.00   0.18     0.03   0.00  -0.33
  15   1    -0.14  -0.26  -0.12    -0.09  -0.17  -0.09     0.06   0.11   0.07
  16   1     0.03  -0.01  -0.25     0.01   0.00  -0.18     0.03  -0.00  -0.33
  17   1    -0.14   0.26  -0.12     0.09  -0.17   0.09     0.06  -0.12   0.07
  18  35    -0.00   0.00   0.00    -0.00  -0.00   0.00     0.00  -0.00  -0.00
                     46                     47                     48
                        a                      a                      a 
 Frequencies --  2985.1793              2991.5029              2996.0968
 Red. masses --     1.5157                 1.5720                 1.5752
 Frc consts  --     0.0000                 0.0000                 0.0000
 IR Inten    --    59.9950               126.3584                48.1571
 Raman Activ --     0.0000                 0.0000                 0.0000
 Depolar     --     0.0000                 0.0000                 0.0000
 Atom AN      X      Y      Z        X      Y      Z        X      Y      Z
   1   6     0.02  -0.05  -0.01     0.07  -0.13   0.00     0.06  -0.11   0.00
   2   6    -0.15  -0.00  -0.06    -0.00  -0.01  -0.00     0.12  -0.00   0.03
   3   6    -0.04   0.06   0.02     0.03  -0.05  -0.01    -0.02   0.03   0.01
   4   1    -0.00  -0.00   0.01     0.00  -0.00  -0.00    -0.00  -0.00   0.01
   5   6     0.02   0.05  -0.01    -0.07  -0.13  -0.00     0.06   0.11   0.00
   6   1     0.12  -0.23   0.12    -0.10   0.19  -0.10     0.06  -0.12   0.06
   7   1     0.01   0.01  -0.19    -0.01  -0.01   0.13     0.01   0.00  -0.09
   8   6    -0.04  -0.06   0.02    -0.03  -0.05   0.01    -0.02  -0.03   0.01
   9   1    -0.05   0.00   0.40    -0.00  -0.00   0.00     0.03  -0.00  -0.24
  10   1     0.61   0.00  -0.19     0.00  -0.00  -0.00    -0.47  -0.00   0.14
  11   6    -0.00   0.00  -0.00     0.00  -0.00   0.00    -0.00  -0.00  -0.00
  12   1     0.01  -0.01  -0.19     0.01  -0.01  -0.13     0.01  -0.00  -0.09
  13   1     0.12   0.23   0.12     0.10   0.19   0.10     0.06   0.12   0.06
  14   1    -0.01   0.01   0.12     0.01  -0.01  -0.24    -0.01   0.01   0.19
  15   1    -0.10  -0.19  -0.10     0.25   0.48   0.24    -0.21  -0.41  -0.21
  16   1    -0.01  -0.01   0.12    -0.01  -0.01   0.24    -0.01  -0.01   0.19
  17   1    -0.10   0.19  -0.10    -0.25   0.47  -0.24    -0.21   0.41  -0.21
  18  35     0.00   0.00  -0.00    -0.00  -0.00   0.00     0.00  -0.00  -0.00
