(SLURM) JOB ID:         397

                                 *****************
                                 * O   R   C   A *
                                 *****************

           --- An Ab Initio, DFT and Semiempirical electronic structure package ---

                  #######################################################
                  #                        -***-                        #
                  #          Department of theory and spectroscopy      #
                  #               Directorship: Frank Neese             #
                  #        Max Planck Institute fuer Kohlenforschung    #
                  #                Kaiser Wilhelm Platz 1               #
                  #                 D-45470 Muelheim/Ruhr               #
                  #                      Germany                        #
                  #                                                     #
                  #                  All rights reserved                #
                  #                        -***-                        #
                  #######################################################


                         Program Version 4.2.1 -  RELEASE  -


 With contributions from (in alphabetic order):
   Daniel Aravena         : Magnetic Suceptibility
   Michael Atanasov       : Ab Initio Ligand Field Theory (pilot matlab implementation)
   Alexander A. Auer      : GIAO ZORA, VPT2
   Ute Becker             : Parallelization
   Giovanni Bistoni       : ED, misc. LED, open-shell LED, HFLD
   Martin Brehm           : Molecular dynamics
   Dmytro Bykov           : SCF Hessian
   Vijay G. Chilkuri      : MRCI spin determinant printing, contributions to CSF-ICE
   Dipayan Datta          : RHF DLPNO-CCSD density
   Achintya Kumar Dutta   : EOM-CC, STEOM-CC
   Dmitry Ganyushin       : Spin-Orbit,Spin-Spin,Magnetic field MRCI
   Miquel Garcia          : C-PCM Hessian, Gaussian charge scheme
   Yang Guo               : DLPNO-NEVPT2, CIM, IAO-localization
   Andreas Hansen         : Spin unrestricted coupled pair/coupled cluster methods
   Benjamin Helmich-Paris : CASSCF linear response (MC-RPA)
   Lee Huntington         : MR-EOM, pCC
   Robert Izsak           : Overlap fitted RIJCOSX, COSX-SCS-MP3, EOM
   Christian Kollmar      : KDIIS, OOCD, Brueckner-CCSD(T), CCSD density
   Simone Kossmann        : Meta GGA functionals, TD-DFT gradient, OOMP2, MP2 Hessian
   Martin Krupicka        : AUTO-CI
   Lucas Lang             : DCDCAS
   Dagmar Lenk            : GEPOL surface, SMD
   Dimitrios Liakos       : Extrapolation schemes; Compound Job, initial MDCI parallelization
   Dimitrios Manganas     : Further ROCIS development; embedding schemes
   Dimitrios Pantazis     : SARC Basis sets
   Taras Petrenko         : DFT Hessian,TD-DFT gradient, ASA, ECA, R-Raman, ABS, FL, XAS/XES, NRVS
   Peter Pinski           : DLPNO-MP2, DLPNO-MP2 Gradient
   Christoph Reimann      : Effective Core Potentials
   Marius Retegan         : Local ZFS, SOC
   Christoph Riplinger    : Optimizer, TS searches, QM/MM, DLPNO-CCSD(T), (RO)-DLPNO pert. Triples
   Tobias Risthaus        : Range-separated hybrids, TD-DFT gradient, RPA, STAB
   Michael Roemelt        : Original ROCIS implementation
   Masaaki Saitow         : Open-shell DLPNO-CCSD energy and density
   Barbara Sandhoefer     : DKH picture change effects
   Avijit Sen             : IP-ROCIS
   Kantharuban Sivalingam : CASSCF convergence, NEVPT2, FIC-MRCI
   Bernardo de Souza      : ESD, SOC TD-DFT
   Georgi Stoychev        : AutoAux, RI-MP2 NMR
   Willem Van den Heuvel  : Paramagnetic NMR
   Boris Wezisla          : Elementary symmetry handling
   Frank Wennmohs         : Technical directorship


 We gratefully acknowledge several colleagues who have allowed us to
 interface, adapt or use parts of their codes:
   Stefan Grimme, W. Hujo, H. Kruse,             : VdW corrections, initial TS optimization,
                  C. Bannwarth                     DFT functionals, gCP, sTDA/sTD-DF
   Ed Valeev, F. Pavosevic, A. Kumar             : LibInt (2-el integral package), F12 methods
   Garnet Chan, S. Sharma, J. Yang, R. Olivares  : DMRG
   Ulf Ekstrom                                   : XCFun DFT Library
   Mihaly Kallay                                 : mrcc  (arbitrary order and MRCC methods)
   Andreas Klamt, Michael Diedenhofen            : otool_cosmo (COSMO solvation model)
   Jiri Pittner, Ondrej Demel                    : Mk-CCSD
   Frank Weinhold                                : gennbo (NPA and NBO analysis)
   Christopher J. Cramer and Donald G. Truhlar   : smd solvation model
   Lars Goerigk                                  : TD-DFT with DH, B97 family of functionals
   V. Asgeirsson, H. Jonsson                     : NEB implementation
   FAccTs GmbH                                   : IRC, NEB, NEB-TS, Multilevel, MM, QM/MM, CI optimization
   S Lehtola, MJT Oliveira, MAL Marques          : LibXC Library


 Your calculation uses the libint2 library for the computation of 2-el integrals
 For citations please refer to: http://libint.valeyev.net

 Your ORCA version has been built with support for libXC version: 4.2.3
 For citations please refer to: https://tddft.org/programs/libxc/

 This ORCA versions uses:
   CBLAS   interface :  Fast vector & matrix operations
   LAPACKE interface :  Fast linear algebra routines
   SCALAPACK package :  Parallel linear algebra routines




***************************************
The coordinates will be read from file: init.xyz
***************************************


Your calculation utilizes the SMD solvation module
Please cite in your paper:
A.V. Marenich, C.J. Cramer, D.G. Truhlar J. Phys. Chem. B, 113, (2009), 6378 

Your calculation utilizes the semiempirical GFN2-xTB method
Please cite in your paper:
C. Bannwarth, Ehlert S., S. Grimme,  J. Chem. Theory Comput., 15, (2019), 1652.
   

----- Orbital basis set information -----
Your calculation utilizes the basis: def2-SVP
   F. Weigend and R. Ahlrichs, Phys. Chem. Chem. Phys. 7, 3297 (2005).

================================================================================
                                        WARNINGS
                       Please study these warnings very carefully!
================================================================================

WARNING: Gradients needed for Numerical Frequencies
  ===> : Setting RunTyp to EnGrad

WARNING: The environment variable RSH_COMMAND is not set!
  ===> : All Displacements for the Numerical Hessian calculation
         will be started on localhost

WARNING: Found dipole moment calculation with XTB calculation
  ===> : Switching off dipole moment calculation


INFO   : the flag for use of LIBINT has been found!

================================================================================
                                       INPUT FILE
================================================================================
NAME = /tmp/slurm-scratch/freq.397/freq.inp
|  1> ! XTB2 NumFreq
|  2> %maxcore 1450
|  3> 
|  4> * xyzfile 0 1 init.xyz
|  5> 
|  6> %cpcm
|  7>  smd true
|  8>  smdsolvent "ch2cl2"
|  9> end
| 10> %pal nprocs 8 end
| 11> 
| 12>                          ****END OF INPUT****
================================================================================

                     *******************************
                     * Energy+Gradient Calculation *
                     *******************************

      -----------------------------------------------------------      
     |                   =====================                   |     
     |                           x T B                           |     
     |                   =====================                   |     
     |                         S. Grimme                         |     
     |          Mulliken Center for Theoretical Chemistry        |     
     |                    University of Bonn                     |     
      -----------------------------------------------------------      

   * xtb version 6.3.0 (preview) compiled by 'ehlert@majestix' on 2020-01-15

   This program is distributed in the hope that it will be useful,
   but WITHOUT ANY WARRANTY; without even the implied warranty of
   MERCHANTABILITY or FITNESS FOR A PARTICULAR PURPOSE.
   
   FOR NON-COMMERCIAL, ACADEMIA USE ONLY.
   
   Cite this work as:
   * S. Grimme, C. Bannwarth, P. Shushkov, J. Chem. Theory Comput., 2017,
     13, 1989-2009. DOI: 10.1021/acs.jctc.7b00118
   * C. Bannwarth, S. Ehlert and S. Grimme., J. Chem. Theory Comput., 2019,
     15, 1652-1671. DOI: 10.1021/acs.jctc.8b01176
   * P. Pracht, E. Caldeweyher, S. Ehlert, S. Grimme, ChemRxiv, 2019, preprint.
     DOI: 10.26434/chemrxiv.8326202.v1
   * S. Grimme, S. Spicher unpublished
   
   for DFT-D4:
   * E. Caldeweyher, C. Bannwarth and S. Grimme, J. Chem. Phys., 2017,
     147, 034112. DOI: 10.1063/1.4993215
   * E. Caldeweyher, S. Ehlert, A. Hansen, H. Neugebauer, S. Spicher,
     C. Bannwarth and S. Grimme, J. Chem. Phys., 2019, 150, 154122.
     DOI: 10.1063/1.5090222
   
   for sTDA-xTB:
   * S. Grimme and C. Bannwarth, J. Chem. Phys., 2016, 145, 054103.
     DOI: 10.1063/1.4959605
   
   in the mass-spec context:
   * V. Asgeirsson, C. Bauer and S. Grimme, Chem. Sci., 2017, 8, 4879.
     DOI: 10.1039/c7sc00601b
   
   for metadynamics refer to:
   * S. Grimme, J. Chem. Theory Comput., 2019, 155, 2847-2862
     DOI: 10.1021/acs.jctc.9b00143
   
   with help from (in alphabetical order)
   C. Bannwarth, F. Bohle, G. Brandenburg, E. Caldeweyher, M. Checinski,
   S. Dohm, S. Ehlert, S. Ehrlich, F. März, H. Neugebauer, J. Pisarek,
   P. Pracht, P. Shushkov, and S. Spicher.
   
 * started run on 2021/03/20 at 13:35:47.131     

           -------------------------------------------------
          |                Calculation Setup                |
           -------------------------------------------------

          program call               : /opt/orca/otool_xtb /tmp/slurm-scratch/freq.397/freq_XTB.xyz --grad -c 0 -u 0 -P 8 --namespace /tmp/slurm-scratch/freq.397/freq --gbsa CH2Cl2
          hostname                   : headnode-pbs
          calculation namespace      : /tmp/slurm-scratch/freq.397/freq
          coordinate file            : /tmp/slurm-scratch/freq.397/freq_XTB.xyz
          omp threads                :                     8
          number of atoms            :                    36
          number of electrons        :                    88
          charge                     :                     0
          spin                       :                   0.0
          first test random number   :      0.44113817880710


molecular fragmentation (1/2 indicates fragments):
111111111121222212112222222222222222
# atoms in fragment 1/2:    14    22
 fragment masses (1/2) :      106.12      109.17
CMA distance (Bohr)    :   9.550
constraining FC (au)   :  0.0500

########################################################################
# WARNING! Please study the warnings concerning your input carefully
#  - Process number higher than OMP_NUM_THREADS, I hope you know what you are doing.
########################################################################

           ------------------------------------------------- 
          |                 G F N 2 - x T B                 |
          | Geometry, Frequencies, Noncovalent interactions |
          |            JCTC 2019 parametrisation            |
           ------------------------------------------------- 
             k(s)              :                1.8500
             k(p)              :                2.2300
             k(d)              :                2.2300
             k(f)              :                2.0000
             kEN (H0ij)        :               -2.0000
             D4 a1             :                0.5200
             D4 a2             :                5.0000
             D4 s6             :                1.0000
             D4 s8             :                2.7000
             D4 s9             :                5.0000
             alphaj            :                2.0000

  Z AO/shell   Hii/eV     exponent
  1     Wed Apr 25 08:07:45 CEST 2018   EN: 2.200 GM2: 0.406  GM3: 0.0800  RAES: 1.40
     1s    -10.707211    1.230000
  6     Wed Apr 25 08:07:45 CEST 2018   EN: 2.550 GM2: 0.538  GM3: 0.1500  RAES: 3.00
     2s    -13.970922    2.096432
     2p    -10.063292    1.800000
  7     Wed Apr 25 08:07:45 CEST 2018   EN: 3.040 GM2: 0.461  GM3:-0.0640  RAES: 1.90
     2s    -16.686243    2.339881
     2p    -12.523956    2.014332
  8     Wed Apr 25 08:07:45 CEST 2018   EN: 3.440 GM2: 0.452  GM3:-0.0517  RAES: 1.80
     2s    -20.229985    2.439742
     2p    -15.503117    2.137023

 Solvent             : CH2Cl2
 Using internal parameter file: .param_gbsa2_CH2Cl2
 Gsolv ref. state (COSMO-RS): gsolv [1 M gas/solution]
 temperature (mdtemp)       :    298.150000000000     
 dielectric constant        :    8.93000000000000     
 rho                        :    1.33000000000000     
 mass                       :    84.9300000000000     
 surface tension            :    15.5689454083859     
 probe radius               :   0.719875900000000     
 Gshift (Eh)                :   4.440829173451759E-003
 c1                         :    1.49173776000000     
 soset                      :   0.000000000000000E+000
 HB correction              :  F
           ------------------------------------------------- 
          |        Self-Consistent Charge Iterations        |
           ------------------------------------------------- 

          ...................................................
          :                      SETUP                      :
          :.................................................:
          :  # basis functions                  81          :
          :  # atomic orbitals                  81          :
          :  # shells                           51          :
          :  # electrons                        88          :
          :  max. iterations                   250          :
          :  Hamiltonian                  GFN2-xTB          :
          :  GBSA solvation                   true          :
          :  PC potential                    false          :
          :  electronic temp.          300.0000000     K    :
          :  accuracy                    1.0000000          :
          :  -> integral cutoff          0.2500000E+02      :
          :  -> integral neglect         0.1000000E-07      :
          :  -> SCF convergence          0.1000000E-05 Eh   :
          :  -> wf. convergence          0.1000000E-03 e    :
          :  Broyden damping             0.4000000          :
          ...................................................
  Checking positiv definite overlap ...  done.
 

 iter      E             dE          RMSdq      gap      omega  full diag
   1    -49.9164696 -0.499165E+02  0.424E+00    2.41       0.0  T
   2    -49.9773758 -0.609063E-01  0.232E+00    2.27       1.0  T
   3    -49.9766264  0.749410E-03  0.102E+00    2.42       1.0  T
   4    -49.9830964 -0.647000E-02  0.203E-01    2.20       1.0  T
   5    -49.9836769 -0.580506E-03  0.742E-02    2.21       1.0  T
   6    -49.9837385 -0.615784E-04  0.371E-02    2.22       1.0  T
   7    -49.9837526 -0.140923E-04  0.137E-02    2.23       1.2  T
   8    -49.9837533 -0.689131E-06  0.388E-03    2.23       4.3  T
   9    -49.9837534 -0.113964E-06  0.163E-03    2.23      10.3  T
  10    -49.9837534 -0.168317E-07  0.793E-04    2.23      21.0  T
  11    -49.9837534 -0.383083E-08  0.344E-04    2.23      48.4  T

   *** convergence criteria satisfied after 11 iterations ***

         #    Occupation            Energy/Eh            Energy/eV
      -------------------------------------------------------------
         1        2.0000           -0.7254290             -19.7399
       ...           ...                  ...                  ...
        38        2.0000           -0.4345104             -11.8236
        39        2.0000           -0.4324853             -11.7685
        40        2.0000           -0.4246531             -11.5554
        41        2.0000           -0.4222725             -11.4906
        42        2.0000           -0.4192315             -11.4079
        43        2.0000           -0.4116936             -11.2028
        44        2.0000           -0.3828453             -10.4178 (HOMO)
        45                         -0.3010130              -8.1910 (LUMO)
        46                         -0.2382813              -6.4840
        47                         -0.2071360              -5.6365
        48                         -0.0993663              -2.7039
        49                          0.0097942               0.2665
       ...                                ...                  ...
        81                          0.6427054              17.4889
      -------------------------------------------------------------
                  HL-Gap            0.0818324 Eh            2.2268 eV
             Fermi-level           -0.3419292 Eh           -9.3044 eV

 SCC (total)                   0 d,  0 h,  0 min,  0.033 sec
 SCC setup                      ...        0 min,  0.001 sec (  3.472%)
 Dispersion                     ...        0 min,  0.001 sec (  2.510%)
 integral evaluation            ...        0 min,  0.006 sec ( 17.262%)
 zeroth order Hamiltonian       ...        0 min,  0.000 sec (  0.028%)
 iterations                     ...        0 min,  0.018 sec ( 54.743%)
 molecular gradient             ...        0 min,  0.007 sec ( 20.649%)
 printout                       ...        0 min,  0.000 sec (  1.194%)

         :::::::::::::::::::::::::::::::::::::::::::::::::::::
         ::                     SUMMARY                     ::
         :::::::::::::::::::::::::::::::::::::::::::::::::::::
         :: total energy             -49.350928910878 Eh    ::
         :: total w/o Gsasa/hb       -49.331597060746 Eh    ::
         :: gradient norm              0.026150415170 Eh/a0 ::
         :: HOMO-LUMO gap              2.226771958124 eV    ::
         ::.................................................::
         :: SCC energy               -50.003085285634 Eh    ::
         :: -> isotropic ES            0.114690962463 Eh    ::
         :: -> anisotropic ES         -0.005004557582 Eh    ::
         :: -> anisotropic XC          0.024258394356 Eh    ::
         :: -> dispersion             -0.026435184792 Eh    ::
         :: -> Gsolv                  -0.029679428490 Eh    ::
         ::    -> Gborn               -0.010347578358 Eh    ::
         ::    -> Gsasa               -0.023772679306 Eh    ::
         ::    -> Ghb                  0.000000000000 Eh    ::
         ::    -> Gshift               0.004440829173 Eh    ::
         :: repulsion energy           0.651836452676 Eh    ::
         :: add. restraining           0.000000000000 Eh    ::
         :::::::::::::::::::::::::::::::::::::::::::::::::::::

           -------------------------------------------------
          |                Property Printout                |
           -------------------------------------------------

    * Orbital Energies and Occupations

         #    Occupation            Energy/Eh            Energy/eV
      -------------------------------------------------------------
         1        2.0000           -0.7254290             -19.7399
       ...           ...                  ...                  ...
        32        2.0000           -0.4691531             -12.7663
        33        2.0000           -0.4508812             -12.2691
        34        2.0000           -0.4490859             -12.2202
        35        2.0000           -0.4475340             -12.1780
        36        2.0000           -0.4378825             -11.9154
        37        2.0000           -0.4368121             -11.8863
        38        2.0000           -0.4345104             -11.8236
        39        2.0000           -0.4324853             -11.7685
        40        2.0000           -0.4246531             -11.5554
        41        2.0000           -0.4222725             -11.4906
        42        2.0000           -0.4192315             -11.4079
        43        2.0000           -0.4116936             -11.2028
        44        2.0000           -0.3828453             -10.4178 (HOMO)
        45                         -0.3010130              -8.1910 (LUMO)
        46                         -0.2382813              -6.4840
        47                         -0.2071360              -5.6365
        48                         -0.0993663              -2.7039
        49                          0.0097942               0.2665
        50                          0.0591253               1.6089
        51                          0.0860058               2.3403
        52                          0.0904862               2.4623
        53                          0.1071199               2.9149
        54                          0.1137888               3.0964
        55                          0.1197479               3.2585
       ...                                ...                  ...
        81                          0.6427054              17.4889
      -------------------------------------------------------------
                  HL-Gap            0.0818324 Eh            2.2268 eV
             Fermi-level           -0.3419292 Eh           -9.3044 eV

     #   Z        covCN         q      C6AA      α(0)
     1   6 C      2.969    -0.006    28.161     8.705
     2   6 C      2.921    -0.018    28.468     8.750
     3   6 C      2.913    -0.023    28.573     8.765
     4   6 C      2.917    -0.014    28.372     8.735
     5   6 C      2.914    -0.024    28.611     8.771
     6   6 C      2.918    -0.012    28.320     8.727
     7   6 C      2.769     0.209    23.570     7.951
     8   1 H      0.925     0.056     2.247     2.344
     9   1 H      0.926     0.057     2.237     2.339
    10   1 H      0.925     0.056     2.249     2.345
    11   1 H      0.801     0.308     0.699     1.314
    12   8 O      0.856    -0.404    21.765     6.255
    13   1 H      0.803     0.316     0.675     1.290
    14   1 H      0.805     0.287     0.762     1.371
    15   1 H      0.860     0.175     1.241     1.745
    16   1 H      0.860     0.144     1.444     1.882
    17   1 H      0.923     0.043     2.408     2.427
    18   1 H      0.805     0.272     0.810     1.414
    19   1 H      0.925     0.055     2.259     2.351
    20   1 H      0.925     0.053     2.286     2.364
    21   7 N      2.628    -0.376    29.720     8.097
    22   6 C      3.731     0.019    20.346     6.439
    23   1 H      0.924     0.034     2.526     2.485
    24   1 H      0.924     0.012     2.858     2.644
    25   6 C      3.802    -0.067    21.777     6.644
    26   1 H      0.924     0.034     2.530     2.488
    27   1 H      0.924     0.047     2.353     2.399
    28   6 C      3.800    -0.054    21.544     6.609
    29   1 H      0.924     0.033     2.550     2.497
    30   1 H      0.924     0.031     2.576     2.510
    31   6 C      3.750    -0.103    22.524     6.769
    32   1 H      0.924     0.037     2.493     2.469
    33   1 H      0.924     0.037     2.493     2.469
    34   1 H      0.924     0.035     2.517     2.481
    35   8 O      1.606    -0.625    25.794     6.854
    36   8 O      1.608    -0.622    25.730     6.846

 Mol. C6AA /au·bohr⁶  :      10934.228311
 Mol. C8AA /au·bohr⁸  :     240410.697236
 Mol. α(0) /au        :        160.543326


Wiberg/Mayer (AO) data.
largest (>0.10) Wiberg bond orders for each atom
          total WBO             WBO to atom ...
     1  C   3.989        C    2 1.362    C    6 1.357    C    7 1.089
     2  C   3.988        C    3 1.459    C    1 1.362    H    8 0.966    C    5 0.103
     3  C   3.991        C    2 1.459    C    4 1.430    H   19 0.969    C    6 0.104
     4  C   3.988        C    3 1.430    C    5 1.422    H   10 0.970
     5  C   3.991        C    6 1.467    C    4 1.422    H   20 0.969    C    2 0.103
     6  C   3.989        C    5 1.467    C    1 1.357    H    9 0.967    C    3 0.104
     7  C   3.904        O   12 1.784    C    1 1.089    H   17 0.934
     8  H   0.997        C    2 0.966
     9  H   0.997        C    6 0.967
    10  H   0.996        C    4 0.970
    11  H   0.905        O   35 0.835
    12  O   2.060        C    7 1.784
    13  H   0.900        O   36 0.852
    14  H   0.918        O   36 0.916
    15  H   0.969        N   21 0.937
    16  H   0.979        N   21 0.966
    17  H   0.998        C    7 0.934
    18  H   0.926        O   35 0.924
    19  H   0.997        C    3 0.969
    20  H   0.997        C    5 0.969
    21  N   3.065        C   22 1.011    H   16 0.966    H   15 0.937
    22  C   3.982        N   21 1.011    C   25 1.007    H   23 0.976    H   24 0.972
    23  H   0.999        C   22 0.976
    24  H   1.000        C   22 0.972
    25  C   3.995        C   28 1.007    C   22 1.007    H   26 0.974    H   27 0.973
    26  H   0.999        C   25 0.974
    27  H   0.998        C   25 0.973
    28  C   3.997        C   31 1.019    C   25 1.007    H   29 0.978    H   30 0.978
    29  H   0.999        C   28 0.978
    30  H   0.999        C   28 0.978
    31  C   3.996        C   28 1.019    H   34 0.988    H   32 0.988    H   33 0.987
    32  H   0.999        C   31 0.988
    33  H   0.998        C   31 0.987
    34  H   0.999        C   31 0.988
    35  O   1.811        H   18 0.924    H   11 0.835
    36  O   1.826        H   14 0.916    H   13 0.852

molecular dipole:
                 x           y           z       tot (Debye)
 q only:       -0.139       1.453      -0.895
   full:        0.137       1.156      -0.946       3.813
molecular quadrupole (traceless):
                xx          xy          yy          xz          yz          zz
 q only:       13.582       2.166     -15.259      -0.196      -1.705       1.677
  q+dip:       17.664      -2.626     -14.937       1.981      -2.911      -2.728
   full:       16.329      -2.245     -16.755       0.446      -3.094       0.426

           -------------------------------------------------
          |                Property Printout                |
           -------------------------------------------------

    * Orbital Energies and Occupations

         #    Occupation            Energy/Eh            Energy/eV
      -------------------------------------------------------------
         1        2.0000           -0.7254290             -19.7399
       ...           ...                  ...                  ...
        32        2.0000           -0.4691531             -12.7663
        33        2.0000           -0.4508812             -12.2691
        34        2.0000           -0.4490859             -12.2202
        35        2.0000           -0.4475340             -12.1780
        36        2.0000           -0.4378825             -11.9154
        37        2.0000           -0.4368121             -11.8863
        38        2.0000           -0.4345104             -11.8236
        39        2.0000           -0.4324853             -11.7685
        40        2.0000           -0.4246531             -11.5554
        41        2.0000           -0.4222725             -11.4906
        42        2.0000           -0.4192315             -11.4079
        43        2.0000           -0.4116936             -11.2028
        44        2.0000           -0.3828453             -10.4178 (HOMO)
        45                         -0.3010130              -8.1910 (LUMO)
        46                         -0.2382813              -6.4840
        47                         -0.2071360              -5.6365
        48                         -0.0993663              -2.7039
        49                          0.0097942               0.2665
        50                          0.0591253               1.6089
        51                          0.0860058               2.3403
        52                          0.0904862               2.4623
        53                          0.1071199               2.9149
        54                          0.1137888               3.0964
        55                          0.1197479               3.2585
       ...                                ...                  ...
        81                          0.6427054              17.4889
      -------------------------------------------------------------
                  HL-Gap            0.0818324 Eh            2.2268 eV
             Fermi-level           -0.3419292 Eh           -9.3044 eV

     #   Z        covCN         q      C6AA      α(0)
     1   6 C      2.969    -0.006    28.161     8.705
     2   6 C      2.921    -0.018    28.468     8.750
     3   6 C      2.913    -0.023    28.573     8.765
     4   6 C      2.917    -0.014    28.372     8.735
     5   6 C      2.914    -0.024    28.611     8.771
     6   6 C      2.918    -0.012    28.320     8.727
     7   6 C      2.769     0.209    23.570     7.951
     8   1 H      0.925     0.056     2.247     2.344
     9   1 H      0.926     0.057     2.237     2.339
    10   1 H      0.925     0.056     2.249     2.345
    11   1 H      0.801     0.308     0.699     1.314
    12   8 O      0.856    -0.404    21.765     6.255
    13   1 H      0.803     0.316     0.675     1.290
    14   1 H      0.805     0.287     0.762     1.371
    15   1 H      0.860     0.175     1.241     1.745
    16   1 H      0.860     0.144     1.444     1.882
    17   1 H      0.923     0.043     2.408     2.427
    18   1 H      0.805     0.272     0.810     1.414
    19   1 H      0.925     0.055     2.259     2.351
    20   1 H      0.925     0.053     2.286     2.364
    21   7 N      2.628    -0.376    29.720     8.097
    22   6 C      3.731     0.019    20.346     6.439
    23   1 H      0.924     0.034     2.526     2.485
    24   1 H      0.924     0.012     2.858     2.644
    25   6 C      3.802    -0.067    21.777     6.644
    26   1 H      0.924     0.034     2.530     2.488
    27   1 H      0.924     0.047     2.353     2.399
    28   6 C      3.800    -0.054    21.544     6.609
    29   1 H      0.924     0.033     2.550     2.497
    30   1 H      0.924     0.031     2.576     2.510
    31   6 C      3.750    -0.103    22.524     6.769
    32   1 H      0.924     0.037     2.493     2.469
    33   1 H      0.924     0.037     2.493     2.469
    34   1 H      0.924     0.035     2.517     2.481
    35   8 O      1.606    -0.625    25.794     6.854
    36   8 O      1.608    -0.622    25.730     6.846

 Mol. C6AA /au·bohr⁶  :      10934.228311
 Mol. C8AA /au·bohr⁸  :     240410.697236
 Mol. α(0) /au        :        160.543326


Wiberg/Mayer (AO) data.
largest (>0.10) Wiberg bond orders for each atom
          total WBO             WBO to atom ...
     1  C   3.989        C    2 1.362    C    6 1.357    C    7 1.089
     2  C   3.988        C    3 1.459    C    1 1.362    H    8 0.966    C    5 0.103
     3  C   3.991        C    2 1.459    C    4 1.430    H   19 0.969    C    6 0.104
     4  C   3.988        C    3 1.430    C    5 1.422    H   10 0.970
     5  C   3.991        C    6 1.467    C    4 1.422    H   20 0.969    C    2 0.103
     6  C   3.989        C    5 1.467    C    1 1.357    H    9 0.967    C    3 0.104
     7  C   3.904        O   12 1.784    C    1 1.089    H   17 0.934
     8  H   0.997        C    2 0.966
     9  H   0.997        C    6 0.967
    10  H   0.996        C    4 0.970
    11  H   0.905        O   35 0.835
    12  O   2.060        C    7 1.784
    13  H   0.900        O   36 0.852
    14  H   0.918        O   36 0.916
    15  H   0.969        N   21 0.937
    16  H   0.979        N   21 0.966
    17  H   0.998        C    7 0.934
    18  H   0.926        O   35 0.924
    19  H   0.997        C    3 0.969
    20  H   0.997        C    5 0.969
    21  N   3.065        C   22 1.011    H   16 0.966    H   15 0.937
    22  C   3.982        N   21 1.011    C   25 1.007    H   23 0.976    H   24 0.972
    23  H   0.999        C   22 0.976
    24  H   1.000        C   22 0.972
    25  C   3.995        C   28 1.007    C   22 1.007    H   26 0.974    H   27 0.973
    26  H   0.999        C   25 0.974
    27  H   0.998        C   25 0.973
    28  C   3.997        C   31 1.019    C   25 1.007    H   29 0.978    H   30 0.978
    29  H   0.999        C   28 0.978
    30  H   0.999        C   28 0.978
    31  C   3.996        C   28 1.019    H   34 0.988    H   32 0.988    H   33 0.987
    32  H   0.999        C   31 0.988
    33  H   0.998        C   31 0.987
    34  H   0.999        C   31 0.988
    35  O   1.811        H   18 0.924    H   11 0.835
    36  O   1.826        H   14 0.916    H   13 0.852

molecular dipole:
                 x           y           z       tot (Debye)
 q only:       -0.139       1.453      -0.895
   full:        0.137       1.156      -0.946       3.813
molecular quadrupole (traceless):
                xx          xy          yy          xz          yz          zz
 q only:       13.582       2.166     -15.259      -0.196      -1.705       1.677
  q+dip:       17.664      -2.626     -14.937       1.981      -2.911      -2.728
   full:       16.329      -2.245     -16.755       0.446      -3.094       0.426


           -------------------------------------------------
          | TOTAL ENERGY              -49.350928910878 Eh   |
          | GRADIENT NORM               0.026150415170 Eh/α |
          | HOMO-LUMO GAP               2.226771958124 eV   |
           -------------------------------------------------

------------------------------------------------------------------------
 * finished run on 2021/03/20 at 13:35:47.203     
------------------------------------------------------------------------
 total:
 * wall-time:     0 d,  0 h,  0 min,  0.072 sec
 *  cpu-time:     0 d,  0 h,  0 min,  0.607 sec
 * ratio c/w:     8.433 speedup
 SCF:
 * wall-time:     0 d,  0 h,  0 min,  0.033 sec
 *  cpu-time:     0 d,  0 h,  0 min,  0.289 sec
 * ratio c/w:     8.720 speedup


-------------------------   --------------------
FINAL SINGLE POINT ENERGY       -49.350928910880
-------------------------   --------------------


----------------------------------------------------------------------------
                           ORCA NUMERICAL FREQUENCIES
                              (8-process run)
----------------------------------------------------------------------------

Number of atoms                ... 36
Central differences            ... used
Number of displacements        ... 216
Numerical increment            ... 5.000e-03 bohr
IR-spectrum generation         ... on
Raman-spectrum generation      ... off
Surface Crossing Hessian       ... off
List of participating nodes    ...  /tmp/slurm-scratch/freq.397/freq.hostnames

The output will be reduced. Please look at the following files:
SCF program output             ... >/tmp/slurm-scratch/freq.397/freq.lastscf
Integral program output        ... >/tmp/slurm-scratch/freq.397/freq.lastint
Gradient program output        ... >/tmp/slurm-scratch/freq.397/freq.lastgrad
Dipole moment program output   ... >/tmp/slurm-scratch/freq.397/freq.lastmom
AutoCI program output          ... >/tmp/slurm-scratch/freq.397/freq.lastautoci


         <<< Energy and Gradient at the input geometry >>>

        <<< Energy and Gradient at displaced geometries >>>
             <<<Displacing   1/coordinate 1 (+)>>>
             <<<Displacing   1/coordinate 1 (-)>>>
             <<<Displacing   2/coordinate 3 (+)>>>
             <<<Displacing   3/coordinate 2 (+)>>>
             <<<Displacing   2/coordinate 3 (-)>>>
             <<<Displacing   2/coordinate 1 (+)>>>
             <<<Displacing   1/coordinate 2 (+)>>>
             <<<Displacing   3/coordinate 2 (-)>>>
             <<<Displacing   2/coordinate 1 (-)>>>
             <<<Displacing   1/coordinate 2 (-)>>>
             <<<Displacing   3/coordinate 1 (+)>>>
             <<<Displacing   1/coordinate 3 (+)>>>
             <<<Displacing   2/coordinate 2 (+)>>>
             <<<Displacing   1/coordinate 3 (-)>>>
             <<<Displacing   3/coordinate 1 (-)>>>
             <<<Displacing   2/coordinate 2 (-)>>>
             <<<Displacing   4/coordinate 1 (+)>>>
             <<<Displacing   4/coordinate 1 (-)>>>
             <<<Displacing   3/coordinate 3 (+)>>>
             <<<Displacing   3/coordinate 3 (-)>>>
             <<<Displacing   4/coordinate 3 (+)>>>
             <<<Displacing   5/coordinate 2 (+)>>>
             <<<Displacing   5/coordinate 3 (+)>>>
             <<<Displacing   4/coordinate 3 (-)>>>
             <<<Displacing   5/coordinate 2 (-)>>>
             <<<Displacing   5/coordinate 3 (-)>>>
             <<<Displacing   6/coordinate 1 (+)>>>
             <<<Displacing   4/coordinate 2 (+)>>>
             <<<Displacing   6/coordinate 1 (-)>>>
             <<<Displacing   5/coordinate 1 (+)>>>
             <<<Displacing   4/coordinate 2 (-)>>>
             <<<Displacing   5/coordinate 1 (-)>>>
             <<<Displacing   6/coordinate 3 (+)>>>
             <<<Displacing   6/coordinate 3 (-)>>>
             <<<Displacing   7/coordinate 1 (+)>>>
             <<<Displacing   7/coordinate 1 (-)>>>
             <<<Displacing   8/coordinate 3 (+)>>>
             <<<Displacing   6/coordinate 2 (+)>>>
             <<<Displacing   7/coordinate 3 (+)>>>
             <<<Displacing   8/coordinate 2 (+)>>>
             <<<Displacing   8/coordinate 3 (-)>>>
             <<<Displacing   6/coordinate 2 (-)>>>
             <<<Displacing   7/coordinate 3 (-)>>>
             <<<Displacing   8/coordinate 2 (-)>>>
             <<<Displacing   8/coordinate 1 (+)>>>
             <<<Displacing   8/coordinate 1 (-)>>>
             <<<Displacing   7/coordinate 2 (+)>>>
             <<<Displacing   7/coordinate 2 (-)>>>
             <<<Displacing   9/coordinate 1 (+)>>>
             <<<Displacing   9/coordinate 1 (-)>>>
             <<<Displacing   9/coordinate 2 (+)>>>
             <<<Displacing   9/coordinate 2 (-)>>>
             <<<Displacing  10/coordinate 3 (+)>>>
             <<<Displacing  10/coordinate 3 (-)>>>
             <<<Displacing  10/coordinate 2 (+)>>>
             <<<Displacing  10/coordinate 1 (+)>>>
             <<<Displacing  10/coordinate 2 (-)>>>
             <<<Displacing  10/coordinate 1 (-)>>>
             <<<Displacing  11/coordinate 2 (+)>>>
             <<<Displacing   9/coordinate 3 (+)>>>
             <<<Displacing  11/coordinate 2 (-)>>>
             <<<Displacing   9/coordinate 3 (-)>>>
             <<<Displacing  11/coordinate 1 (+)>>>
             <<<Displacing  11/coordinate 1 (-)>>>
             <<<Displacing  12/coordinate 1 (+)>>>
             <<<Displacing  13/coordinate 2 (+)>>>
             <<<Displacing  12/coordinate 1 (-)>>>
             <<<Displacing  13/coordinate 1 (+)>>>
             <<<Displacing  11/coordinate 3 (+)>>>
             <<<Displacing  13/coordinate 2 (-)>>>
             <<<Displacing  12/coordinate 3 (+)>>>
             <<<Displacing  13/coordinate 1 (-)>>>
             <<<Displacing  11/coordinate 3 (-)>>>
             <<<Displacing  12/coordinate 2 (+)>>>
             <<<Displacing  12/coordinate 3 (-)>>>
             <<<Displacing  12/coordinate 2 (-)>>>
             <<<Displacing  13/coordinate 3 (+)>>>
             <<<Displacing  13/coordinate 3 (-)>>>
             <<<Displacing  14/coordinate 1 (+)>>>
             <<<Displacing  14/coordinate 1 (-)>>>
             <<<Displacing  14/coordinate 3 (+)>>>
             <<<Displacing  14/coordinate 3 (-)>>>
             <<<Displacing  15/coordinate 2 (+)>>>
             <<<Displacing  15/coordinate 2 (-)>>>
             <<<Displacing  15/coordinate 1 (+)>>>
             <<<Displacing  15/coordinate 1 (-)>>>
             <<<Displacing  14/coordinate 2 (+)>>>
             <<<Displacing  16/coordinate 1 (+)>>>
             <<<Displacing  14/coordinate 2 (-)>>>
             <<<Displacing  16/coordinate 1 (-)>>>
             <<<Displacing  15/coordinate 3 (+)>>>
             <<<Displacing  16/coordinate 2 (+)>>>
             <<<Displacing  15/coordinate 3 (-)>>>
             <<<Displacing  16/coordinate 2 (-)>>>
             <<<Displacing  16/coordinate 3 (+)>>>
             <<<Displacing  16/coordinate 3 (-)>>>
             <<<Displacing  17/coordinate 1 (+)>>>
             <<<Displacing  17/coordinate 1 (-)>>>
             <<<Displacing  17/coordinate 2 (+)>>>
             <<<Displacing  17/coordinate 2 (-)>>>
             <<<Displacing  18/coordinate 1 (+)>>>
             <<<Displacing  17/coordinate 3 (+)>>>
             <<<Displacing  18/coordinate 1 (-)>>>
             <<<Displacing  17/coordinate 3 (-)>>>
             <<<Displacing  19/coordinate 1 (+)>>>
             <<<Displacing  18/coordinate 2 (+)>>>
             <<<Displacing  18/coordinate 3 (+)>>>
             <<<Displacing  18/coordinate 2 (-)>>>
             <<<Displacing  19/coordinate 1 (-)>>>
             <<<Displacing  18/coordinate 3 (-)>>>
             <<<Displacing  19/coordinate 2 (+)>>>
             <<<Displacing  19/coordinate 2 (-)>>>
             <<<Displacing  19/coordinate 3 (+)>>>
             <<<Displacing  19/coordinate 3 (-)>>>
             <<<Displacing  20/coordinate 1 (+)>>>
             <<<Displacing  20/coordinate 1 (-)>>>
             <<<Displacing  20/coordinate 2 (+)>>>
             <<<Displacing  20/coordinate 2 (-)>>>
             <<<Displacing  21/coordinate 1 (+)>>>
             <<<Displacing  21/coordinate 3 (+)>>>
             <<<Displacing  21/coordinate 1 (-)>>>
             <<<Displacing  20/coordinate 3 (+)>>>
             <<<Displacing  21/coordinate 3 (-)>>>
             <<<Displacing  21/coordinate 2 (+)>>>
             <<<Displacing  20/coordinate 3 (-)>>>
             <<<Displacing  21/coordinate 2 (-)>>>
             <<<Displacing  22/coordinate 1 (+)>>>
             <<<Displacing  22/coordinate 1 (-)>>>
             <<<Displacing  22/coordinate 2 (+)>>>
             <<<Displacing  22/coordinate 3 (+)>>>
             <<<Displacing  22/coordinate 2 (-)>>>
             <<<Displacing  22/coordinate 3 (-)>>>
             <<<Displacing  23/coordinate 1 (+)>>>
             <<<Displacing  23/coordinate 1 (-)>>>
             <<<Displacing  23/coordinate 2 (+)>>>
             <<<Displacing  23/coordinate 2 (-)>>>
             <<<Displacing  23/coordinate 3 (+)>>>
             <<<Displacing  24/coordinate 1 (+)>>>
             <<<Displacing  23/coordinate 3 (-)>>>
             <<<Displacing  24/coordinate 2 (+)>>>
             <<<Displacing  24/coordinate 1 (-)>>>
             <<<Displacing  24/coordinate 2 (-)>>>
             <<<Displacing  24/coordinate 3 (+)>>>
             <<<Displacing  24/coordinate 3 (-)>>>
             <<<Displacing  25/coordinate 1 (+)>>>
             <<<Displacing  25/coordinate 1 (-)>>>
             <<<Displacing  25/coordinate 2 (+)>>>
             <<<Displacing  25/coordinate 2 (-)>>>
             <<<Displacing  25/coordinate 3 (+)>>>
             <<<Displacing  26/coordinate 1 (+)>>>
             <<<Displacing  25/coordinate 3 (-)>>>
             <<<Displacing  26/coordinate 1 (-)>>>
             <<<Displacing  26/coordinate 2 (+)>>>
             <<<Displacing  26/coordinate 2 (-)>>>
             <<<Displacing  26/coordinate 3 (+)>>>
             <<<Displacing  26/coordinate 3 (-)>>>
             <<<Displacing  27/coordinate 1 (+)>>>
             <<<Displacing  27/coordinate 1 (-)>>>
             <<<Displacing  27/coordinate 2 (+)>>>
             <<<Displacing  27/coordinate 2 (-)>>>
             <<<Displacing  27/coordinate 3 (+)>>>
             <<<Displacing  27/coordinate 3 (-)>>>
             <<<Displacing  28/coordinate 1 (+)>>>
             <<<Displacing  28/coordinate 1 (-)>>>
             <<<Displacing  28/coordinate 2 (+)>>>
             <<<Displacing  28/coordinate 3 (+)>>>
             <<<Displacing  28/coordinate 2 (-)>>>
             <<<Displacing  28/coordinate 3 (-)>>>
             <<<Displacing  29/coordinate 1 (+)>>>
             <<<Displacing  29/coordinate 3 (+)>>>
             <<<Displacing  29/coordinate 1 (-)>>>
             <<<Displacing  29/coordinate 2 (+)>>>
             <<<Displacing  29/coordinate 3 (-)>>>
             <<<Displacing  30/coordinate 1 (+)>>>
             <<<Displacing  29/coordinate 2 (-)>>>
             <<<Displacing  30/coordinate 1 (-)>>>
             <<<Displacing  30/coordinate 2 (+)>>>
             <<<Displacing  30/coordinate 2 (-)>>>
             <<<Displacing  30/coordinate 3 (+)>>>
             <<<Displacing  30/coordinate 3 (-)>>>
             <<<Displacing  31/coordinate 1 (+)>>>
             <<<Displacing  31/coordinate 2 (+)>>>
             <<<Displacing  31/coordinate 1 (-)>>>
             <<<Displacing  31/coordinate 2 (-)>>>
             <<<Displacing  32/coordinate 1 (+)>>>
             <<<Displacing  31/coordinate 3 (+)>>>
             <<<Displacing  32/coordinate 1 (-)>>>
             <<<Displacing  31/coordinate 3 (-)>>>
             <<<Displacing  32/coordinate 3 (+)>>>
             <<<Displacing  32/coordinate 2 (+)>>>
             <<<Displacing  32/coordinate 3 (-)>>>
             <<<Displacing  32/coordinate 2 (-)>>>
             <<<Displacing  33/coordinate 1 (+)>>>
             <<<Displacing  33/coordinate 1 (-)>>>
             <<<Displacing  33/coordinate 2 (+)>>>
             <<<Displacing  33/coordinate 3 (+)>>>
             <<<Displacing  34/coordinate 1 (+)>>>
             <<<Displacing  33/coordinate 2 (-)>>>
             <<<Displacing  33/coordinate 3 (-)>>>
             <<<Displacing  34/coordinate 1 (-)>>>
             <<<Displacing  34/coordinate 2 (+)>>>
             <<<Displacing  34/coordinate 2 (-)>>>
             <<<Displacing  34/coordinate 3 (+)>>>
             <<<Displacing  35/coordinate 1 (+)>>>
             <<<Displacing  34/coordinate 3 (-)>>>
             <<<Displacing  35/coordinate 1 (-)>>>
             <<<Displacing  35/coordinate 2 (+)>>>
             <<<Displacing  35/coordinate 2 (-)>>>
             <<<Displacing  35/coordinate 3 (+)>>>
             <<<Displacing  35/coordinate 3 (-)>>>
             <<<Displacing  36/coordinate 1 (+)>>>
             <<<Displacing  36/coordinate 1 (-)>>>
             <<<Displacing  36/coordinate 2 (+)>>>
             <<<Displacing  36/coordinate 2 (-)>>>
             <<<Displacing  36/coordinate 3 (+)>>>
             <<<Displacing  36/coordinate 3 (-)>>>

-----------------------
VIBRATIONAL FREQUENCIES
-----------------------

Scaling factor for frequencies =  1.000000000 (already applied!)

   0:         0.00 cm**-1
   1:         0.00 cm**-1
   2:         0.00 cm**-1
   3:         0.00 cm**-1
   4:         0.00 cm**-1
   5:         0.00 cm**-1
   6:       -13.92 cm**-1 ***imaginary mode***
   7:        31.72 cm**-1
   8:        37.57 cm**-1
   9:        45.06 cm**-1
  10:        49.50 cm**-1
  11:        54.55 cm**-1
  12:        62.19 cm**-1
  13:        70.06 cm**-1
  14:        78.97 cm**-1
  15:       108.86 cm**-1
  16:       123.27 cm**-1
  17:       133.97 cm**-1
  18:       143.22 cm**-1
  19:       150.38 cm**-1
  20:       203.11 cm**-1
  21:       232.94 cm**-1
  22:       240.01 cm**-1
  23:       250.38 cm**-1
  24:       258.47 cm**-1
  25:       264.79 cm**-1
  26:       278.22 cm**-1
  27:       375.27 cm**-1
  28:       389.90 cm**-1
  29:       395.23 cm**-1
  30:       419.19 cm**-1
  31:       426.54 cm**-1
  32:       441.57 cm**-1
  33:       448.42 cm**-1
  34:       475.65 cm**-1
  35:       586.09 cm**-1
  36:       628.47 cm**-1
  37:       651.11 cm**-1
  38:       658.62 cm**-1
  39:       724.07 cm**-1
  40:       743.21 cm**-1
  41:       777.52 cm**-1
  42:       827.96 cm**-1
  43:       832.22 cm**-1
  44:       871.29 cm**-1
  45:       904.20 cm**-1
  46:       922.38 cm**-1
  47:       931.50 cm**-1
  48:       934.67 cm**-1
  49:       939.42 cm**-1
  50:       940.12 cm**-1
  51:       984.37 cm**-1
  52:      1003.25 cm**-1
  53:      1006.85 cm**-1
  54:      1064.55 cm**-1
  55:      1065.32 cm**-1
  56:      1095.52 cm**-1
  57:      1113.08 cm**-1
  58:      1122.58 cm**-1
  59:      1153.79 cm**-1
  60:      1176.57 cm**-1
  61:      1180.98 cm**-1
  62:      1204.09 cm**-1
  63:      1213.76 cm**-1
  64:      1238.41 cm**-1
  65:      1268.79 cm**-1
  66:      1275.43 cm**-1
  67:      1280.18 cm**-1
  68:      1290.60 cm**-1
  69:      1306.54 cm**-1
  70:      1352.15 cm**-1
  71:      1362.16 cm**-1
  72:      1378.50 cm**-1
  73:      1427.29 cm**-1
  74:      1428.31 cm**-1
  75:      1447.20 cm**-1
  76:      1494.61 cm**-1
  77:      1505.14 cm**-1
  78:      1508.38 cm**-1
  79:      1510.45 cm**-1
  80:      1514.08 cm**-1
  81:      1543.11 cm**-1
  82:      1547.71 cm**-1
  83:      1560.16 cm**-1
  84:      1564.45 cm**-1
  85:      1567.77 cm**-1
  86:      1651.49 cm**-1
  87:      2869.90 cm**-1
  88:      2883.40 cm**-1
  89:      2936.33 cm**-1
  90:      2946.20 cm**-1
  91:      2964.11 cm**-1
  92:      2965.53 cm**-1
  93:      2973.14 cm**-1
  94:      2975.37 cm**-1
  95:      2978.58 cm**-1
  96:      2985.36 cm**-1
  97:      2997.80 cm**-1
  98:      3060.07 cm**-1
  99:      3062.63 cm**-1
 100:      3068.73 cm**-1
 101:      3075.39 cm**-1
 102:      3080.18 cm**-1
 103:      3253.28 cm**-1
 104:      3328.71 cm**-1
 105:      3414.07 cm**-1
 106:      3584.47 cm**-1
 107:      3594.01 cm**-1


------------
NORMAL MODES
------------

These modes are the cartesian displacements weighted by the diagonal matrix
M(i,i)=1/sqrt(m[i]) where m[i] is the mass of the displaced atom
Thus, these vectors are normalized but *not* orthogonal

                  0          1          2          3          4          5    
      0       0.000000   0.000000   0.000000   0.000000   0.000000   0.000000
      1       0.000000   0.000000   0.000000   0.000000   0.000000   0.000000
      2       0.000000   0.000000   0.000000   0.000000   0.000000   0.000000
      3       0.000000   0.000000   0.000000   0.000000   0.000000   0.000000
      4       0.000000   0.000000   0.000000   0.000000   0.000000   0.000000
      5       0.000000   0.000000   0.000000   0.000000   0.000000   0.000000
      6       0.000000   0.000000   0.000000   0.000000   0.000000   0.000000
      7       0.000000   0.000000   0.000000   0.000000   0.000000   0.000000
      8       0.000000   0.000000   0.000000   0.000000   0.000000   0.000000
      9       0.000000   0.000000   0.000000   0.000000   0.000000   0.000000
     10       0.000000   0.000000   0.000000   0.000000   0.000000   0.000000
     11       0.000000   0.000000   0.000000   0.000000   0.000000   0.000000
     12       0.000000   0.000000   0.000000   0.000000   0.000000   0.000000
     13       0.000000   0.000000   0.000000   0.000000   0.000000   0.000000
     14       0.000000   0.000000   0.000000   0.000000   0.000000   0.000000
     15       0.000000   0.000000   0.000000   0.000000   0.000000   0.000000
     16       0.000000   0.000000   0.000000   0.000000   0.000000   0.000000
     17       0.000000   0.000000   0.000000   0.000000   0.000000   0.000000
     18       0.000000   0.000000   0.000000   0.000000   0.000000   0.000000
     19       0.000000   0.000000   0.000000   0.000000   0.000000   0.000000
     20       0.000000   0.000000   0.000000   0.000000   0.000000   0.000000
     21       0.000000   0.000000   0.000000   0.000000   0.000000   0.000000
     22       0.000000   0.000000   0.000000   0.000000   0.000000   0.000000
     23       0.000000   0.000000   0.000000   0.000000   0.000000   0.000000
     24       0.000000   0.000000   0.000000   0.000000   0.000000   0.000000
     25       0.000000   0.000000   0.000000   0.000000   0.000000   0.000000
     26       0.000000   0.000000   0.000000   0.000000   0.000000   0.000000
     27       0.000000   0.000000   0.000000   0.000000   0.000000   0.000000
     28       0.000000   0.000000   0.000000   0.000000   0.000000   0.000000
     29       0.000000   0.000000   0.000000   0.000000   0.000000   0.000000
     30       0.000000   0.000000   0.000000   0.000000   0.000000   0.000000
     31       0.000000   0.000000   0.000000   0.000000   0.000000   0.000000
     32       0.000000   0.000000   0.000000   0.000000   0.000000   0.000000
     33       0.000000   0.000000   0.000000   0.000000   0.000000   0.000000
     34       0.000000   0.000000   0.000000   0.000000   0.000000   0.000000
     35       0.000000   0.000000   0.000000   0.000000   0.000000   0.000000
     36       0.000000   0.000000   0.000000   0.000000   0.000000   0.000000
     37       0.000000   0.000000   0.000000   0.000000   0.000000   0.000000
     38       0.000000   0.000000   0.000000   0.000000   0.000000   0.000000
     39       0.000000   0.000000   0.000000   0.000000   0.000000   0.000000
     40       0.000000   0.000000   0.000000   0.000000   0.000000   0.000000
     41       0.000000   0.000000   0.000000   0.000000   0.000000   0.000000
     42       0.000000   0.000000   0.000000   0.000000   0.000000   0.000000
     43       0.000000   0.000000   0.000000   0.000000   0.000000   0.000000
     44       0.000000   0.000000   0.000000   0.000000   0.000000   0.000000
     45       0.000000   0.000000   0.000000   0.000000   0.000000   0.000000
     46       0.000000   0.000000   0.000000   0.000000   0.000000   0.000000
     47       0.000000   0.000000   0.000000   0.000000   0.000000   0.000000
     48       0.000000   0.000000   0.000000   0.000000   0.000000   0.000000
     49       0.000000   0.000000   0.000000   0.000000   0.000000   0.000000
     50       0.000000   0.000000   0.000000   0.000000   0.000000   0.000000
     51       0.000000   0.000000   0.000000   0.000000   0.000000   0.000000
     52       0.000000   0.000000   0.000000   0.000000   0.000000   0.000000
     53       0.000000   0.000000   0.000000   0.000000   0.000000   0.000000
     54       0.000000   0.000000   0.000000   0.000000   0.000000   0.000000
     55       0.000000   0.000000   0.000000   0.000000   0.000000   0.000000
     56       0.000000   0.000000   0.000000   0.000000   0.000000   0.000000
     57       0.000000   0.000000   0.000000   0.000000   0.000000   0.000000
     58       0.000000   0.000000   0.000000   0.000000   0.000000   0.000000
     59       0.000000   0.000000   0.000000   0.000000   0.000000   0.000000
     60       0.000000   0.000000   0.000000   0.000000   0.000000   0.000000
     61       0.000000   0.000000   0.000000   0.000000   0.000000   0.000000
     62       0.000000   0.000000   0.000000   0.000000   0.000000   0.000000
     63       0.000000   0.000000   0.000000   0.000000   0.000000   0.000000
     64       0.000000   0.000000   0.000000   0.000000   0.000000   0.000000
     65       0.000000   0.000000   0.000000   0.000000   0.000000   0.000000
     66       0.000000   0.000000   0.000000   0.000000   0.000000   0.000000
     67       0.000000   0.000000   0.000000   0.000000   0.000000   0.000000
     68       0.000000   0.000000   0.000000   0.000000   0.000000   0.000000
     69       0.000000   0.000000   0.000000   0.000000   0.000000   0.000000
     70       0.000000   0.000000   0.000000   0.000000   0.000000   0.000000
     71       0.000000   0.000000   0.000000   0.000000   0.000000   0.000000
     72       0.000000   0.000000   0.000000   0.000000   0.000000   0.000000
     73       0.000000   0.000000   0.000000   0.000000   0.000000   0.000000
     74       0.000000   0.000000   0.000000   0.000000   0.000000   0.000000
     75       0.000000   0.000000   0.000000   0.000000   0.000000   0.000000
     76       0.000000   0.000000   0.000000   0.000000   0.000000   0.000000
     77       0.000000   0.000000   0.000000   0.000000   0.000000   0.000000
     78       0.000000   0.000000   0.000000   0.000000   0.000000   0.000000
     79       0.000000   0.000000   0.000000   0.000000   0.000000   0.000000
     80       0.000000   0.000000   0.000000   0.000000   0.000000   0.000000
     81       0.000000   0.000000   0.000000   0.000000   0.000000   0.000000
     82       0.000000   0.000000   0.000000   0.000000   0.000000   0.000000
     83       0.000000   0.000000   0.000000   0.000000   0.000000   0.000000
     84       0.000000   0.000000   0.000000   0.000000   0.000000   0.000000
     85       0.000000   0.000000   0.000000   0.000000   0.000000   0.000000
     86       0.000000   0.000000   0.000000   0.000000   0.000000   0.000000
     87       0.000000   0.000000   0.000000   0.000000   0.000000   0.000000
     88       0.000000   0.000000   0.000000   0.000000   0.000000   0.000000
     89       0.000000   0.000000   0.000000   0.000000   0.000000   0.000000
     90       0.000000   0.000000   0.000000   0.000000   0.000000   0.000000
     91       0.000000   0.000000   0.000000   0.000000   0.000000   0.000000
     92       0.000000   0.000000   0.000000   0.000000   0.000000   0.000000
     93       0.000000   0.000000   0.000000   0.000000   0.000000   0.000000
     94       0.000000   0.000000   0.000000   0.000000   0.000000   0.000000
     95       0.000000   0.000000   0.000000   0.000000   0.000000   0.000000
     96       0.000000   0.000000   0.000000   0.000000   0.000000   0.000000
     97       0.000000   0.000000   0.000000   0.000000   0.000000   0.000000
     98       0.000000   0.000000   0.000000   0.000000   0.000000   0.000000
     99       0.000000   0.000000   0.000000   0.000000   0.000000   0.000000
    100       0.000000   0.000000   0.000000   0.000000   0.000000   0.000000
    101       0.000000   0.000000   0.000000   0.000000   0.000000   0.000000
    102       0.000000   0.000000   0.000000   0.000000   0.000000   0.000000
    103       0.000000   0.000000   0.000000   0.000000   0.000000   0.000000
    104       0.000000   0.000000   0.000000   0.000000   0.000000   0.000000
    105       0.000000   0.000000   0.000000   0.000000   0.000000   0.000000
    106       0.000000   0.000000   0.000000   0.000000   0.000000   0.000000
    107       0.000000   0.000000   0.000000   0.000000   0.000000   0.000000
                  6          7          8          9         10         11    
      0      -0.053309   0.083570  -0.026878   0.055251   0.003439  -0.028743
      1      -0.012293  -0.052136   0.045370   0.077337  -0.003022  -0.006364
      2      -0.069876   0.018617   0.021196  -0.029737  -0.080384   0.015618
      3      -0.054796   0.138373  -0.002665  -0.018986  -0.015765  -0.044454
      4      -0.010913  -0.071504   0.036913   0.103250   0.003536  -0.001795
      5      -0.011784   0.047799  -0.065195   0.007676  -0.055933   0.175080
      6      -0.041383   0.182367   0.020983  -0.074713  -0.051717  -0.019478
      7      -0.003386  -0.030134   0.031197   0.064664   0.003420   0.014932
      8      -0.022648   0.065759  -0.146731   0.029947   0.037593   0.162870
      9      -0.028266   0.172009   0.022219  -0.058861  -0.068970   0.020438
     10       0.004310   0.030822   0.032961   0.000126  -0.002441   0.027268
     11      -0.081697   0.057607  -0.152680   0.019054   0.110876  -0.005799
     12      -0.028164   0.117789   0.000731   0.012739  -0.051156   0.034769
     13       0.004227   0.050633   0.040392  -0.025592  -0.008787   0.023235
     14      -0.134493   0.030559  -0.077573  -0.012782   0.091323  -0.159922
     15      -0.039781   0.073853  -0.024581   0.070142  -0.015169   0.011078
     16      -0.004592   0.009233   0.047055   0.012700  -0.008669   0.006317
     17      -0.134292   0.010431   0.011595  -0.038718  -0.003325  -0.152586
     18      -0.066425   0.035433  -0.049690   0.115833   0.032207  -0.051738
     19      -0.016997  -0.095665   0.049516   0.119027  -0.004441  -0.023721
     20      -0.057739   0.002731   0.104071  -0.057002  -0.162331   0.022790
     21      -0.066061   0.145408  -0.003262  -0.030755  -0.002166  -0.076339
     22      -0.016716  -0.119530   0.035724   0.152962   0.008392  -0.012252
     23       0.036288   0.054449  -0.061805   0.016351  -0.112035   0.305506
     24      -0.038405   0.031993  -0.043124   0.126383  -0.000712   0.022281
     25      -0.004866   0.023556   0.053196  -0.006358  -0.013563   0.002850
     26      -0.176825  -0.010292   0.072868  -0.066076  -0.019664  -0.272636
     27      -0.018815   0.205472   0.040462  -0.101897  -0.095942   0.039884
     28       0.010540   0.062758   0.028149  -0.029852  -0.002166   0.039995
     29      -0.086258   0.072278  -0.216344   0.035952   0.182867  -0.016113
     30       0.135738  -0.054278   0.100164   0.003614   0.107205  -0.066337
     31       0.086542   0.008411  -0.200255  -0.084794   0.054894  -0.091483
     32       0.306147   0.053093  -0.028321   0.053976  -0.106691   0.019008
     33      -0.048008  -0.008439  -0.083668   0.182993   0.040493  -0.047966
     34      -0.021111  -0.085054   0.058244   0.102561  -0.006388  -0.025350
     35      -0.135922  -0.031140   0.205434  -0.094976  -0.187086  -0.074032
     36      -0.032619  -0.045230  -0.100083   0.103899  -0.150787  -0.087719
     37       0.006097  -0.113507   0.014037   0.070234  -0.116259  -0.021071
     38      -0.059406   0.000193   0.115775   0.065942   0.090131   0.064094
     39      -0.008103  -0.043421  -0.141663   0.108169  -0.178446  -0.097068
     40       0.033074  -0.139416  -0.019672  -0.034607  -0.353425  -0.084565
     41       0.005982   0.032250  -0.006046   0.195116   0.244827   0.102704
     42      -0.019319  -0.055686   0.118071  -0.008730   0.008803   0.083398
     43       0.003968   0.004597  -0.090266  -0.067219  -0.008984   0.054287
     44       0.006727  -0.035756   0.003806   0.173165   0.017440   0.023738
     45       0.147245   0.005102   0.208409   0.075233   0.025882   0.067820
     46      -0.123924   0.000786  -0.140516  -0.018986   0.027471   0.106249
     47       0.015020  -0.037602   0.007706   0.172836   0.012818   0.019986
     48      -0.096732   0.041543  -0.033815   0.096072   0.039461  -0.072774
     49      -0.010414  -0.139828   0.039598   0.170701  -0.003600  -0.035021
     50       0.074485   0.033954   0.044641  -0.042779  -0.194038   0.131151
     51       0.148051  -0.052839   0.090904   0.014302   0.115679  -0.079615
     52       0.159299   0.015346  -0.274988  -0.113577   0.106853  -0.270353
     53       0.283839   0.043325   0.019301  -0.037075  -0.157017   0.054981
     54      -0.041767   0.223847   0.039048  -0.130122  -0.066173  -0.030676
     55      -0.003644  -0.045016   0.025289   0.084153   0.008415   0.018115
     56       0.016676   0.086549  -0.206875   0.055764   0.054637   0.281747
     57      -0.018281   0.110050   0.002936   0.023852  -0.065132   0.065338
     58       0.011307   0.098148   0.040693  -0.075242  -0.013694   0.033014
     59      -0.178648   0.025002  -0.086689  -0.018956   0.150491  -0.288626
     60       0.081845  -0.035401   0.152075   0.022538   0.044950   0.066466
     61      -0.057573   0.005043  -0.113459  -0.045592   0.007212   0.080046
     62       0.052939  -0.037463   0.021646   0.153028   0.001538   0.003171
     63       0.106556  -0.047021   0.132778   0.009051   0.067238   0.051793
     64      -0.105572   0.022753  -0.084067  -0.029754  -0.033365   0.105282
     65      -0.017350  -0.081428  -0.025051   0.057470  -0.012748   0.000399
     66       0.231942  -0.001701   0.191976   0.058279   0.116272   0.003588
     67      -0.190707  -0.015861  -0.151022  -0.006881  -0.070719   0.161149
     68       0.037181  -0.056165   0.020271   0.037603   0.011623  -0.037304
     69       0.082167  -0.036773   0.150008   0.020808   0.047614   0.065316
     70      -0.146072   0.031579  -0.068629  -0.017019  -0.061777   0.126673
     71      -0.178169  -0.163839  -0.148316   0.016710  -0.067485   0.077197
     72       0.005138  -0.130849   0.014293  -0.089735   0.055028   0.087823
     73       0.007159   0.080466   0.014617  -0.064011   0.022021   0.030684
     74       0.052450  -0.048012   0.033930   0.028551   0.023228  -0.047969
     75      -0.095675  -0.164651  -0.017930  -0.166305   0.072408   0.127213
     76       0.087344   0.116366   0.076127  -0.089732   0.061032  -0.018903
     77       0.004055  -0.071214  -0.008417   0.056765  -0.008128  -0.015615
     78       0.023118  -0.142337  -0.013115  -0.086818   0.040331   0.080814
     79       0.031812   0.067505  -0.017940  -0.059778   0.004081   0.020942
     80       0.193670   0.028376   0.140091   0.080281   0.049298  -0.118570
     81       0.019159  -0.148596  -0.021679  -0.095625   0.039531   0.083663
     82      -0.023100   0.104749   0.070330  -0.074400   0.054978   0.040007
     83      -0.000450  -0.083767   0.008605  -0.108102   0.072189  -0.041143
     84       0.096254  -0.119545  -0.002211  -0.017408   0.019491   0.046883
     85      -0.066373   0.080601   0.029415  -0.048428   0.011980   0.080758
     86       0.022637  -0.069282   0.036657  -0.136330   0.106364  -0.066999
     87       0.001161  -0.137258   0.005205  -0.097767   0.054511   0.089604
     88      -0.048133   0.116849   0.100909  -0.078581   0.072397   0.049267
     89      -0.089713  -0.141449  -0.068568  -0.159666   0.042584   0.020615
     90      -0.041146  -0.215041  -0.112688  -0.200015   0.031771   0.121820
     91       0.031669   0.141793   0.135571  -0.113581   0.122505  -0.016088
     92       0.033327  -0.062383   0.047709  -0.139258   0.116920  -0.076797
     93      -0.035721  -0.219550  -0.134670  -0.201767   0.020964   0.117776
     94       0.041184   0.138811   0.113418  -0.113838   0.111557  -0.023259
     95       0.106500  -0.004643   0.122409  -0.095012   0.150340  -0.136889
     96      -0.038024  -0.220517  -0.131236  -0.204579   0.024088   0.119548
     97       0.023955   0.148299   0.164650  -0.114911   0.138515  -0.011504
     98       0.007710  -0.089421   0.028413  -0.229413   0.148445  -0.068238
     99      -0.093421  -0.251224  -0.137305  -0.269381   0.044243   0.156354
    100       0.069470   0.166267   0.176015  -0.139656   0.166424  -0.054607
    101       0.010629  -0.076906   0.021066  -0.115607   0.084978  -0.052215
    102       0.157227  -0.054798   0.072087   0.003002   0.137447  -0.143622
    103       0.136544   0.014866  -0.242476  -0.100248   0.077201  -0.180304
    104       0.416516   0.087486  -0.067562  -0.003221  -0.167912   0.040276
    105      -0.030453  -0.053135  -0.098036   0.043817  -0.248330  -0.103272
    106       0.035096  -0.109550  -0.027472   0.024377  -0.194589  -0.018817
    107      -0.015789   0.028657   0.035945   0.142825   0.207540   0.109919
                 12         13         14         15         16         17    
      0      -0.037463  -0.039138   0.006928  -0.005387  -0.002144   0.070489
      1      -0.045038  -0.043361   0.018061   0.003477  -0.000333  -0.016614
      2      -0.080823   0.023299  -0.003549   0.006605  -0.019148  -0.244360
      3       0.053147  -0.032223  -0.003963  -0.005762  -0.001218   0.039906
      4      -0.076230  -0.047064   0.021985   0.003434  -0.000596  -0.005938
      5      -0.134071   0.176387  -0.002499   0.005296  -0.011971  -0.145793
      6       0.095151   0.005992  -0.011455  -0.004961  -0.001963  -0.031801
      7      -0.019336  -0.015944   0.015611   0.002526   0.003346   0.012649
      8      -0.060604   0.176539  -0.003956  -0.000410   0.002350   0.101914
      9       0.043520   0.040856  -0.008196  -0.004147  -0.003431  -0.057735
     10       0.070490   0.017189   0.005429   0.001892   0.007735   0.016384
     11       0.072825   0.011510  -0.008619  -0.003096   0.004930   0.201650
     12      -0.047152   0.034868   0.002384  -0.004448  -0.002869   0.000480
     13       0.102917   0.020527   0.001614   0.002020   0.007660  -0.003453
     14       0.127611  -0.142971  -0.010296   0.000708  -0.009191   0.001960
     15      -0.088334  -0.005981   0.009559  -0.004878  -0.002756   0.062582
     16       0.045593  -0.009852   0.008378   0.002919   0.004033  -0.018902
     17       0.050261  -0.133121  -0.007077   0.005076  -0.020328  -0.213382
     18      -0.076421  -0.072826   0.012887  -0.003734  -0.004864   0.043658
     19      -0.095965  -0.071808   0.022451   0.001914  -0.001768  -0.008729
     20      -0.143131   0.026414  -0.001151   0.001370  -0.011569  -0.152291
     21       0.092245  -0.060197  -0.006640  -0.006115  -0.000139   0.055060
     22      -0.143803  -0.075223   0.031029   0.003325  -0.002871  -0.006514
     23      -0.235364   0.302749   0.001150   0.006866  -0.014386  -0.203215
     24      -0.160342  -0.011728   0.017551  -0.004911  -0.004096   0.097983
     25       0.070027  -0.007660   0.005663   0.002888   0.004476  -0.030594
     26       0.091222  -0.249873  -0.008213   0.006673  -0.028613  -0.325880
     27       0.073977   0.071935  -0.013589  -0.003234  -0.004413  -0.118566
     28       0.114105   0.040215   0.000304   0.001184   0.010622   0.033394
     29       0.133161   0.003588  -0.010830  -0.007837   0.016852   0.417083
     30       0.028313   0.167154   0.056391   0.044412  -0.046684  -0.016491
     31      -0.094958   0.073230  -0.024836  -0.020604   0.045325  -0.011916
     32       0.037254  -0.136246   0.025076   0.003634   0.011528   0.034030
     33      -0.118616  -0.113303   0.011729  -0.001689  -0.011913  -0.075084
     34      -0.085362  -0.062769   0.023603   0.001617   0.000735   0.024217
     35      -0.159209   0.051137   0.023744  -0.018537   0.022265   0.295827
     36       0.001146  -0.004533  -0.012535  -0.026610   0.012419  -0.030784
     37       0.072273   0.047530  -0.039274  -0.092008  -0.040104   0.010685
     38      -0.023861   0.016166  -0.006797  -0.111588  -0.030835   0.131472
     39       0.051952   0.030359  -0.062570  -0.103000  -0.034098  -0.055836
     40       0.215648   0.203900  -0.124251  -0.221692  -0.101644   0.077836
     41       0.023005  -0.017729  -0.096479  -0.252892  -0.130414  -0.042718
     42       0.112102   0.020043   0.108354   0.116226   0.060637   0.000832
     43       0.001147  -0.040815  -0.062111   0.033506   0.008305  -0.005936
     44       0.126074   0.082909   0.000905   0.033878   0.123329  -0.011420
     45       0.109036   0.024371   0.008447   0.076926  -0.016269   0.005337
     46       0.008149  -0.018725  -0.023451  -0.035643   0.117715  -0.010733
     47       0.130871   0.085354   0.000749   0.038294   0.116949  -0.012106
     48      -0.056297  -0.057803   0.017472  -0.006279   0.001031   0.114331
     49      -0.140330  -0.101846   0.023672   0.001926  -0.003725  -0.033902
     50      -0.162789  -0.001730  -0.023264   0.012827  -0.031911  -0.420298
     51       0.035498   0.172129   0.057810   0.049660  -0.040865   0.003275
     52      -0.187005   0.235678   0.036719  -0.017867   0.013467  -0.049703
     53      -0.041854  -0.132105   0.042837  -0.029389  -0.030990  -0.106630
     54       0.166480   0.010148  -0.019325  -0.004762  -0.001184  -0.070138
     55      -0.044373  -0.018245   0.018386   0.002504   0.003005   0.025267
     56      -0.102827   0.297739  -0.002029  -0.003006   0.011649   0.227821
     57      -0.086695   0.062173   0.004921  -0.003986  -0.003260  -0.009507
     58       0.171911   0.046427  -0.006675   0.001214   0.010240  -0.003926
     59       0.231698  -0.271210  -0.013984  -0.000579  -0.009684   0.042210
     60       0.080454   0.019943   0.020784   0.055733   0.017326  -0.001320
     61       0.003210  -0.033220  -0.043335   0.003043   0.058856  -0.007583
     62       0.126359   0.076505  -0.010866   0.061639   0.081384  -0.010411
     63       0.035909   0.011015  -0.041115  -0.004455   0.011108  -0.005925
     64       0.077657  -0.020713   0.066428   0.112637   0.071854  -0.001272
     65       0.117735   0.052209   0.050490   0.116244   0.087641  -0.013248
     66      -0.041747   0.014472  -0.226261  -0.051544  -0.082629   0.012628
     67       0.153069  -0.003456   0.195756   0.049577   0.201668  -0.030884
     68       0.067551   0.039332  -0.032261   0.163750  -0.001715   0.007134
     69       0.078342   0.020584   0.021218   0.049159   0.021986  -0.003769
     70       0.137040  -0.007950   0.158882   0.178636   0.095888  -0.001230
     71       0.208193   0.051530   0.264123   0.059835   0.262567  -0.054651
     72       0.028460  -0.028819   0.038590  -0.081131   0.087532  -0.028071
     73      -0.023742  -0.045711  -0.101034   0.195988  -0.109661   0.040628
     74       0.049333   0.033322  -0.056876   0.167895  -0.028965   0.013261
     75       0.096997  -0.019298   0.285594  -0.301288   0.116121  -0.068187
     76      -0.103023  -0.068709  -0.234719   0.253362  -0.225096   0.068798
     77       0.100790   0.049666   0.014401   0.148808   0.054467  -0.003224
     78      -0.013612  -0.050897  -0.067378   0.011044   0.091725  -0.012594
     79      -0.077500  -0.073638  -0.236494   0.311877  -0.105309   0.060182
     80      -0.038327   0.027892  -0.285924   0.323831  -0.154193   0.056829
     81      -0.015757  -0.059290  -0.076219   0.021627   0.086891  -0.004334
     82       0.045435  -0.003502   0.101362   0.004553  -0.116857   0.001580
     83       0.028354  -0.004998   0.053652  -0.000443  -0.081693   0.004705
     84      -0.077007  -0.064193  -0.319559   0.199409   0.220348   0.013508
     85       0.111523   0.014757   0.218356   0.048905  -0.268969   0.010056
     86      -0.013563  -0.017979  -0.005099  -0.054074   0.016479  -0.003736
     87       0.023893  -0.034067   0.036061  -0.078145   0.081654  -0.027089
     88       0.096301   0.027319   0.245950  -0.119644  -0.129308  -0.026338
     89       0.099691  -0.011435   0.265186  -0.035300  -0.325720   0.018161
     90      -0.029118  -0.118877  -0.019611   0.024838  -0.101377   0.033668
     91      -0.037799  -0.023080  -0.032633  -0.098653   0.114655  -0.019268
     92      -0.027618  -0.020714  -0.033061  -0.068906   0.063102  -0.007132
     93      -0.053843  -0.140309  -0.092342   0.091690  -0.084577   0.051087
     94      -0.068938  -0.047467  -0.124180  -0.021641   0.145788  -0.000127
     95      -0.085129  -0.010792  -0.205426  -0.071542   0.331239  -0.028991
     96      -0.048987  -0.136743  -0.074670   0.075422  -0.092171   0.047726
     97      -0.006891   0.003341   0.063915  -0.192996   0.093800  -0.042162
     98      -0.049995  -0.054778   0.016110  -0.170094   0.006577  -0.001841
     99       0.006759  -0.123926   0.151392  -0.092140  -0.269724   0.031926
    100      -0.097631  -0.039501  -0.135054  -0.160005   0.277719  -0.030940
    101       0.011815  -0.008736   0.026096  -0.016689  -0.039037   0.001216
    102      -0.000440   0.245874   0.075951   0.051946  -0.053512  -0.027532
    103      -0.139997   0.141832   0.009974  -0.021323   0.028990  -0.018985
    104      -0.002604  -0.259858   0.062315  -0.027248   0.000665   0.062567
    105       0.055883   0.055433  -0.029984  -0.046681   0.006201   0.010188
    106       0.177766   0.120770  -0.090687  -0.158088  -0.075802   0.003528
    107       0.019298  -0.009603  -0.057201  -0.183963  -0.085242   0.008152
                 18         19         20         21         22         23    
      0      -0.017969   0.126993  -0.007011   0.006534   0.006183  -0.037931
      1      -0.001479   0.012114  -0.005444   0.009287   0.015494  -0.031963
      2      -0.000128   0.023584  -0.009647   0.014510   0.033539  -0.001059
      3      -0.009099   0.065641  -0.001882  -0.001013  -0.009085  -0.017245
      4      -0.003966   0.030100  -0.006949   0.012126   0.021329  -0.039368
      5      -0.002248   0.004718  -0.009598   0.021108   0.059608   0.016671
      6       0.001999  -0.010803   0.003288  -0.006044  -0.011670   0.016486
      7       0.003746  -0.034657  -0.000630   0.003418   0.007250  -0.015577
      8      -0.006754  -0.004620  -0.001867   0.004603   0.019084   0.015191
      9       0.000680   0.001444  -0.000722   0.002951   0.014304   0.019402
     10       0.015174  -0.126754   0.008328  -0.008944  -0.014955   0.013571
     11      -0.010064   0.014993   0.007515  -0.022877  -0.068867  -0.016477
     12      -0.009717   0.072192  -0.004857   0.004928   0.008238  -0.013054
     13       0.018929  -0.152625   0.009798  -0.009784  -0.013272   0.024430
     14      -0.006719   0.034216  -0.001023  -0.001433  -0.006125  -0.008792
     15      -0.020183   0.143423  -0.008215   0.005976  -0.001569  -0.047972
     16       0.010877  -0.085312   0.002619   0.000437   0.005075  -0.002266
     17      -0.001946   0.038909  -0.012708   0.025489   0.072768   0.007754
     18      -0.010226   0.085265  -0.005940   0.004776   0.022028   0.018330
     19       0.002095  -0.002966   0.000404  -0.004588  -0.012320   0.007244
     20      -0.000744   0.019312   0.010111  -0.028371  -0.108904  -0.035828
     21      -0.007468   0.057001  -0.000404  -0.004322  -0.018485  -0.015354
     22      -0.011748   0.088804  -0.012309   0.019603   0.033391  -0.065504
     23      -0.001473  -0.007480  -0.012044   0.028863   0.086540   0.028547
     24      -0.031325   0.224673  -0.014904   0.012477   0.002982  -0.081265
     25       0.014651  -0.112645   0.004917  -0.001851   0.003317   0.009210
     26      -0.000913   0.061365  -0.017871   0.037016   0.105039   0.007348
     27       0.008347  -0.048807   0.000329   0.006222   0.032247   0.044121
     28       0.019950  -0.168404   0.012980  -0.016056  -0.029683   0.026518
     29      -0.014811   0.012615   0.019823  -0.054414  -0.163302  -0.039669
     30       0.177447   0.038251  -0.088711  -0.259169   0.016524   0.010892
     31      -0.141344  -0.027842   0.018680   0.024071   0.006941   0.013985
     32      -0.029433   0.019643  -0.102752   0.017530   0.081398   0.018900
     33       0.011588  -0.046593   0.010369  -0.024695  -0.047642   0.085108
     34      -0.003028   0.026076  -0.003683   0.002812   0.004859  -0.008452
     35      -0.000655  -0.033280   0.001498  -0.003209   0.020260   0.031823
     36       0.037319  -0.363666  -0.001836  -0.006135   0.008076   0.029858
     37       0.006607   0.221176   0.015117   0.018414  -0.030636   0.160176
     38       0.082877  -0.027657   0.065906   0.063976  -0.025481   0.064529
     39       0.036395  -0.397015  -0.043091  -0.033608   0.054455  -0.355731
     40      -0.018844   0.258305  -0.084716  -0.005741   0.046024  -0.711145
     41       0.099766  -0.191628   0.003151  -0.009393   0.064586  -0.494611
     42       0.107866  -0.001331   0.187463   0.250909  -0.012692  -0.030234
     43      -0.083216   0.053109   0.030327  -0.179326   0.010738   0.070716
     44      -0.115588  -0.051222  -0.332328   0.002789  -0.014000  -0.032100
     45      -0.056742   0.009719  -0.094021   0.391364  -0.061437   0.028470
     46      -0.060293  -0.053653  -0.217791  -0.307376   0.037069  -0.044309
     47      -0.110687  -0.039078  -0.324414   0.005353  -0.015249  -0.024184
     48      -0.015084   0.103246  -0.016555   0.025467   0.095118   0.023336
     49       0.018161  -0.101530   0.012789  -0.027347  -0.060482   0.063228
     50      -0.002242   0.054382   0.043929  -0.088144  -0.357340  -0.131947
     51       0.163358   0.032570  -0.103674  -0.208932   0.130458   0.018800
     52      -0.076085  -0.016015   0.104297   0.241547  -0.112620  -0.026091
     53       0.069812   0.048824   0.059007  -0.222288  -0.843288  -0.047445
     54       0.012149  -0.082613   0.009608  -0.014388  -0.025144   0.042068
     55       0.000178  -0.009053  -0.002911   0.006369   0.011883  -0.024938
     56      -0.008343  -0.026303   0.000596   0.002915   0.022785   0.027979
     57      -0.010808   0.081492  -0.006988   0.008586   0.016936  -0.015563
     58       0.026962  -0.216746   0.015991  -0.017733  -0.025943   0.051762
[...]
     73      -0.000017  -0.000159  -0.000039   0.000010   0.000022   0.000092
     74       0.000003  -0.000024   0.000144   0.000034   0.000044  -0.000024
     75       0.000082   0.000748   0.000203  -0.000281   0.000597   0.000340
     76      -0.000240   0.001899  -0.000946   0.002082   0.000303  -0.000056
     77      -0.000226   0.000581  -0.002763   0.004739  -0.000777   0.000126
     78      -0.000484  -0.000753   0.000208   0.002357   0.000095   0.000895
     79       0.000444   0.000493   0.000261  -0.002830  -0.000102  -0.001136
     80       0.000144  -0.000411   0.000538   0.000252  -0.000069   0.000653
     81       0.000006   0.000055   0.000089  -0.000061  -0.000021  -0.000009
     82      -0.000004  -0.000070   0.000018   0.000012   0.000008   0.000007
     83      -0.000001   0.000041   0.000127  -0.000099  -0.000006   0.000034
     84       0.000048  -0.000148  -0.000456   0.000195  -0.000128  -0.000101
     85       0.000047  -0.000355  -0.001248   0.000486  -0.000140  -0.000274
     86       0.000078  -0.000481  -0.001197   0.000417  -0.000099  -0.000362
     87      -0.000084  -0.000714  -0.000917   0.000164   0.000195   0.000415
     88       0.000122   0.000582   0.000691  -0.000103  -0.000134  -0.000041
     89       0.000003  -0.000052  -0.000079  -0.000028  -0.000044  -0.000018
     90      -0.000051   0.000066   0.000012   0.000002   0.000005  -0.000030
     91       0.000074  -0.000078   0.000048  -0.000005   0.000022   0.000017
     92       0.000008   0.000010   0.000004  -0.000012   0.000025   0.000013
     93       0.001064  -0.000558   0.000367   0.000122  -0.000041   0.000234
     94      -0.000603   0.000461  -0.000248  -0.000228   0.000041  -0.000237
     95       0.000077  -0.000178   0.000022   0.000053   0.000023   0.000083
     96      -0.000377  -0.000180  -0.000868   0.000373  -0.000044   0.000112
     97      -0.000101  -0.000048  -0.000601   0.000306  -0.000049   0.000058
     98       0.000008  -0.000030   0.000141  -0.000126  -0.000020  -0.000060
     99       0.000019  -0.000013   0.000020  -0.000051   0.000022   0.000040
    100      -0.000088   0.000302  -0.000050   0.000151  -0.000193  -0.000004
    101      -0.000180   0.000101  -0.000151   0.000429  -0.000259  -0.000045
    102      -0.000172   0.000306   0.001689   0.000149   0.000477   0.049700
    103       0.000117  -0.000080  -0.001383  -0.000228   0.000314   0.034908
    104      -0.000063   0.000174   0.000295   0.000147   0.000018   0.002708
    105       0.000378   0.050358  -0.007029   0.000234  -0.042030   0.000285
    106      -0.000229  -0.032528   0.004017  -0.000224  -0.008551   0.000134
    107       0.000103   0.015239  -0.001448   0.000197   0.042354  -0.000403


-----------
IR SPECTRUM  
-----------

 Mode    freq (cm**-1)   T**2         TX         TY         TZ
-------------------------------------------------------------------
   7:        31.72    0.000000  (  0.000000   0.000000   0.000000)
   8:        37.57    0.000000  (  0.000000   0.000000   0.000000)
   9:        45.06    0.000000  (  0.000000   0.000000   0.000000)
  10:        49.50    0.000000  (  0.000000   0.000000   0.000000)
  11:        54.55    0.000000  (  0.000000   0.000000   0.000000)
  12:        62.19    0.000000  (  0.000000   0.000000   0.000000)
  13:        70.06    0.000000  (  0.000000   0.000000   0.000000)
  14:        78.97    0.000000  (  0.000000   0.000000   0.000000)
  15:       108.86    0.000000  (  0.000000   0.000000   0.000000)
  16:       123.27    0.000000  (  0.000000   0.000000   0.000000)
  17:       133.97    0.000000  (  0.000000   0.000000   0.000000)
  18:       143.22    0.000000  (  0.000000   0.000000   0.000000)
  19:       150.38    0.000000  (  0.000000   0.000000   0.000000)
  20:       203.11    0.000000  (  0.000000   0.000000   0.000000)
  21:       232.94    0.000000  (  0.000000   0.000000   0.000000)
  22:       240.01    0.000000  (  0.000000   0.000000   0.000000)
  23:       250.38    0.000000  (  0.000000   0.000000   0.000000)
  24:       258.47    0.000000  (  0.000000   0.000000   0.000000)
  25:       264.79    0.000000  (  0.000000   0.000000   0.000000)
  26:       278.22    0.000000  (  0.000000   0.000000   0.000000)
  27:       375.27    0.000000  (  0.000000   0.000000   0.000000)
  28:       389.90    0.000000  (  0.000000   0.000000   0.000000)
  29:       395.23    0.000000  (  0.000000   0.000000   0.000000)
  30:       419.19    0.000000  (  0.000000   0.000000   0.000000)
  31:       426.54    0.000000  (  0.000000   0.000000   0.000000)
  32:       441.57    0.000000  (  0.000000   0.000000   0.000000)
  33:       448.42    0.000000  (  0.000000   0.000000   0.000000)
  34:       475.65    0.000000  (  0.000000   0.000000   0.000000)
  35:       586.09    0.000000  (  0.000000   0.000000   0.000000)
  36:       628.47    0.000000  (  0.000000   0.000000   0.000000)
  37:       651.11    0.000000  (  0.000000   0.000000   0.000000)
  38:       658.62    0.000000  (  0.000000   0.000000   0.000000)
  39:       724.07    0.000000  (  0.000000   0.000000   0.000000)
  40:       743.21    0.000000  (  0.000000   0.000000   0.000000)
  41:       777.52    0.000000  (  0.000000   0.000000   0.000000)
  42:       827.96    0.000000  (  0.000000   0.000000   0.000000)
  43:       832.22    0.000000  (  0.000000   0.000000   0.000000)
  44:       871.29    0.000000  (  0.000000   0.000000   0.000000)
  45:       904.20    0.000000  (  0.000000   0.000000   0.000000)
  46:       922.38    0.000000  (  0.000000   0.000000   0.000000)
  47:       931.50    0.000000  (  0.000000   0.000000   0.000000)
  48:       934.67    0.000000  (  0.000000   0.000000   0.000000)
  49:       939.42    0.000000  (  0.000000   0.000000   0.000000)
  50:       940.12    0.000000  (  0.000000   0.000000   0.000000)
  51:       984.37    0.000000  (  0.000000   0.000000   0.000000)
  52:      1003.25    0.000000  (  0.000000   0.000000   0.000000)
  53:      1006.85    0.000000  (  0.000000   0.000000   0.000000)
  54:      1064.55    0.000000  (  0.000000   0.000000   0.000000)
  55:      1065.32    0.000000  (  0.000000   0.000000   0.000000)
  56:      1095.52    0.000000  (  0.000000   0.000000   0.000000)
  57:      1113.08    0.000000  (  0.000000   0.000000   0.000000)
  58:      1122.58    0.000000  (  0.000000   0.000000   0.000000)
  59:      1153.79    0.000000  (  0.000000   0.000000   0.000000)
  60:      1176.57    0.000000  (  0.000000   0.000000   0.000000)
  61:      1180.98    0.000000  (  0.000000   0.000000   0.000000)
  62:      1204.09    0.000000  (  0.000000   0.000000   0.000000)
  63:      1213.76    0.000000  (  0.000000   0.000000   0.000000)
  64:      1238.41    0.000000  (  0.000000   0.000000   0.000000)
  65:      1268.79    0.000000  (  0.000000   0.000000   0.000000)
  66:      1275.43    0.000000  (  0.000000   0.000000   0.000000)
  67:      1280.18    0.000000  (  0.000000   0.000000   0.000000)
  68:      1290.60    0.000000  (  0.000000   0.000000   0.000000)
  69:      1306.54    0.000000  (  0.000000   0.000000   0.000000)
  70:      1352.15    0.000000  (  0.000000   0.000000   0.000000)
  71:      1362.16    0.000000  (  0.000000   0.000000   0.000000)
  72:      1378.50    0.000000  (  0.000000   0.000000   0.000000)
  73:      1427.29    0.000000  (  0.000000   0.000000   0.000000)
  74:      1428.31    0.000000  (  0.000000   0.000000   0.000000)
  75:      1447.20    0.000000  (  0.000000   0.000000   0.000000)
  76:      1494.61    0.000000  (  0.000000   0.000000   0.000000)
  77:      1505.14    0.000000  (  0.000000   0.000000   0.000000)
  78:      1508.38    0.000000  (  0.000000   0.000000   0.000000)
  79:      1510.45    0.000000  (  0.000000   0.000000   0.000000)
  80:      1514.08    0.000000  (  0.000000   0.000000   0.000000)
  81:      1543.11    0.000000  (  0.000000   0.000000   0.000000)
  82:      1547.71    0.000000  (  0.000000   0.000000   0.000000)
  83:      1560.16    0.000000  (  0.000000   0.000000   0.000000)
  84:      1564.45    0.000000  (  0.000000   0.000000   0.000000)
  85:      1567.77    0.000000  (  0.000000   0.000000   0.000000)
  86:      1651.49    0.000000  (  0.000000   0.000000   0.000000)
  87:      2869.90    0.000000  (  0.000000   0.000000   0.000000)
  88:      2883.40    0.000000  (  0.000000   0.000000   0.000000)
  89:      2936.33    0.000000  (  0.000000   0.000000   0.000000)
  90:      2946.20    0.000000  (  0.000000   0.000000   0.000000)
  91:      2964.11    0.000000  (  0.000000   0.000000   0.000000)
  92:      2965.53    0.000000  (  0.000000   0.000000   0.000000)
  93:      2973.14    0.000000  (  0.000000   0.000000   0.000000)
  94:      2975.37    0.000000  (  0.000000   0.000000   0.000000)
  95:      2978.58    0.000000  (  0.000000   0.000000   0.000000)
  96:      2985.36    0.000000  (  0.000000   0.000000   0.000000)
  97:      2997.80    0.000000  (  0.000000   0.000000   0.000000)
  98:      3060.07    0.000000  (  0.000000   0.000000   0.000000)
  99:      3062.63    0.000000  (  0.000000   0.000000   0.000000)
 100:      3068.73    0.000000  (  0.000000   0.000000   0.000000)
 101:      3075.39    0.000000  (  0.000000   0.000000   0.000000)
 102:      3080.18    0.000000  (  0.000000   0.000000   0.000000)
 103:      3253.28    0.000000  (  0.000000   0.000000   0.000000)
 104:      3328.71    0.000000  (  0.000000   0.000000   0.000000)
 105:      3414.07    0.000000  (  0.000000   0.000000   0.000000)
 106:      3584.47    0.000000  (  0.000000   0.000000   0.000000)
 107:      3594.01    0.000000  (  0.000000   0.000000   0.000000)

The first frequency considered to be a vibration is 7
The total number of vibrations considered is 101


--------------------------
THERMOCHEMISTRY AT 298.15K
--------------------------

Temperature         ... 298.15 K
Pressure            ... 1.00 atm
Total Mass          ... 215.29 AMU

Throughout the following assumptions are being made:
  (1) The electronic state is orbitally nondegenerate
  (2) There are no thermally accessible electronically excited states
  (3) Hindered rotations indicated by low frequency modes are not
      treated as such but are treated as vibrations and this may
      cause some error
  (4) All equations used are the standard statistical mechanics
      equations for an ideal gas
  (5) All vibrations are strictly harmonic

freq.      31.72  E(vib)   ...       0.55 
freq.      37.57  E(vib)   ...       0.54 
freq.      45.06  E(vib)   ...       0.53 
freq.      49.50  E(vib)   ...       0.52 
freq.      54.55  E(vib)   ...       0.52 
freq.      62.19  E(vib)   ...       0.51 
freq.      70.06  E(vib)   ...       0.50 
freq.      78.97  E(vib)   ...       0.49 
freq.     108.86  E(vib)   ...       0.45 
freq.     123.27  E(vib)   ...       0.43 
freq.     133.97  E(vib)   ...       0.42 
freq.     143.22  E(vib)   ...       0.41 
freq.     150.38  E(vib)   ...       0.40 
freq.     203.11  E(vib)   ...       0.35 
freq.     232.94  E(vib)   ...       0.32 
freq.     240.01  E(vib)   ...       0.31 
freq.     250.38  E(vib)   ...       0.30 
freq.     258.47  E(vib)   ...       0.30 
freq.     264.79  E(vib)   ...       0.29 
freq.     278.22  E(vib)   ...       0.28 
freq.     375.27  E(vib)   ...       0.21 
freq.     389.90  E(vib)   ...       0.20 
freq.     395.23  E(vib)   ...       0.20 
freq.     419.19  E(vib)   ...       0.18 
freq.     426.54  E(vib)   ...       0.18 
freq.     441.57  E(vib)   ...       0.17 
freq.     448.42  E(vib)   ...       0.17 
freq.     475.65  E(vib)   ...       0.15 
freq.     586.09  E(vib)   ...       0.11 
freq.     628.47  E(vib)   ...       0.09 
freq.     651.11  E(vib)   ...       0.08 
freq.     658.62  E(vib)   ...       0.08 
freq.     724.07  E(vib)   ...       0.06 
freq.     743.21  E(vib)   ...       0.06 
freq.     777.52  E(vib)   ...       0.05 
freq.     827.96  E(vib)   ...       0.04 
freq.     832.22  E(vib)   ...       0.04 
freq.     871.29  E(vib)   ...       0.04 
freq.     904.20  E(vib)   ...       0.03 
freq.     922.38  E(vib)   ...       0.03 
freq.     931.50  E(vib)   ...       0.03 
freq.     934.67  E(vib)   ...       0.03 
freq.     939.42  E(vib)   ...       0.03 
freq.     940.12  E(vib)   ...       0.03 
freq.     984.37  E(vib)   ...       0.02 
freq.    1003.25  E(vib)   ...       0.02 
freq.    1006.85  E(vib)   ...       0.02 
freq.    1064.55  E(vib)   ...       0.02 
freq.    1065.32  E(vib)   ...       0.02 
freq.    1095.52  E(vib)   ...       0.02 
freq.    1113.08  E(vib)   ...       0.01 
freq.    1122.58  E(vib)   ...       0.01 
freq.    1153.79  E(vib)   ...       0.01 
freq.    1176.57  E(vib)   ...       0.01 
freq.    1180.98  E(vib)   ...       0.01 
freq.    1204.09  E(vib)   ...       0.01 
freq.    1213.76  E(vib)   ...       0.01 
freq.    1238.41  E(vib)   ...       0.01 
freq.    1268.79  E(vib)   ...       0.01 
freq.    1275.43  E(vib)   ...       0.01 
freq.    1280.18  E(vib)   ...       0.01 
freq.    1290.60  E(vib)   ...       0.01 
freq.    1306.54  E(vib)   ...       0.01 
freq.    1352.15  E(vib)   ...       0.01 
freq.    1362.16  E(vib)   ...       0.01 
freq.    1378.50  E(vib)   ...       0.01 
freq.    1427.29  E(vib)   ...       0.00 
freq.    1428.31  E(vib)   ...       0.00 
freq.    1447.20  E(vib)   ...       0.00 
freq.    1494.61  E(vib)   ...       0.00 
freq.    1505.14  E(vib)   ...       0.00 
freq.    1508.38  E(vib)   ...       0.00 
freq.    1510.45  E(vib)   ...       0.00 
freq.    1514.08  E(vib)   ...       0.00 
freq.    1543.11  E(vib)   ...       0.00 
freq.    1547.71  E(vib)   ...       0.00 
freq.    1560.16  E(vib)   ...       0.00 
freq.    1564.45  E(vib)   ...       0.00 
freq.    1567.77  E(vib)   ...       0.00 
freq.    1651.49  E(vib)   ...       0.00 
freq.    2869.90  E(vib)   ...       0.00 
freq.    2883.40  E(vib)   ...       0.00 
freq.    2936.33  E(vib)   ...       0.00 
freq.    2946.20  E(vib)   ...       0.00 
freq.    2964.11  E(vib)   ...       0.00 
freq.    2965.53  E(vib)   ...       0.00 
freq.    2973.14  E(vib)   ...       0.00 
freq.    2975.37  E(vib)   ...       0.00 
freq.    2978.58  E(vib)   ...       0.00 
freq.    2985.36  E(vib)   ...       0.00 
freq.    2997.80  E(vib)   ...       0.00 
freq.    3060.07  E(vib)   ...       0.00 
freq.    3062.63  E(vib)   ...       0.00 
freq.    3068.73  E(vib)   ...       0.00 
freq.    3075.39  E(vib)   ...       0.00 
freq.    3080.18  E(vib)   ...       0.00 
freq.    3253.28  E(vib)   ...       0.00 
freq.    3328.71  E(vib)   ...       0.00 
freq.    3414.07  E(vib)   ...       0.00 
freq.    3584.47  E(vib)   ...       0.00 
freq.    3594.01  E(vib)   ...       0.00 

------------
INNER ENERGY
------------

The inner energy is: U= E(el) + E(ZPE) + E(vib) + E(rot) + E(trans)
    E(el)   - is the total energy from the electronic structure calculation
              = E(kin-el) + E(nuc-el) + E(el-el) + E(nuc-nuc)
    E(ZPE)  - the the zero temperature vibrational energy from the frequency calculation
    E(vib)  - the the finite temperature correction to E(ZPE) due to population
              of excited vibrational states
    E(rot)  - is the rotational thermal energy
    E(trans)- is the translational thermal energy

Summary of contributions to the inner energy U:
Electronic energy                ...    -49.35092891 Eh
Zero point energy                ...      0.29950335 Eh     187.94 kcal/mol
Thermal vibrational correction   ...      0.01761197 Eh      11.05 kcal/mol
Thermal rotational correction    ...      0.00141627 Eh       0.89 kcal/mol
Thermal translational correction ...      0.00141627 Eh       0.89 kcal/mol
-----------------------------------------------------------------------
Total thermal energy                    -49.03098105 Eh


Summary of corrections to the electronic energy:
(perhaps to be used in another calculation)
Total thermal correction                  0.02044451 Eh      12.83 kcal/mol
Non-thermal (ZPE) correction              0.29950335 Eh     187.94 kcal/mol
-----------------------------------------------------------------------
Total correction                          0.31994786 Eh     200.77 kcal/mol


--------
ENTHALPY
--------

The enthalpy is H = U + kB*T
                kB is Boltzmann's constant
Total free energy                 ...    -49.03098105 Eh 
Thermal Enthalpy correction       ...      0.00094421 Eh       0.59 kcal/mol
-----------------------------------------------------------------------
Total Enthalpy                    ...    -49.03003684 Eh


Note: Only C1 symmetry has been detected, increase convergence thresholds 
      if your molecule has a higher symmetry. Symmetry factor of 1.0 is   
      used for the rotational entropy correction. 
 

Note: Rotational entropy computed according to Herzberg 
Infrared and Raman Spectra, Chapter V,1, Van Nostrand Reinhold, 1945 
Point Group:  C1, Symmetry Number:   1  
Rotational constants in cm-1:     0.021885     0.008675     0.007310 

Vibrational entropy computed according to the QRRHO of S. Grimme
Chem.Eur.J. 2012 18 9955


-------
ENTROPY
-------

The entropy contributions are T*S = T*(S(el)+S(vib)+S(rot)+S(trans))
     S(el)   - electronic entropy
     S(vib)  - vibrational entropy
     S(rot)  - rotational entropy
     S(trans)- translational entropy
The entropies will be listed as mutliplied by the temperature to get
units of energy

Electronic entropy                ...      0.00000000 Eh      0.00 kcal/mol
Vibrational entropy               ...      0.03206896 Eh     20.12 kcal/mol
Rotational entropy                ...      0.01587827 Eh      9.96 kcal/mol
Translational entropy             ...      0.01995728 Eh     12.52 kcal/mol
-----------------------------------------------------------------------
Final entropy term                ...      0.06790451 Eh     42.61 kcal/mol

In case the symmetry of your molecule has not been determined correctly
or in case you have a reason to use a different symmetry number we print 
out the resulting rotational entropy values for sn=1,12 :
 --------------------------------------------------------
|  sn= 1 | S(rot)=       0.01587827 Eh      9.96 kcal/mol|
|  sn= 2 | S(rot)=       0.01522382 Eh      9.55 kcal/mol|
|  sn= 3 | S(rot)=       0.01484098 Eh      9.31 kcal/mol|
|  sn= 4 | S(rot)=       0.01456936 Eh      9.14 kcal/mol|
|  sn= 5 | S(rot)=       0.01435867 Eh      9.01 kcal/mol|
|  sn= 6 | S(rot)=       0.01418653 Eh      8.90 kcal/mol|
|  sn= 7 | S(rot)=       0.01404098 Eh      8.81 kcal/mol|
|  sn= 8 | S(rot)=       0.01391490 Eh      8.73 kcal/mol|
|  sn= 9 | S(rot)=       0.01380370 Eh      8.66 kcal/mol|
|  sn=10 | S(rot)=       0.01370422 Eh      8.60 kcal/mol|
|  sn=11 | S(rot)=       0.01361423 Eh      8.54 kcal/mol|
|  sn=12 | S(rot)=       0.01353207 Eh      8.49 kcal/mol|
 --------------------------------------------------------


-------------------
GIBBS FREE ENERGY
-------------------

The Gibbs free energy is G = H - T*S

Total enthalpy                    ...    -49.03003684 Eh 
Total entropy correction          ...     -0.06790451 Eh    -42.61 kcal/mol
-----------------------------------------------------------------------
Final Gibbs free energy         ...    -49.09794135 Eh

For completeness - the Gibbs free energy minus the electronic energy
G-E(el)                           ...      0.25298756 Eh    158.75 kcal/mol


Total Time for Numerical Frequencies  :        99.901 sec
Time for Reference State(s)           :         0.101 sec
Time for Displacements                :        88.910 sec

Timings for individual modules:

Sum of individual times         ...        0.180 sec (=   0.003 min)
XTB module                      ...        0.180 sec (=   0.003 min) 100.0 %
                             ****ORCA TERMINATED NORMALLY****
TOTAL RUN TIME: 0 days 0 hours 1 minutes 40 seconds 480 msec
(SLURM) EXECUTION TIME: 100.500139865 seconds.
