
                                 *****************
                                 * O   R   C   A *
                                 *****************

           --- An Ab Initio, DFT and Semiempirical electronic structure package ---

                  #######################################################
                  #                        -***-                        #
                  #          Department of theory and spectroscopy      #
                  #               Directorship: Frank Neese             #
                  #        Max Planck Institute fuer Kohlenforschung    #
                  #                Kaiser Wilhelm Platz 1               #
                  #                 D-45470 Muelheim/Ruhr               #
                  #                      Germany                        #
                  #                                                     #
                  #                  All rights reserved                #
                  #                        -***-                        #
                  #######################################################


                         Program Version 4.2.1 -  RELEASE  -


 With contributions from (in alphabetic order):
   Daniel Aravena         : Magnetic Suceptibility
   Michael Atanasov       : Ab Initio Ligand Field Theory (pilot matlab implementation)
   Alexander A. Auer      : GIAO ZORA, VPT2
   Ute Becker             : Parallelization
   Giovanni Bistoni       : ED, misc. LED, open-shell LED, HFLD
   Martin Brehm           : Molecular dynamics
   Dmytro Bykov           : SCF Hessian
   Vijay G. Chilkuri      : MRCI spin determinant printing, contributions to CSF-ICE
   Dipayan Datta          : RHF DLPNO-CCSD density
   Achintya Kumar Dutta   : EOM-CC, STEOM-CC
   Dmitry Ganyushin       : Spin-Orbit,Spin-Spin,Magnetic field MRCI
   Miquel Garcia          : C-PCM Hessian, Gaussian charge scheme
   Yang Guo               : DLPNO-NEVPT2, CIM, IAO-localization
   Andreas Hansen         : Spin unrestricted coupled pair/coupled cluster methods
   Benjamin Helmich-Paris : CASSCF linear response (MC-RPA)
   Lee Huntington         : MR-EOM, pCC
   Robert Izsak           : Overlap fitted RIJCOSX, COSX-SCS-MP3, EOM
   Christian Kollmar      : KDIIS, OOCD, Brueckner-CCSD(T), CCSD density
   Simone Kossmann        : Meta GGA functionals, TD-DFT gradient, OOMP2, MP2 Hessian
   Martin Krupicka        : AUTO-CI
   Lucas Lang             : DCDCAS
   Dagmar Lenk            : GEPOL surface, SMD
   Dimitrios Liakos       : Extrapolation schemes; Compound Job, initial MDCI parallelization
   Dimitrios Manganas     : Further ROCIS development; embedding schemes
   Dimitrios Pantazis     : SARC Basis sets
   Taras Petrenko         : DFT Hessian,TD-DFT gradient, ASA, ECA, R-Raman, ABS, FL, XAS/XES, NRVS
   Peter Pinski           : DLPNO-MP2, DLPNO-MP2 Gradient
   Christoph Reimann      : Effective Core Potentials
   Marius Retegan         : Local ZFS, SOC
   Christoph Riplinger    : Optimizer, TS searches, QM/MM, DLPNO-CCSD(T), (RO)-DLPNO pert. Triples
   Tobias Risthaus        : Range-separated hybrids, TD-DFT gradient, RPA, STAB
   Michael Roemelt        : Original ROCIS implementation
   Masaaki Saitow         : Open-shell DLPNO-CCSD energy and density
   Barbara Sandhoefer     : DKH picture change effects
   Avijit Sen             : IP-ROCIS
   Kantharuban Sivalingam : CASSCF convergence, NEVPT2, FIC-MRCI
   Bernardo de Souza      : ESD, SOC TD-DFT
   Georgi Stoychev        : AutoAux, RI-MP2 NMR
   Willem Van den Heuvel  : Paramagnetic NMR
   Boris Wezisla          : Elementary symmetry handling
   Frank Wennmohs         : Technical directorship


 We gratefully acknowledge several colleagues who have allowed us to
 interface, adapt or use parts of their codes:
   Stefan Grimme, W. Hujo, H. Kruse,             : VdW corrections, initial TS optimization,
                  C. Bannwarth                     DFT functionals, gCP, sTDA/sTD-DF
   Ed Valeev, F. Pavosevic, A. Kumar             : LibInt (2-el integral package), F12 methods
   Garnet Chan, S. Sharma, J. Yang, R. Olivares  : DMRG
   Ulf Ekstrom                                   : XCFun DFT Library
   Mihaly Kallay                                 : mrcc  (arbitrary order and MRCC methods)
   Andreas Klamt, Michael Diedenhofen            : otool_cosmo (COSMO solvation model)
   Jiri Pittner, Ondrej Demel                    : Mk-CCSD
   Frank Weinhold                                : gennbo (NPA and NBO analysis)
   Christopher J. Cramer and Donald G. Truhlar   : smd solvation model
   Lars Goerigk                                  : TD-DFT with DH, B97 family of functionals
   V. Asgeirsson, H. Jonsson                     : NEB implementation
   FAccTs GmbH                                   : IRC, NEB, NEB-TS, Multilevel, MM, QM/MM, CI optimization
   S Lehtola, MJT Oliveira, MAL Marques          : LibXC Library


 Your calculation uses the libint2 library for the computation of 2-el integrals
 For citations please refer to: http://libint.valeyev.net

 Your ORCA version has been built with support for libXC version: 4.2.3
 For citations please refer to: https://tddft.org/programs/libxc/

 This ORCA versions uses:
   CBLAS   interface :  Fast vector & matrix operations
   LAPACKE interface :  Fast linear algebra routines
   SCALAPACK package :  Parallel linear algebra routines


----- Orbital basis set information -----
Your calculation utilizes the basis: 6-311G(2df,2p)
   H, Li - Ne  : R. Krishnan, J. S. Binkley, R. Seeger and J. A. Pople, J. Chem. Phys. 72, 650 (1980).
   Na - Ar     : A. D. McLean and G. S. Chandler J. Chem. Phys. 72, 5639, (1980).
   K  - Ca     : J.-P. Blaudeau, M. P. McGrath, L. A. Curtiss and L. Radom, J. Chem. Phys. 107, 5016 (1997).
   Ga - Kr     : L. A. Curtiss, M. P. McGrath, J.-P. Blandeau, N. E. Davis, R. C. Binning and L. Radom, J. Chem. Phys. 103, 6104 (1995).
   Pol./Diff.
   H, Li - Cl  : T. Clark, J. Chandrasekhar and P. v. R. Schleyer, J. Comp. Chem. 4, 294 (1983).
   H - Ne      : M. J. Frisch, J. A. Pople and J. S. Binkley, J. Chem. Phys. 80, 3265 (1984).

================================================================================
                                        WARNINGS
                       Please study these warnings very carefully!
================================================================================


WARNING: Geometry Optimization
  ===> : Switching off AutoStart
         For restart on a previous wavefunction, please use MOREAD

WARNING: Post HF methods need fully converged wavefunctions
  ===> : Setting SCFConvForced true
         You can overwrite this default with %scf ConvForced false 


INFO   : the flag for use of LIBINT has been found!

================================================================================
                                       INPUT FILE
================================================================================
NAME = CH3·.inp
|  1> ! UHF MP2 6-311G(2df,2p) Opt Freq NoFrozenCore TightOpt TightSCF Grid4 FinalGrid5 PrintBasis PrintMOs NBO
|  2> %maxcore 3000
|  3> 
|  4> *xyz 0 2
|  5> C        0.000000000      0.000000000      0.000000000
|  6> H        1.071911000      0.000000000      0.000000000
|  7> H       -0.535955000      0.928302000      0.000000000
|  8> H       -0.535955000     -0.928302000      0.000000000
|  9> *
| 10> 
| 11> %pal
| 12>  nprocs 12
| 13> end
| 14> 
| 15>                          ****END OF INPUT****
================================================================================

                       *****************************
                       * Geometry Optimization Run *
                       *****************************

Geometry optimization settings:
Update method            Update   .... BFGS
Choice of coordinates    CoordSys .... Z-matrix Internals
Initial Hessian          InHess   .... Almoef's Model

Convergence Tolerances:
Energy Change            TolE     ....  1.0000e-06 Eh
Max. Gradient            TolMAXG  ....  1.0000e-04 Eh/bohr
RMS Gradient             TolRMSG  ....  3.0000e-05 Eh/bohr
Max. Displacement        TolMAXD  ....  1.0000e-03 bohr
RMS Displacement         TolRMSD  ....  6.0000e-04 bohr
Strict Convergence                ....  False
------------------------------------------------------------------------------
                        ORCA OPTIMIZATION COORDINATE SETUP
------------------------------------------------------------------------------

The optimization will be done in new redundant internal coordinates
Making redundant internal coordinates   ...  (new redundants) done
Evaluating the initial hessian          ...  (Almloef) done
Evaluating the coordinates              ...  done
Calculating the B-matrix                .... done
Calculating the G-matrix                .... done
Diagonalizing the G-matrix              .... done
The first mode is                       ....    1
The number of degrees of freedom        ....    6

    -----------------------------------------------------------------
                    Redundant Internal Coordinates


    -----------------------------------------------------------------
         Definition                    Initial Value    Approx d2E/dq
    -----------------------------------------------------------------
      1. B(H   1,C   0)                  1.0719         0.384842   
      2. B(H   2,C   0)                  1.0719         0.384843   
      3. B(H   3,C   0)                  1.0719         0.384843   
      4. A(H   1,C   0,H   3)          120.0000         0.297003   
      5. A(H   2,C   0,H   3)          120.0000         0.297003   
      6. A(H   1,C   0,H   2)          120.0000         0.297003   
      7. I(H   1,H   3,H   2,C   0)      0.0000         0.023978   
    -----------------------------------------------------------------

Number of atoms                         .... 4
Number of degrees of freedom            .... 7

         *************************************************************
         *                GEOMETRY OPTIMIZATION CYCLE   1            *
         *************************************************************
---------------------------------
CARTESIAN COORDINATES (ANGSTROEM)
---------------------------------
  C      0.000000    0.000000    0.000000
  H      1.071911    0.000000    0.000000
  H     -0.535955    0.928302    0.000000
  H     -0.535955   -0.928302    0.000000

----------------------------
CARTESIAN COORDINATES (A.U.)
----------------------------
  NO LB      ZA    FRAG     MASS         X           Y           Z
   0 C     6.0000    0    12.011    0.000000    0.000000    0.000000
   1 H     1.0000    0     1.008    2.025618    0.000000    0.000000
   2 H     1.0000    0     1.008   -1.012808    1.754237    0.000000
   3 H     1.0000    0     1.008   -1.012808   -1.754237    0.000000

--------------------------------
INTERNAL COORDINATES (ANGSTROEM)
--------------------------------
 C      0   0   0     0.000000000000     0.00000000     0.00000000
 H      1   0   0     1.071911000000     0.00000000     0.00000000
 H      1   2   0     1.071910614384   119.99998104     0.00000000
 H      1   2   3     1.071910614384   119.99998104   180.00000000

---------------------------
INTERNAL COORDINATES (A.U.)
---------------------------
 C      0   0   0     0.000000000000     0.00000000     0.00000000
 H      1   0   0     2.025618229938     0.00000000     0.00000000
 H      1   2   0     2.025617501229   119.99998104     0.00000000
 H      1   2   3     2.025617501229   119.99998104   180.00000000

---------------------
BASIS SET INFORMATION
---------------------
There are 2 groups of distinct atoms

 Group   1 Type C   : 11s5p2d1f contracted to 4s3p2d1f pattern {6311/311/11/1}
 Group   2 Type H   : 5s2p contracted to 3s2p pattern {311/11}

Atom   0C    basis set group =>   1
Atom   1H    basis set group =>   2
Atom   2H    basis set group =>   2
Atom   3H    basis set group =>   2

-------------------------
BASIS SET IN INPUT FORMAT
-------------------------

 # Basis set for element : H 
 NewGTO H 
 S 3 
   1      33.8650000000      0.0254938145
   2       5.0947900000      0.1903731086
   3       1.1587900000      0.8521614860
 S 1 
   1       0.3258400000      1.0000000000
 S 1 
   1       0.1027410000      1.0000000000
 P 1 
   1       1.5000000000      1.0000000000
 P 1 
   1       0.3750000000      1.0000000000
  end;

 # Basis set for element : C 
 NewGTO C 
 S 6 
   1    4563.2400000000      0.0019666502
   2     682.0240000000      0.0152306019
   3     154.9730000000      0.0761269097
   4      44.4553000000      0.2608010331
   5      13.0290000000      0.6164620782
   6       1.8277300000      0.2210060280
 S 3 
   1      20.9642000000      0.1146600807
   2       4.8033100000      0.9199996477
   3       1.4593300000     -0.0030306821
 P 3 
   1      20.9642000000      0.0402486927
   2       4.8033100000      0.2375939567
   3       1.4593300000      0.8158538515
 S 1 
   1       0.4834560000      1.0000000000
 P 1 
   1       0.4834560000      1.0000000000
 S 1 
   1       0.1455850000      1.0000000000
 P 1 
   1       0.1455850000      1.0000000000
 D 1 
   1       1.2520000000      1.0000000000
 D 1 
   1       0.3130000000      1.0000000000
 F 1 
   1       0.8000000000      1.0000000000
  end;



           ************************************************************
           *        Program running with 12 parallel MPI-processes    *
           *              working on a common directory               *
           ************************************************************
------------------------------------------------------------------------------
                           ORCA GTO INTEGRAL CALCULATION
------------------------------------------------------------------------------

                         BASIS SET STATISTICS AND STARTUP INFO

 # of primitive gaussian shells          ...   40
 # of primitive gaussian functions       ...   76
 # of contracted shells                  ...   25
 # of contracted basis functions         ...   57
 Highest angular momentum                ...    3
 Maximum contraction depth               ...    6
 Integral package used                   ... LIBINT
 Integral threshhold            Thresh   ...  2.500e-11
 Primitive cut-off              TCut     ...  2.500e-12


------------------------------ INTEGRAL EVALUATION ----------------------------


 * One electron integrals 
 Pre-screening matrix                    ... done
 Shell pair data                         ... done (   0.000 sec)



           ************************************************************
           *        Program running with 12 parallel MPI-processes    *
           *              working on a common directory               *
           ************************************************************
-------------------------------------------------------------------------------
                                 ORCA SCF
-------------------------------------------------------------------------------

------------
SCF SETTINGS
------------
Hamiltonian:
 Ab initio Hamiltonian  Method          .... Hartree-Fock(GTOs)


General Settings:
 Integral files         IntName         .... CH3·
 Hartree-Fock type      HFTyp           .... UHF
 Total Charge           Charge          ....    0
 Multiplicity           Mult            ....    2
 Number of Electrons    NEL             ....    9
 Basis Dimension        Dim             ....   57
 Nuclear Repulsion      ENuc            ....      9.7412509664 Eh

Convergence Acceleration:
 DIIS                   CNVDIIS         .... on
   Start iteration      DIISMaxIt       ....    12
   Startup error        DIISStart       ....  0.200000
   # of expansion vecs  DIISMaxEq       ....     5
   Bias factor          DIISBfac        ....   1.050
   Max. coefficient     DIISMaxC        ....  10.000
 Newton-Raphson         CNVNR           .... off
 SOSCF                  CNVSOSCF        .... off
 Level Shifting         CNVShift        .... on
   Level shift para.    LevelShift      ....    0.2500
   Turn off err/grad.   ShiftErr        ....    0.0010
 Zerner damping         CNVZerner       .... off
 Static damping         CNVDamp         .... on
   Fraction old density DampFac         ....    0.7000
   Max. Damping (<1)    DampMax         ....    0.9800
   Min. Damping (>=0)   DampMin         ....    0.0000
   Turn off err/grad.   DampErr         ....    0.1000
 Fernandez-Rico         CNVRico         .... off

SCF Procedure:
 Maximum # iterations   MaxIter         ....   125
 SCF integral mode      SCFMode         .... Direct
   Integral package                     .... LIBINT
 Reset frequency        DirectResetFreq ....    20
 Integral Threshold     Thresh          ....  2.500e-11 Eh
 Primitive CutOff       TCut            ....  2.500e-12 Eh

Convergence Tolerance:
 Convergence Check Mode ConvCheckMode   .... Total+1el-Energy
 Convergence forced     ConvForced      .... 1
 Energy Change          TolE            ....  1.000e-08 Eh
 1-El. energy change                    ....  1.000e-05 Eh
 DIIS Error             TolErr          ....  5.000e-07


Diagonalization of the overlap matrix:
Smallest eigenvalue                        ... 4.498e-03
Time for diagonalization                   ...    0.004 sec
Threshold for overlap eigenvalues          ... 1.000e-08
Number of eigenvalues below threshold      ... 0
Time for construction of square roots      ...    0.004 sec
Total time needed                          ...    0.009 sec

-------------------
DFT GRID GENERATION
-------------------

General Integration Accuracy     IntAcc      ...  4.670
Radial Grid Type                 RadialGrid  ... Gauss-Chebyshev
Angular Grid (max. acc.)         AngularGrid ... Lebedev-302
Angular grid pruning method      GridPruning ... 3 (G Style)
Weight generation scheme         WeightScheme... Becke
Basis function cutoff            BFCut       ...    1.0000e-11
Integration weight cutoff        WCut        ...    1.0000e-14
Grids for H and He will be reduced by one unit

# of grid points (after initial pruning)     ...  16394 (   0.0 sec)
# of grid points (after weights+screening)   ...  16145 (   0.0 sec)
nearest neighbour list constructed           ...    0.0 sec
Grid point re-assignment to atoms done       ...    0.0 sec
Grid point division into batches done        ...    0.2 sec
Reduced shell lists constructed in    0.3 sec

Total number of grid points                  ...    16145
Total number of batches                      ...      253
Average number of points per batch           ...       63
Average number of grid points per atom       ...     4036
Average number of shells per batch           ...    23.91 (95.65%)
Average number of basis functions per batch  ...    54.52 (95.65%)
Average number of large shells per batch     ...    23.13 (96.73%)
Average number of large basis fcns per batch ...    53.04 (97.29%)
Maximum spatial batch extension              ...   2.89,  2.57, 19.60 au
Average spatial batch extension              ...   0.12,  0.13,  0.26 au

Time for grid setup =    0.375 sec

------------------------------
INITIAL GUESS: MODEL POTENTIAL
------------------------------
Loading Hartree-Fock densities                     ... done
Calculating cut-offs                               ... done
Setting up the integral package                    ... done
Initializing the effective Hamiltonian             ... done
Starting the Coulomb interaction                   ... done (   0.0 sec)
Reading the grid                                   ... done
Mapping shells                                     ... done
Starting the XC term evaluation                    ... done (   0.0 sec)
Transforming the Hamiltonian                       ... done (   0.0 sec)
Diagonalizing the Hamiltonian                      ... done (   0.0 sec)
Back transforming the eigenvectors                 ... done (   0.0 sec)
Now organizing SCF variables                       ... done
                      ------------------
                      INITIAL GUESS DONE (   1.0 sec)
                      ------------------
--------------
SCF ITERATIONS
--------------
ITER       Energy         Delta-E        Max-DP      RMS-DP      [F,P]     Damp
               ***  Starting incremental Fock matrix formation  ***
  0    -39.5138049100   0.000000000000 0.02817595  0.00071959  0.2358346 0.7000
  1    -39.5344561015  -0.020651191480 0.02035665  0.00055144  0.1578747 0.7000
                               ***Turning on DIIS***
  2    -39.5476342887  -0.013178187173 0.04251627  0.00118767  0.0987604 0.0000
  3    -39.5175896506   0.030044638054 0.01397447  0.00035678  0.0258384 0.0000
  4    -39.5712864005  -0.053696749889 0.00430725  0.00013994  0.0042308 0.0000
  5    -39.5760381667  -0.004751766223 0.00309262  0.00010455  0.0023371 0.0000
  6    -39.5763922712  -0.000354104497 0.00185136  0.00006418  0.0012278 0.0000
  7    -39.5760763433   0.000315927961 0.00134820  0.00004937  0.0005783 0.0000
  8    -39.5759111044   0.000165238881 0.00042247  0.00001904  0.0001581 0.0000
  9    -39.5758821411   0.000028963284 0.00012919  0.00000608  0.0000362 0.0000
 10    -39.5758730505   0.000009090580 0.00006911  0.00000298  0.0000102 0.0000
 11    -39.5758742206  -0.000001170109 0.00002565  0.00000106  0.0000021 0.0000
                            ***DIIS convergence achieved***

               *****************************************************
               *                     SUCCESS                       *
               *           SCF CONVERGED AFTER  12 CYCLES          *
               *****************************************************


----------------
TOTAL SCF ENERGY
----------------

Total Energy       :          -39.57587431 Eh           -1076.91429 eV

Components:
Nuclear Repulsion  :            9.74125097 Eh             265.07291 eV
Electronic Energy  :          -49.31712528 Eh           -1341.98720 eV
One Electron Energy:          -71.71713730 Eh           -1951.52252 eV
Two Electron Energy:           22.40001203 Eh             609.53532 eV

Virial components:
Potential Energy   :          -79.15493426 Eh           -2153.91526 eV
Kinetic Energy     :           39.57905995 Eh            1077.00098 eV
Virial Ratio       :            1.99991951


---------------
SCF CONVERGENCE
---------------

  Last Energy change         ...   -8.8328e-08  Tolerance :   1.0000e-08
  Last MAX-Density change    ...    1.0364e-05  Tolerance :   1.0000e-07
  Last RMS-Density change    ...    4.2764e-07  Tolerance :   5.0000e-09
  Last DIIS Error            ...    6.8480e-07  Tolerance :   5.0000e-07

             **** THE GBW FILE WAS UPDATED (CH3·.gbw) ****
             **** DENSITY FILE WAS UPDATED (CH3·.scfp) ****
             **** ENERGY FILE WAS UPDATED (CH3·.en.tmp) ****
----------------------
UHF SPIN CONTAMINATION
----------------------

Expectation value of <S**2>     :     0.761635
Ideal value S*(S+1) for S=0.5   :     0.750000
Deviation                       :     0.011635

             **** THE GBW FILE WAS UPDATED (CH3·.gbw) ****
             **** DENSITY FILE WAS UPDATED (CH3·.scfp) ****
----------------
ORBITAL ENERGIES
----------------
                 SPIN UP ORBITALS
  NO   OCC          E(Eh)            E(eV) 
   0   1.0000     -11.227545      -305.5170 
   1   1.0000      -0.948529       -25.8108 
   2   1.0000      -0.580936       -15.8081 
   3   1.0000      -0.580936       -15.8081 
   4   1.0000      -0.384805       -10.4711 
   5   0.0000       0.153042         4.1645 
   6   0.0000       0.222116         6.0441 
   7   0.0000       0.222116         6.0441 
   8   0.0000       0.434225        11.8159 
   9   0.0000       0.434226        11.8159 
  10   0.0000       0.506695        13.7879 
  11   0.0000       0.565021        15.3750 
  12   0.0000       0.692032        18.8311 
  13   0.0000       0.694706        18.9039 
  14   0.0000       0.694707        18.9039 
  15   0.0000       0.721907        19.6441 
  16   0.0000       0.721907        19.6441 
  17   0.0000       1.022554        27.8251 
  18   0.0000       1.068011        29.0621 
  19   0.0000       1.117259        30.4022 
  20   0.0000       1.117260        30.4022 
  21   0.0000       1.156852        31.4795 
  22   0.0000       1.265188        34.4275 
  23   0.0000       1.265189        34.4275 
  24   0.0000       1.472073        40.0571 
  25   0.0000       1.472073        40.0571 
  26   0.0000       1.626362        44.2556 
  27   0.0000       1.626362        44.2556 
  28   0.0000       1.723485        46.8984 
  29   0.0000       2.503812        68.1322 
  30   0.0000       2.676945        72.8434 
  31   0.0000       2.676945        72.8434 
  32   0.0000       2.998500        81.5933 
  33   0.0000       3.164625        86.1138 
  34   0.0000       3.164625        86.1138 
  35   0.0000       3.248818        88.4048 
  36   0.0000       3.318699        90.3064 
  37   0.0000       3.425436        93.2108 
  38   0.0000       3.440198        93.6125 
  39   0.0000       3.440198        93.6126 
  40   0.0000       3.500477        95.2528 
  41   0.0000       3.500478        95.2528 
  42   0.0000       3.676724       100.0488 
  43   0.0000       3.676725       100.0488 
  44   0.0000       4.116801       112.0238 
  45   0.0000       4.116801       112.0239 
  46   0.0000       4.304401       117.1287 
  47   0.0000       4.519102       122.9710 
  48   0.0000       4.523472       123.0899 
  49   0.0000       4.523473       123.0899 
  50   0.0000       4.524476       123.1173 
  51   0.0000       4.524476       123.1173 
  52   0.0000       5.218452       142.0013 
  53   0.0000       5.674951       154.4233 
  54   0.0000       5.977834       162.6651 
  55   0.0000       5.977835       162.6651 
  56   0.0000      25.360240       690.0872 

                 SPIN DOWN ORBITALS
  NO   OCC          E(Eh)            E(eV) 
   0   1.0000     -11.204023      -304.8770 
   1   1.0000      -0.857087       -23.3225 
   2   1.0000      -0.566626       -15.4187 
   3   1.0000      -0.566626       -15.4187 
   4   0.0000       0.136151         3.7049 
   5   0.0000       0.163308         4.4438 
   6   0.0000       0.226696         6.1687 
   7   0.0000       0.226696         6.1687 
   8   0.0000       0.436580        11.8799 
   9   0.0000       0.436580        11.8799 
  10   0.0000       0.558509        15.1978 
  11   0.0000       0.694162        18.8891 
  12   0.0000       0.706533        19.2257 
  13   0.0000       0.706533        19.2257 
  14   0.0000       0.716369        19.4934 
  15   0.0000       0.771318        20.9886 
  16   0.0000       0.771318        20.9886 
  17   0.0000       1.019809        27.7504 
  18   0.0000       1.112951        30.2849 
  19   0.0000       1.122471        30.5440 
  20   0.0000       1.122471        30.5440 
  21   0.0000       1.177632        32.0450 
  22   0.0000       1.291003        35.1300 
  23   0.0000       1.291003        35.1300 
  24   0.0000       1.476293        40.1720 
  25   0.0000       1.476293        40.1720 
  26   0.0000       1.635740        44.5108 
  27   0.0000       1.635740        44.5108 
  28   0.0000       1.742277        47.4098 
  29   0.0000       2.508045        68.2474 
  30   0.0000       2.691128        73.2293 
  31   0.0000       2.691128        73.2293 
  32   0.0000       3.089710        84.0753 
  33   0.0000       3.199727        87.0690 
  34   0.0000       3.199727        87.0690 
  35   0.0000       3.251061        88.4659 
  36   0.0000       3.358007        91.3760 
  37   0.0000       3.472286        94.4857 
  38   0.0000       3.472286        94.4857 
  39   0.0000       3.495360        95.1136 
  40   0.0000       3.511331        95.5482 
  41   0.0000       3.511331        95.5482 
  42   0.0000       3.731355       101.5353 
  43   0.0000       3.731355       101.5353 
  44   0.0000       4.120065       112.1127 
  45   0.0000       4.120066       112.1127 
  46   0.0000       4.309156       117.2581 
  47   0.0000       4.525000       123.1315 
  48   0.0000       4.525992       123.1585 
  49   0.0000       4.525992       123.1585 
  50   0.0000       4.536424       123.4424 
  51   0.0000       4.536424       123.4424 
  52   0.0000       5.218686       142.0077 
  53   0.0000       5.687148       154.7552 
  54   0.0000       5.982343       162.7878 
  55   0.0000       5.982343       162.7878 
  56   0.0000      25.376089       690.5185 
------------------
MOLECULAR ORBITALS
------------------
                      0         1         2         3         4         5   
                 -11.22755  -0.94853  -0.58094  -0.58094  -0.38481   0.15304
                   1.00000   1.00000   1.00000   1.00000   1.00000   0.00000
                  --------  --------  --------  --------  --------  --------
  0C   1s         0.562899 -0.108132  0.000000  0.000000 -0.000000  0.047184
  0C   2s         0.466342 -0.180152  0.000000  0.000000 -0.000000  0.084527
  0C   1pz       -0.000000  0.000000  0.000000  0.000000 -0.259016 -0.000000
  0C   1px        0.000000 -0.000000 -0.000000 -0.200872  0.000000 -0.000000
  0C   1py       -0.000000 -0.000000 -0.200872  0.000000 -0.000000  0.000000
  0C   3s         0.006693  0.458534 -0.000000 -0.000000  0.000000 -0.207296
  0C   2pz        0.000000 -0.000000 -0.000000  0.000000 -0.430540  0.000000
  0C   2px       -0.000000 -0.000000 -0.000000 -0.305270 -0.000000  0.000000
  0C   2py        0.000000  0.000000 -0.305270  0.000000  0.000000  0.000000
  0C   4s         0.003335  0.283572 -0.000000 -0.000000 -0.000000 -3.131398
  0C   3pz        0.000000  0.000000 -0.000000  0.000000 -0.480383 -0.000000
  0C   3px       -0.000000 -0.000000 -0.000000 -0.187492 -0.000000 -0.000000
  0C   3py        0.000000 -0.000000 -0.187492  0.000000 -0.000000  0.000000
  0C   1dz2       0.000502 -0.003279  0.000000  0.000000 -0.000000 -0.005796
  0C   1dxz      -0.000000  0.000000 -0.000000 -0.000000  0.000000 -0.000000
  0C   1dyz      -0.000000 -0.000000  0.000000 -0.000000 -0.000000  0.000000
  0C   1dx2y2    -0.000000 -0.000000 -0.000000 -0.017270  0.000000 -0.000000
  0C   1dxy       0.000000  0.000000  0.017270 -0.000000  0.000000  0.000000
  0C   2dz2      -0.000795  0.016419  0.000000  0.000000  0.000000  0.161436
  0C   2dxz       0.000000 -0.000000 -0.000000  0.000000 -0.000000  0.000000
  0C   2dyz      -0.000000  0.000000 -0.000000  0.000000 -0.000000 -0.000000
  0C   2dx2y2    -0.000000  0.000000 -0.000000 -0.018440 -0.000000  0.000000
  0C   2dxy      -0.000000  0.000000  0.018440 -0.000000 -0.000000 -0.000000
  0C   1f0       -0.000000  0.000000  0.000000 -0.000000  0.001033 -0.000000
  0C   1f+1       0.000000 -0.000000 -0.000000 -0.000775  0.000000  0.000000
  0C   1f-1       0.000000  0.000000 -0.000775  0.000000  0.000000 -0.000000
  0C   1f+2       0.000000 -0.000000  0.000000  0.000000  0.000000 -0.000000
  0C   1f-2       0.000000 -0.000000  0.000000 -0.000000  0.000000  0.000000
  0C   1f+3      -0.000588 -0.005166  0.000000 -0.000000  0.000000  0.018514
  0C   1f-3       0.000000 -0.000000 -0.000000 -0.000000  0.000000 -0.000000
  1H   1s         0.000274  0.086367 -0.000000 -0.164474 -0.000000  0.007287
  1H   2s        -0.001611  0.121349 -0.000000 -0.246056  0.000000  0.284877
  1H   3s        -0.000310  0.012004 -0.000000 -0.092982  0.000000  1.185724
  1H   1pz        0.000000  0.000000 -0.000000 -0.000000 -0.008676  0.000000
  1H   1px        0.000074 -0.008010  0.000000  0.012543 -0.000000  0.013674
  1H   1py        0.000000  0.000000 -0.004594  0.000000 -0.000000  0.000000
  1H   2pz       -0.000000 -0.000000  0.000000 -0.000000 -0.015476  0.000000
  1H   2px        0.000746 -0.020224  0.000000  0.019163 -0.000000 -0.189897
  1H   2py       -0.000000 -0.000000 -0.007704  0.000000  0.000000 -0.000000
  2H   1s         0.000274  0.086367 -0.142438  0.082237  0.000000  0.007287
  2H   2s        -0.001611  0.121349 -0.213090  0.123028 -0.000000  0.284877
  2H   3s        -0.000310  0.012004 -0.080524  0.046491 -0.000000  1.185724
  2H   1pz        0.000000 -0.000000 -0.000000 -0.000000 -0.008676 -0.000000
  2H   1px       -0.000037  0.004005 -0.007421 -0.000310 -0.000000 -0.006837
  2H   1py        0.000064 -0.006937  0.008259 -0.007421 -0.000000  0.011842
  2H   2pz        0.000000 -0.000000  0.000000  0.000000 -0.015476  0.000000
  2H   2px       -0.000373  0.010112 -0.011634 -0.000987 -0.000000  0.094949
  2H   2py        0.000646 -0.017515  0.012447 -0.011634  0.000000 -0.164456
  3H   1s         0.000274  0.086367  0.142438  0.082237 -0.000000  0.007287
  3H   2s        -0.001611  0.121349  0.213090  0.123028  0.000000  0.284877
  3H   3s        -0.000310  0.012004  0.080524  0.046491 -0.000000  1.185724
  3H   1pz       -0.000000  0.000000  0.000000  0.000000 -0.008676  0.000000
  3H   1px       -0.000037  0.004005  0.007421 -0.000310  0.000000 -0.006837
  3H   1py       -0.000064  0.006937  0.008259  0.007421 -0.000000 -0.011842
  3H   2pz        0.000000  0.000000 -0.000000 -0.000000 -0.015476 -0.000000
  3H   2px       -0.000373  0.010112  0.011634 -0.000987 -0.000000  0.094949
  3H   2py       -0.000646  0.017515  0.012447  0.011634  0.000000  0.164456
                      6         7         8         9        10        11   
                   0.22212   0.22212   0.43423   0.43423   0.50670   0.56502
                   0.00000   0.00000   0.00000   0.00000   0.00000   0.00000
                  --------  --------  --------  --------  --------  --------
  0C   1s         0.000000  0.000000 -0.000000  0.000000 -0.027163  0.000000
  0C   2s         0.000000  0.000000 -0.000000  0.000000 -0.045197  0.000000
  0C   1pz       -0.000000  0.000000  0.000000 -0.000000 -0.000000 -0.208378
  0C   1px       -0.000000  0.106787  0.032542 -0.000000  0.000000 -0.000000
  0C   1py       -0.106787 -0.000000  0.000000  0.032542  0.000000 -0.000000
  0C   3s         0.000000 -0.000000  0.000000  0.000000 -0.063003 -0.000000
  0C   2pz       -0.000000 -0.000000  0.000000 -0.000000 -0.000000 -0.852048
  0C   2px       -0.000000  0.283869 -0.200685  0.000000  0.000000  0.000000
  0C   2py       -0.283869 -0.000000 -0.000000 -0.200685  0.000000  0.000000
  0C   4s         0.000000 -0.000001  0.000004  0.000000  1.219212  0.000000
  0C   3pz        0.000000  0.000000 -0.000000  0.000000  0.000000  1.343737
  0C   3px       -0.000002  1.650257 -2.202586  0.000000  0.000001  0.000000
  0C   3py       -1.650258 -0.000002 -0.000000 -2.202589 -0.000000  0.000000
  0C   1dz2      -0.000000  0.000000  0.000000 -0.000000  0.023811 -0.000000
  0C   1dxz       0.000000 -0.000000  0.000000  0.000000 -0.000000  0.000000
  0C   1dyz       0.000000 -0.000000  0.000000  0.000000  0.000000  0.000000
  0C   1dx2y2     0.000000 -0.005960  0.037382 -0.000000 -0.000000  0.000000
  0C   1dxy      -0.005960 -0.000000 -0.000000 -0.037382 -0.000000 -0.000000
  0C   2dz2      -0.000000  0.000000 -0.000000 -0.000000  0.201054 -0.000000
  0C   2dxz      -0.000000  0.000000 -0.000000  0.000000  0.000000 -0.000000
  0C   2dyz       0.000000  0.000000  0.000000 -0.000000  0.000000  0.000000
  0C   2dx2y2    -0.000000  0.154486 -0.470988  0.000000 -0.000000  0.000000
  0C   2dxy       0.154486  0.000000  0.000000  0.470988 -0.000000 -0.000000
  0C   1f0       -0.000000 -0.000000 -0.000000  0.000000  0.000000 -0.017625
  0C   1f+1       0.000000 -0.008795  0.040253 -0.000000 -0.000000 -0.000000
  0C   1f-1       0.008795  0.000000  0.000000  0.040253  0.000000 -0.000000
  0C   1f+2       0.000000  0.000000 -0.000000  0.000000 -0.000000 -0.000000
  0C   1f-2       0.000000 -0.000000  0.000000  0.000000 -0.000000  0.000000
  0C   1f+3      -0.000000 -0.000000 -0.000000 -0.000000 -0.030503 -0.000000
  0C   1f-3      -0.000000 -0.000000 -0.000000 -0.000000  0.000000 -0.000000
  1H   1s        -0.000000  0.001526  0.054144 -0.000000 -0.081790  0.000000
  1H   2s         0.000000 -0.244645  1.855100 -0.000000 -0.834695 -0.000000
  1H   3s         0.000003 -2.516452  0.414795 -0.000000  0.194393 -0.000000
  1H   1pz        0.000000  0.000000 -0.000000  0.000000  0.000000  0.010990
  1H   1px        0.000000 -0.021177 -0.029536  0.000000  0.018913 -0.000000
  1H   1py       -0.012533 -0.000000 -0.000000 -0.003367  0.000000 -0.000000
  1H   2pz       -0.000000 -0.000000  0.000000 -0.000000  0.000000 -0.149407
  1H   2px       -0.000000  0.223879 -0.245330  0.000000 -0.093161  0.000000
  1H   2py        0.038366  0.000000 -0.000000 -0.206722 -0.000000 -0.000000
  2H   1s        -0.001321 -0.000763 -0.027072  0.046890 -0.081790  0.000000
  2H   2s         0.211869  0.122323 -0.927552  1.606565 -0.834693 -0.000000
  2H   3s         2.179311  1.258230 -0.207398  0.359226  0.194393 -0.000000
  2H   1pz        0.000000  0.000000 -0.000000  0.000000 -0.000000  0.010990
  2H   1px       -0.014597  0.004105 -0.009909  0.011331 -0.009457  0.000000
  2H   1py        0.012750  0.014597  0.011331 -0.022994  0.016379  0.000000
  2H   2pz       -0.000000 -0.000000  0.000000 -0.000000  0.000000 -0.149408
  2H   2px        0.113555  0.027196 -0.216374  0.016717  0.046581 -0.000000
  2H   2py       -0.158318 -0.113556  0.016718 -0.235678 -0.080680  0.000000
  3H   1s         0.001321 -0.000763 -0.027072 -0.046890 -0.081790  0.000000
  3H   2s        -0.211869  0.122322 -0.927552 -1.606565 -0.834693 -0.000000
  3H   3s        -2.179314  1.258224 -0.207398 -0.359226  0.194393 -0.000000
  3H   1pz        0.000000  0.000000  0.000000  0.000000 -0.000000  0.010990
  3H   1px        0.014597  0.004105 -0.009909 -0.011331 -0.009457  0.000000
  3H   1py        0.012750 -0.014597 -0.011331 -0.022994 -0.016379  0.000000
  3H   2pz       -0.000000  0.000000 -0.000000 -0.000000  0.000000 -0.149408
  3H   2px       -0.113555  0.027195 -0.216374 -0.016717  0.046581 -0.000000
  3H   2py       -0.158318  0.113555 -0.016718 -0.235678  0.080680 -0.000000
                     12        13        14        15        16        17   
                   0.69203   0.69471   0.69471   0.72191   0.72191   1.02255
                   0.00000   0.00000   0.00000   0.00000   0.00000   0.00000
                  --------  --------  --------  --------  --------  --------
  0C   1s         0.085996 -0.000001  0.000000 -0.000000  0.000000  0.000000
  0C   2s         0.151489 -0.000001  0.000000 -0.000000  0.000000  0.000000
  0C   1pz        0.000000  0.000000  0.000000  0.000000  0.000000  0.000000
  0C   1px       -0.000002 -0.276217  0.000000  0.000000 -0.000000 -0.000000
  0C   1py        0.000000 -0.000000 -0.276217 -0.000000 -0.000000 -0.000000
  0C   3s        -0.809359  0.000005 -0.000000  0.000000 -0.000000 -0.000000
  0C   2pz        0.000000  0.000000  0.000000  0.000000  0.000000 -0.000000
  0C   2px       -0.000001 -0.012879  0.000000  0.000000 -0.000000 -0.000000
  0C   2py        0.000000 -0.000000 -0.012879 -0.000000 -0.000000  0.000000
  0C   4s         7.638862 -0.000056  0.000000 -0.000000  0.000000 -0.000000
  0C   3pz       -0.000000 -0.000000 -0.000000 -0.000000 -0.000000 -0.000000
  0C   3px        0.000023  3.109134 -0.000001 -0.000000  0.000000 -0.000000
  0C   3py       -0.000000  0.000001  3.109136  0.000000  0.000000 -0.000002
  0C   1dz2      -0.008740  0.000000 -0.000000  0.000000 -0.000000 -0.000000
  0C   1dxz      -0.000000 -0.000000 -0.000000  0.000000  0.011089  0.000000
  0C   1dyz      -0.000000 -0.000000  0.000000 -0.011089  0.000000 -0.000000
  0C   1dx2y2     0.000000  0.006852 -0.000000 -0.000000  0.000000 -0.000000
  0C   1dxy       0.000000 -0.000000 -0.006852 -0.000000 -0.000000  0.000000
  0C   2dz2      -0.735179  0.000005 -0.000000  0.000000 -0.000000  0.000000
  0C   2dxz      -0.000000 -0.000000 -0.000000  0.000000  0.483254  0.000000
  0C   2dyz      -0.000000 -0.000000  0.000000 -0.483253  0.000000  0.000000
  0C   2dx2y2     0.000005  0.913951 -0.000000 -0.000000  0.000000 -0.000000
  0C   2dxy       0.000000 -0.000000 -0.913950 -0.000000 -0.000000  0.000000
  0C   1f0        0.000000  0.000000  0.000000  0.000000  0.000000  0.000000
  0C   1f+1      -0.000000 -0.045315  0.000000  0.000000 -0.000000  0.000000
  0C   1f-1       0.000000 -0.000000 -0.045315 -0.000000 -0.000000  0.000000
  0C   1f+2       0.000000  0.000000  0.000000 -0.000000 -0.019654  0.000000
  0C   1f-2      -0.000000 -0.000000  0.000000 -0.019654  0.000000 -0.000000
  0C   1f+3      -0.101113  0.000001 -0.000000  0.000000 -0.000000  0.000000
  0C   1f-3       0.000000  0.000000  0.000000 -0.000000  0.000000 -0.064752
  1H   1s         0.060475  0.088170 -0.000000 -0.000000  0.000000  0.000000
  1H   2s        -1.523794 -1.218187  0.000000  0.000000 -0.000000  0.000000
  1H   3s        -1.393920 -2.348843  0.000001  0.000000 -0.000000 -0.000000
  1H   1pz        0.000000  0.000000  0.000000 -0.000000 -0.034407 -0.000000
  1H   1px       -0.000804 -0.001236  0.000000  0.000000 -0.000000 -0.000000
  1H   1py       -0.000000  0.000000  0.012981  0.000000  0.000000  0.036343
  1H   2pz       -0.000000 -0.000000 -0.000000  0.000000  0.512887  0.000000
  1H   2px        0.879395  0.921920 -0.000000 -0.000000  0.000000  0.000000
  1H   2py        0.000000 -0.000000 -0.116408 -0.000000  0.000000 -0.752642
  2H   1s         0.060474 -0.044086  0.076358  0.000000  0.000000  0.000000
  2H   2s        -1.523783  0.609110 -1.054991  0.000000 -0.000000  0.000001
  2H   3s        -1.393896  1.174436 -2.034168 -0.000000 -0.000000  0.000000
  2H   1pz        0.000000  0.000000 -0.000000  0.029798  0.017204 -0.000000
  2H   1px        0.000402  0.009427  0.006156 -0.000000  0.000000 -0.031474
  2H   1py       -0.000696  0.006156  0.002318 -0.000000  0.000000 -0.018172
  2H   2pz       -0.000000 -0.000000  0.000000 -0.444173 -0.256443 -0.000000
  2H   2px       -0.439694  0.143179 -0.449612  0.000000 -0.000000  0.651808
  2H   2py        0.761570 -0.449617  0.662343  0.000000  0.000000  0.376322
  3H   1s         0.060474 -0.044086 -0.076358 -0.000000 -0.000000 -0.000000
  3H   2s        -1.523783  0.609111  1.054991  0.000000  0.000000 -0.000001
  3H   3s        -1.393896  1.174437  2.034167  0.000000  0.000000 -0.000000
  3H   1pz       -0.000000 -0.000000 -0.000000 -0.029798  0.017204 -0.000000
  3H   1px        0.000402  0.009427 -0.006156 -0.000000  0.000000  0.031474
  3H   1py        0.000696 -0.006156  0.002318  0.000000  0.000000 -0.018172
  3H   2pz        0.000000  0.000000  0.000000  0.444173 -0.256443  0.000000
  3H   2px       -0.439694  0.143179  0.449611  0.000000  0.000000 -0.651808
  3H   2py       -0.761570  0.449617  0.662343  0.000000  0.000000  0.376322
                     18        19        20        21        22        23   
                   1.06801   1.11726   1.11726   1.15685   1.26519   1.26519
                   0.00000   0.00000   0.00000   0.00000   0.00000   0.00000
                  --------  --------  --------  --------  --------  --------
  0C   1s        -0.005739 -0.000000  0.000000 -0.000000  0.000000  0.000000
  0C   2s        -0.008757  0.000000  0.000000 -0.000000  0.000000  0.000000
  0C   1pz       -0.000000 -0.000000  0.000000 -0.096464 -0.000000 -0.000000
  0C   1px       -0.000000  0.000000  0.069839  0.000000  0.000000  0.000000
  0C   1py       -0.000000  0.069839 -0.000000 -0.000000  0.000000 -0.000000
  0C   3s        -0.353358  0.000000 -0.000000  0.000000 -0.000000 -0.000000
  0C   2pz       -0.000000 -0.000000  0.000000 -0.461941 -0.000000 -0.000000
  0C   2px       -0.000000  0.000000  0.243843  0.000000  0.000000 -0.000000
  0C   2py        0.000000  0.243843 -0.000000 -0.000000 -0.000000  0.000000
  0C   4s         3.137850 -0.000000  0.000001 -0.000000 -0.000000  0.000000
  0C   3pz       -0.000000 -0.000000  0.000000 -0.967912  0.000000  0.000000
  0C   3px        0.000000  0.000000  2.261131  0.000000  0.000000  0.000000
  0C   3py        0.000000  2.261134 -0.000000 -0.000000 -0.000000  0.000000
  0C   1dz2       0.011834 -0.000000  0.000000  0.000000  0.000000 -0.000000
  0C   1dxz       0.000000  0.000000 -0.000000 -0.000000 -0.021710 -0.000000
  0C   1dyz      -0.000000  0.000000 -0.000000 -0.000000 -0.000000  0.021710
  0C   1dx2y2    -0.000000  0.000000  0.004245 -0.000000 -0.000000  0.000000
  0C   1dxy      -0.000000 -0.004245  0.000000  0.000000 -0.000000 -0.000000
  0C   2dz2      -1.504785  0.000000 -0.000000  0.000000  0.000000 -0.000000
  0C   2dxz       0.000000  0.000000  0.000000  0.000000  1.566924  0.000000
  0C   2dyz       0.000000  0.000000  0.000000  0.000000  0.000000 -1.566926
  0C   2dx2y2     0.000000  0.000000  0.747723  0.000000  0.000000 -0.000000
  0C   2dxy      -0.000000 -0.747722  0.000000  0.000000  0.000000 -0.000000
  0C   1f0        0.000000  0.000000  0.000000  0.031687  0.000000 -0.000000
  0C   1f+1       0.000000 -0.000000 -0.026605 -0.000000 -0.000000  0.000000
  0C   1f-1      -0.000000 -0.026605  0.000000  0.000000  0.000000 -0.000000
  0C   1f+2      -0.000000  0.000000  0.000000  0.000000  0.027241  0.000000
  0C   1f-2      -0.000000 -0.000000 -0.000000 -0.000000 -0.000000  0.027241
  0C   1f+3      -0.096311  0.000000  0.000000  0.000000  0.000000 -0.000000
  0C   1f-3      -0.000000 -0.000000 -0.000000 -0.000000 -0.000000 -0.000000
  1H   1s        -0.007338  0.000000  0.030427 -0.000000 -0.000000  0.000000
  1H   2s        -1.430352 -0.000000 -1.762016  0.000000 -0.000000 -0.000000
  1H   3s        -0.152646 -0.000000 -0.338955  0.000000  0.000000 -0.000000
  1H   1pz       -0.000000 -0.000000  0.000000 -0.053827  0.066016  0.000000
  1H   1px        0.048799  0.000000  0.045009 -0.000000  0.000000  0.000000
  1H   1py        0.000000  0.048693 -0.000000 -0.000000  0.000000  0.000000
  1H   2pz        0.000000  0.000000 -0.000000  0.930226 -1.366744 -0.000000
  1H   2px       -0.038222 -0.000000 -0.326406 -0.000000  0.000000 -0.000000
  1H   2py       -0.000000 -0.772166  0.000000  0.000000 -0.000000 -0.000000
  2H   1s        -0.007338  0.026350 -0.015213 -0.000000 -0.000000  0.000000
  2H   2s        -1.430352 -1.525951  0.881007  0.000000  0.000000 -0.000000
  2H   3s        -0.152646 -0.293545  0.169477  0.000000  0.000000 -0.000000
  2H   1pz       -0.000000 -0.000000  0.000000 -0.053827 -0.033008 -0.057171
  2H   1px       -0.024400  0.001595  0.047772  0.000000  0.000000 -0.000000
  2H   1py        0.042261  0.045930  0.001595 -0.000000 -0.000000  0.000000
  2H   2pz        0.000000  0.000000 -0.000000  0.930227  0.683372  1.183636
  2H   2px        0.019111 -0.193018 -0.660725  0.000000  0.000000 -0.000000
  2H   2py       -0.033101 -0.437845 -0.193019  0.000000 -0.000000  0.000000
  3H   1s        -0.007338 -0.026350 -0.015213 -0.000000  0.000000 -0.000000
  3H   2s        -1.430352  1.525951  0.881007  0.000000 -0.000000 -0.000000
  3H   3s        -0.152646  0.293545  0.169477 -0.000000  0.000000 -0.000000
  3H   1pz       -0.000000 -0.000000 -0.000000 -0.053827 -0.033008  0.057171
  3H   1px       -0.024400 -0.001595  0.047772  0.000000 -0.000000 -0.000000
  3H   1py       -0.042261  0.045930 -0.001595 -0.000000 -0.000000 -0.000000
  3H   2pz        0.000000  0.000000  0.000000  0.930227  0.683372 -1.183636
  3H   2px        0.019111  0.193018 -0.660725 -0.000000  0.000000 -0.000000
  3H   2py        0.033101 -0.437845  0.193019  0.000000 -0.000000 -0.000000
                     24        25        26        27        28        29   
                   1.47207   1.47207   1.62636   1.62636   1.72348   2.50381
                   0.00000   0.00000   0.00000   0.00000   0.00000   0.00000
                  --------  --------  --------  --------  --------  --------
  0C   1s         0.000000  0.000000 -0.000000  0.000000  0.111536 -0.059370
  0C   2s        -0.000000  0.000000 -0.000000  0.000000  0.273402 -0.168725
  0C   1pz       -0.000000 -0.000000  0.000000  0.000000 -0.000000  0.000000
  0C   1px        0.029047  0.000000  0.266664 -0.000000  0.000001  0.000000
  0C   1py       -0.000000  0.029047  0.000000  0.266664 -0.000000  0.000000
  0C   3s        -0.000000 -0.000000  0.000003 -0.000000 -2.616968  1.882157
  0C   2pz        0.000000 -0.000000 -0.000000  0.000000  0.000000 -0.000000
  0C   2px       -0.410748 -0.000000  2.573828 -0.000001  0.000006 -0.000000
  0C   2py        0.000000 -0.410750  0.000001  2.573830 -0.000000  0.000000
  0C   4s         0.000003  0.000000  0.000009 -0.000000 -5.472459  5.583643
  0C   3pz       -0.000000 -0.000000  0.000000  0.000000 -0.000000  0.000000
  0C   3px        0.194025  0.000000  2.748793 -0.000001  0.000005  0.000000
  0C   3py       -0.000000  0.194023  0.000001  2.748795 -0.000000  0.000000
  0C   1dz2      -0.000000 -0.000000  0.000000 -0.000000 -0.050977 -0.200663
  0C   1dxz       0.000000  0.000000 -0.000000  0.000000 -0.000000  0.000000
  0C   1dyz       0.000000  0.000000 -0.000000  0.000000  0.000000 -0.000000
  0C   1dx2y2    -0.010564 -0.000000 -0.010339  0.000000 -0.000000 -0.000000
  0C   1dxy      -0.000000  0.010564  0.000000  0.010338 -0.000000 -0.000000
  0C   2dz2      -0.000001 -0.000000 -0.000002  0.000000  1.114082 -0.920004
  0C   2dxz       0.000000 -0.000000 -0.000000  0.000000 -0.000000  0.000000
  0C   2dyz       0.000000 -0.000000 -0.000000  0.000000 -0.000000  0.000000
  0C   2dx2y2    -2.618402 -0.000001  1.813221 -0.000000  0.000006  0.000001
  0C   2dxy      -0.000001  2.618402 -0.000000 -1.813218  0.000000  0.000000
  0C   1f0       -0.000000  0.000000  0.000000 -0.000000 -0.000000  0.000000
  0C   1f+1       0.060663  0.000000 -0.043175  0.000000 -0.000000  0.000000
  0C   1f-1      -0.000000  0.060663 -0.000000 -0.043175  0.000000 -0.000000
  0C   1f+2       0.000000  0.000000  0.000000 -0.000000  0.000000  0.000000
  0C   1f-2      -0.000000  0.000000 -0.000000  0.000000  0.000000 -0.000000
  0C   1f+3      -0.000000 -0.000000  0.000000 -0.000000 -0.073035 -0.541287
  0C   1f-3       0.000000 -0.000000  0.000000  0.000000 -0.000000 -0.000000
  1H   1s        -0.177236 -0.000000 -0.065186  0.000000  0.183158  0.643402
  1H   2s         2.135021  0.000000 -3.985151  0.000001  2.032877 -2.973445
  1H   3s        -0.617935 -0.000000 -1.562238  0.000000  0.876351 -0.489283
  1H   1pz       -0.000000 -0.000000 -0.000000  0.000000 -0.000000  0.000000
  1H   1px       -0.062176 -0.000000 -0.052741  0.000000  0.100965  0.059624
  1H   1py       -0.000000  0.088900  0.000000  0.008217 -0.000000 -0.000000
  1H   2pz       -0.000000  0.000000  0.000000 -0.000000  0.000000 -0.000000
  1H   2px       -0.184992 -0.000000  2.451679 -0.000001 -1.498592  1.074620
  1H   2py        0.000000 -1.728540  0.000000  0.122065  0.000000 -0.000000
  2H   1s         0.088618 -0.153491  0.032592 -0.056453  0.183158  0.643402
  2H   2s        -1.067514  1.848985  1.992570 -3.451240  2.032895 -2.973447
  2H   3s         0.308968 -0.535147  0.781116 -1.352937  0.876355 -0.489284
  2H   1pz        0.000000  0.000000  0.000000 -0.000000  0.000000 -0.000000
  2H   1px        0.051131  0.065418 -0.007022  0.026396 -0.050483 -0.029812
  2H   1py        0.065418 -0.024407  0.026395 -0.037501  0.087439  0.051636
  2H   2pz       -0.000000 -0.000000  0.000000  0.000000  0.000000  0.000000
  2H   2px       -1.342654 -0.668377  0.704466 -1.008751  0.749301 -0.537309
  2H   2py       -0.668376 -0.570880 -1.008748  1.869274 -1.297826  0.930649
  3H   1s         0.088618  0.153491  0.032593  0.056453  0.183158  0.643402
  3H   2s        -1.067513 -1.848985  1.992572  3.451239  2.032895 -2.973447
  3H   3s         0.308968  0.535147  0.781117  1.352937  0.876355 -0.489284
  3H   1pz        0.000000 -0.000000 -0.000000 -0.000000  0.000000  0.000000
  3H   1px        0.051131 -0.065418 -0.007022 -0.026396 -0.050483 -0.029812
  3H   1py       -0.065418 -0.024407 -0.026395 -0.037501 -0.087439 -0.051636
  3H   2pz        0.000000 -0.000000 -0.000000  0.000000 -0.000000  0.000000
  3H   2px       -1.342654  0.668377  0.704467  1.008750  0.749301 -0.537309
  3H   2py        0.668377 -0.570879  1.008749  1.869273  1.297826 -0.930649
                     30        31        32        33        34        35   
                   2.67694   2.67694   2.99850   3.16462   3.16462   3.24882
                   0.00000   0.00000   0.00000   0.00000   0.00000   0.00000
                  --------  --------  --------  --------  --------  --------
  0C   1s         0.000000  0.000000 -0.000000 -0.000000  0.000000 -0.000000
  0C   2s         0.000000  0.000000 -0.000000 -0.000000 -0.000000  0.000000
  0C   1pz        0.000000  0.000000 -1.269671 -0.000000 -0.000000  0.000000
  0C   1px       -0.000000  0.065487 -0.000000 -0.000000  0.000000 -0.000000
  0C   1py       -0.065487 -0.000000  0.000000  0.000000 -0.000000 -0.000001
  0C   3s        -0.000000 -0.000000  0.000000  0.000000  0.000000 -0.000000
  0C   2pz       -0.000000 -0.000000  1.399285  0.000000  0.000000 -0.000000
  0C   2px        0.000000 -0.948693  0.000000  0.000000 -0.000000  0.000000
  0C   2py        0.948694  0.000000  0.000000 -0.000000  0.000000  0.000002
  0C   4s        -0.000000 -0.000006  0.000000 -0.000000  0.000000  0.000000
  0C   3pz        0.000000  0.000000 -0.461171 -0.000000 -0.000000  0.000000
  0C   3px        0.000000 -1.411397  0.000000  0.000000 -0.000000 -0.000000
  0C   3py        1.411400  0.000000  0.000000 -0.000000  0.000000  0.000001
  0C   1dz2       0.000000  0.000000 -0.000000  0.000000 -0.000000  0.000000
  0C   1dxz       0.000000  0.000000  0.000000 -0.000000 -0.481150  0.000000
  0C   1dyz      -0.000000  0.000000 -0.000000  0.481151 -0.000000 -0.000000
  0C   1dx2y2     0.000000 -0.175207  0.000000  0.000000  0.000000 -0.000000
  0C   1dxy      -0.175207 -0.000000 -0.000000  0.000000  0.000000  0.000001
  0C   2dz2       0.000000  0.000001 -0.000000 -0.000000 -0.000000 -0.000000
  0C   2dxz       0.000000 -0.000000  0.000000 -0.000000 -0.112201  0.000000
  0C   2dyz       0.000000 -0.000000  0.000000  0.112201 -0.000000  0.000000
  0C   2dx2y2    -0.000000  0.450487  0.000000  0.000000 -0.000000  0.000000
  0C   2dxy       0.450487  0.000000  0.000000 -0.000000 -0.000000 -0.000001
  0C   1f0       -0.000000 -0.000000  0.261436  0.000000  0.000001 -0.000000
  0C   1f+1      -0.000000  0.514995  0.000000 -0.000000 -0.000000  0.000000
  0C   1f-1      -0.514995 -0.000000  0.000000 -0.000000 -0.000000  0.000001
  0C   1f+2      -0.000000 -0.000000  0.000000 -0.000000 -0.780499  0.000000
  0C   1f-2      -0.000000 -0.000000  0.000000 -0.780499  0.000000  0.000000
  0C   1f+3       0.000000  0.000000  0.000000 -0.000000  0.000000 -0.000000
  0C   1f-3       0.000000 -0.000000  0.000000  0.000000  0.000000  0.879334
  1H   1s         0.000000 -1.006241  0.000000 -0.000000 -0.000000 -0.000000
  1H   2s        -0.000000  2.216956 -0.000000 -0.000000  0.000000 -0.000000
  1H   3s        -0.000000  0.185307 -0.000000  0.000000 -0.000000  0.000000
  1H   1pz        0.000000  0.000000  0.020140 -0.000000 -0.355663  0.000000
  1H   1px        0.000000 -0.094303  0.000000  0.000000 -0.000000  0.000000
  1H   1py       -0.014244 -0.000000 -0.000000  0.000000 -0.000000 -0.288537
  1H   2pz       -0.000000 -0.000000 -0.070202  0.000000  0.541708 -0.000000
  1H   2px        0.000000 -0.685050  0.000000 -0.000000 -0.000000 -0.000000
  1H   2py       -0.686767 -0.000000 -0.000000  0.000000  0.000000  0.471006
  2H   1s         0.871430  0.503120  0.000000 -0.000000  0.000000  0.000000
  2H   2s        -1.919940 -1.108474 -0.000000  0.000000 -0.000000 -0.000002
  2H   3s        -0.160481 -0.092653 -0.000000  0.000000 -0.000000  0.000000
  2H   1pz       -0.000000 -0.000000  0.020140  0.308013  0.177831 -0.000000
  2H   1px       -0.047002 -0.012893  0.000000  0.000000  0.000000  0.249881
  2H   1py        0.067167  0.047002 -0.000000  0.000000  0.000000  0.144269
  2H   2pz       -0.000000 -0.000000 -0.070202 -0.469133 -0.270854  0.000000
  2H   2px       -0.594015  0.343814 -0.000000  0.000000 -0.000000 -0.407904
  2H   2py        0.342095  0.594013  0.000000 -0.000000  0.000000 -0.235503
  3H   1s        -0.871430  0.503120 -0.000000  0.000000  0.000000 -0.000000
  3H   2s         1.919940 -1.108474 -0.000000  0.000000  0.000000  0.000002
  3H   3s         0.160481 -0.092653 -0.000000  0.000000  0.000000 -0.000000
  3H   1pz        0.000000 -0.000000  0.020140 -0.308013  0.177831 -0.000000
  3H   1px        0.047002 -0.012893 -0.000000 -0.000000 -0.000000 -0.249881
  3H   1py        0.067167 -0.047002 -0.000000  0.000000  0.000000  0.144269
  3H   2pz        0.000000  0.000000 -0.070202  0.469133 -0.270854  0.000000
  3H   2px        0.594015  0.343814  0.000000 -0.000000  0.000000  0.407904
  3H   2py        0.342095 -0.594013 -0.000000 -0.000000 -0.000000 -0.235503
                     36        37        38        39        40        41   
                   3.31870   3.42544   3.44020   3.44020   3.50048   3.50048
                   0.00000   0.00000   0.00000   0.00000   0.00000   0.00000
                  --------  --------  --------  --------  --------  --------
  0C   1s        -0.000000  0.029562  0.000000  0.000000  0.000000 -0.000000
  0C   2s        -0.000000  0.055999  0.000000  0.000000 -0.000000 -0.000000
  0C   1pz        0.337181  0.000000 -0.000000  0.000000  0.000000  0.000000
  0C   1px       -0.000000 -0.000000 -0.783420  0.000000 -0.008606  0.000000
  0C   1py        0.000000 -0.000000 -0.000000 -0.783420 -0.000000 -0.008603
  0C   3s        -0.000000 -0.010331 -0.000001  0.000000 -0.000000  0.000000
  0C   2pz       -0.530757 -0.000000  0.000000 -0.000000 -0.000000 -0.000000
  0C   2px        0.000000  0.000001  2.086862 -0.000000 -0.325652  0.000000
  0C   2py       -0.000000 -0.000000  0.000000  2.086862 -0.000000 -0.325660
  0C   4s        -0.000000 -0.789471 -0.000000 -0.000000  0.000000  0.000000
  0C   3pz       -0.395299 -0.000000  0.000000 -0.000000 -0.000000  0.000000
  0C   3px        0.000000  0.000001  0.662892 -0.000000 -0.829163  0.000000
  0C   3py       -0.000000 -0.000000  0.000000  0.662891 -0.000000 -0.829166
  0C   1dz2       0.000000 -0.909944 -0.000000  0.000000 -0.000001  0.000000
  0C   1dxz       0.000000 -0.000000 -0.000000  0.000000  0.000000 -0.000000
  0C   1dyz      -0.000000  0.000000 -0.000000  0.000000  0.000000  0.000000
  0C   1dx2y2    -0.000000 -0.000001 -0.053992  0.000000  0.885069 -0.000000
  0C   1dxy       0.000000 -0.000000  0.000000  0.053990 -0.000000 -0.885069
  0C   2dz2      -0.000000  0.813169  0.000000  0.000000  0.000000 -0.000000
  0C   2dxz      -0.000000  0.000000  0.000000 -0.000000 -0.000000  0.000000
  0C   2dyz      -0.000000 -0.000000  0.000000 -0.000000 -0.000000  0.000000
  0C   2dx2y2     0.000000  0.000003  0.454368 -0.000000 -1.493106  0.000000
  0C   2dxy       0.000000  0.000000 -0.000000 -0.454364  0.000000  1.493108
  0C   1f0        0.956918  0.000000 -0.000000  0.000000  0.000000  0.000000
  0C   1f+1       0.000000 -0.000001  0.714313 -0.000000  0.315433 -0.000000
  0C   1f-1      -0.000000  0.000000  0.000000  0.714315  0.000000  0.315431
  0C   1f+2       0.000001  0.000000 -0.000000 -0.000000 -0.000000  0.000000
  0C   1f-2      -0.000000 -0.000000 -0.000000  0.000000 -0.000000 -0.000000
  0C   1f+3      -0.000000  0.451920  0.000000  0.000000 -0.000000 -0.000000
  0C   1f-3       0.000000  0.000000 -0.000000 -0.000001  0.000000  0.000001
  1H   1s         0.000000  0.056349  0.721393 -0.000000  0.091782 -0.000000
  1H   2s        -0.000000  0.495532 -2.417736  0.000000  1.199176 -0.000000
  1H   3s         0.000000 -0.018984 -0.031688  0.000000  0.035106 -0.000000
  1H   1pz       -0.205305 -0.000000  0.000000  0.000000 -0.000000 -0.000000
  1H   1px        0.000000 -0.361010  0.109689 -0.000000 -0.473527  0.000000
  1H   1py       -0.000000 -0.000000  0.000000  0.047804 -0.000000 -0.300144
  1H   2pz        0.503934  0.000000 -0.000000  0.000000  0.000000  0.000000
  1H   2px        0.000000  0.176431  1.000690 -0.000000  0.267254 -0.000000
  1H   2py        0.000000  0.000000 -0.000000 -0.108359 -0.000000 -0.166834
  2H   1s        -0.000000  0.056350 -0.360696  0.624745 -0.045892  0.079485
  2H   2s         0.000000  0.495535  1.208868 -2.093819 -0.599587  1.038524
  2H   3s         0.000000 -0.018984  0.015844 -0.027443 -0.017553  0.030403
  2H   1pz       -0.205306 -0.000000  0.000000 -0.000000 -0.000000  0.000000
  2H   1px        0.000000  0.180505  0.063276 -0.026797 -0.343489  0.075077
  2H   1py        0.000000 -0.312644 -0.026797  0.094217  0.075077 -0.430181
  2H   2pz        0.503935  0.000000 -0.000000  0.000000  0.000000 -0.000000
  2H   2px        0.000000 -0.088215  0.168904 -0.480232 -0.058313 -0.187965
  2H   2py       -0.000000  0.152794 -0.480232  0.723430 -0.187966  0.158729
  3H   1s        -0.000000  0.056350 -0.360696 -0.624745 -0.045892 -0.079485
  3H   2s         0.000000  0.495535  1.208868  2.093819 -0.599587 -1.038524
  3H   3s         0.000000 -0.018984  0.015844  0.027443 -0.017553 -0.030403
  3H   1pz       -0.205306 -0.000000  0.000000 -0.000000  0.000000  0.000000
  3H   1px       -0.000000  0.180505  0.063276  0.026797 -0.343489 -0.075077
  3H   1py       -0.000000  0.312644  0.026797  0.094217 -0.075077 -0.430181
  3H   2pz        0.503935  0.000000 -0.000000  0.000000  0.000000  0.000000
  3H   2px        0.000000 -0.088215  0.168904  0.480232 -0.058313  0.187965
  3H   2py        0.000000 -0.152794  0.480232  0.723430  0.187966  0.158729
                     42        43        44        45        46        47   
                   3.67672   3.67672   4.11680   4.11680   4.30440   4.51910
                   0.00000   0.00000   0.00000   0.00000   0.00000   0.00000
                  --------  --------  --------  --------  --------  --------
  0C   1s        -0.000000 -0.000000 -0.000000 -0.000000  0.016247  0.000000
  0C   2s        -0.000000 -0.000000 -0.000000 -0.000000  0.048788 -0.000000
  0C   1pz       -0.000000  0.000000  0.000000 -0.000000 -0.000000 -0.201163
  0C   1px        0.000000  0.000000  0.927279  0.000000 -0.000002  0.000000
  0C   1py        0.000000 -0.000000  0.000000 -0.927279  0.000000 -0.000000
  0C   3s         0.000000  0.000000  0.000001  0.000000 -0.578154  0.000000
  0C   2pz       -0.000000 -0.000000 -0.000000  0.000000  0.000000  0.263041
  0C   2px       -0.000000 -0.000000 -2.172810 -0.000000  0.000006 -0.000000
  0C   2py       -0.000000  0.000000 -0.000000  2.172810 -0.000000  0.000000
  0C   4s         0.000000  0.000000 -0.000001  0.000000  0.421649 -0.000000
  0C   3pz       -0.000000 -0.000000 -0.000000 -0.000000 -0.000000 -0.353420
  0C   3px       -0.000000 -0.000000 -1.656117 -0.000000  0.000001 -0.000000
  0C   3py       -0.000000  0.000000 -0.000000  1.656117  0.000000  0.000000
  0C   1dz2       0.000000  0.000000 -0.000001 -0.000000  0.245184 -0.000000
  0C   1dxz      -0.000000 -0.950431 -0.000000 -0.000000 -0.000000  0.000031
  0C   1dyz       0.950431 -0.000000 -0.000000 -0.000000 -0.000000 -0.000000
  0C   1dx2y2    -0.000000  0.000000  0.027847  0.000000 -0.000002  0.000000
  0C   1dxy      -0.000000  0.000000 -0.000000  0.027846 -0.000000  0.000000
  0C   2dz2      -0.000000 -0.000000  0.000000 -0.000000 -0.299557  0.000000
  0C   2dxz       0.000000  0.896497  0.000000  0.000000  0.000000 -0.000013
  0C   2dyz      -0.896498  0.000000  0.000000  0.000000 -0.000000  0.000000
  0C   2dx2y2    -0.000000 -0.000000 -1.057168 -0.000000  0.000005 -0.000000
  0C   2dxy       0.000000 -0.000000  0.000000 -1.057165  0.000000 -0.000000
  0C   1f0        0.000000  0.000000  0.000000  0.000000 -0.000000 -0.533210
  0C   1f+1       0.000000 -0.000000  0.362777  0.000000 -0.000001  0.000000
  0C   1f-1      -0.000000  0.000000  0.000000 -0.362776  0.000000 -0.000000
  0C   1f+2       0.000000  0.672928  0.000000  0.000000 -0.000000  0.000034
  0C   1f-2       0.672929 -0.000000 -0.000000 -0.000000  0.000000  0.000000
  0C   1f+3      -0.000000 -0.000000 -0.000000 -0.000000 -0.886829  0.000000
  0C   1f-3       0.000000 -0.000000  0.000000  0.000000 -0.000000  0.000000
  1H   1s         0.000000 -0.000000  0.303113  0.000000 -0.623307  0.000000
  1H   2s        -0.000000  0.000000  2.149292  0.000000  0.494198  0.000000
  1H   3s         0.000000 -0.000000  0.877445  0.000000 -0.199390  0.000000
  1H   1pz       -0.000000 -0.155488 -0.000000  0.000000  0.000000 -0.731644
  1H   1px        0.000000 -0.000000  0.362924  0.000000 -0.286541  0.000000
  1H   1py        0.000000  0.000000 -0.000000  0.573492  0.000000 -0.000000
  1H   2pz       -0.000000 -0.417858  0.000000 -0.000000 -0.000000  0.370147
  1H   2px        0.000000 -0.000000 -1.209625 -0.000000 -0.020008 -0.000000
  1H   2py        0.000000  0.000000  0.000000 -0.358862 -0.000000  0.000000
  2H   1s        -0.000000  0.000000 -0.151557 -0.262504 -0.623306 -0.000000
  2H   2s         0.000000 -0.000000 -1.074646 -1.861341  0.494206 -0.000000
  2H   3s        -0.000000 -0.000000 -0.438722 -0.759890 -0.199390 -0.000000
  2H   1pz        0.134657  0.077744 -0.000000 -0.000000 -0.000000 -0.731536
  2H   1px       -0.000000 -0.000000 -0.339388  0.405480  0.143269  0.000000
  2H   1py       -0.000000  0.000000 -0.405480 -0.128820 -0.248153  0.000000
  2H   2pz        0.361876  0.208929 -0.000000  0.000000  0.000000  0.370093
  2H   2px        0.000000 -0.000000 -0.033260 -0.679174  0.010008 -0.000000
  2H   2py       -0.000000  0.000000  0.679174  0.817503 -0.017329  0.000000
  3H   1s         0.000000 -0.000000 -0.151557  0.262504 -0.623306  0.000000
  3H   2s        -0.000000  0.000000 -1.074646  1.861340  0.494206  0.000000
  3H   3s        -0.000000 -0.000000 -0.438722  0.759890 -0.199390  0.000000
  3H   1pz       -0.134657  0.077744  0.000000  0.000000 -0.000000 -0.731536
  3H   1px       -0.000000  0.000000 -0.339388 -0.405480  0.143269  0.000000
  3H   1py        0.000000  0.000000  0.405480 -0.128820  0.248153 -0.000000
  3H   2pz       -0.361876  0.208929  0.000000  0.000000  0.000000  0.370093
  3H   2px       -0.000000  0.000000 -0.033260  0.679174  0.010008 -0.000000
  3H   2py       -0.000000  0.000000 -0.679174  0.817503  0.017329  0.000000
                     48        49        50        51        52        53   
                   4.52347   4.52347   4.52448   4.52448   5.21845   5.67495
                   0.00000   0.00000   0.00000   0.00000   0.00000   0.00000
                  --------  --------  --------  --------  --------  --------
  0C   1s         0.000000  0.000000 -0.000000 -0.000000  0.000000 -0.097057
  0C   2s         0.000000  0.000000  0.000000 -0.000000 -0.000000 -0.087519
  0C   1pz       -0.000000  0.000000  0.000015  0.000000  0.000000  0.000000
  0C   1px        0.000000  0.795880 -0.000000  0.000000  0.000000 -0.000002
  0C   1py        0.795881 -0.000000  0.000000 -0.000000 -0.000000 -0.000000
  0C   3s        -0.000000 -0.000001 -0.000000  0.000000 -0.000000 -0.261780
  0C   2pz        0.000000 -0.000000 -0.000020 -0.000000 -0.000000 -0.000000
  0C   2px       -0.000000 -1.896932  0.000000 -0.000000 -0.000000  0.000005
  0C   2py       -1.896934  0.000000 -0.000000  0.000000 -0.000001  0.000000
  0C   4s         0.000000  0.000002  0.000000 -0.000000 -0.000000 -1.347935
  0C   3pz       -0.000000  0.000000  0.000026  0.000000 -0.000000 -0.000000
  0C   3px       -0.000000 -0.127123  0.000000 -0.000000 -0.000000  0.000002
  0C   3py       -0.127124  0.000000 -0.000000  0.000000 -0.000000  0.000000
  0C   1dz2       0.000000  0.000001  0.000000 -0.000000 -0.000000 -0.734046
  0C   1dxz      -0.000000  0.000000  0.424619 -0.000000 -0.000000  0.000000
  0C   1dyz      -0.000000  0.000000 -0.000000 -0.424620 -0.000000 -0.000000
  0C   1dx2y2     0.000000  0.419568 -0.000000  0.000000  0.000000  0.000000
  0C   1dxy      -0.419568  0.000000 -0.000000  0.000000  0.000001 -0.000000
  0C   2dz2      -0.000000 -0.000001 -0.000000  0.000000  0.000000 -0.033029
  0C   2dxz       0.000000 -0.000000 -0.172399  0.000000 -0.000000 -0.000000
  0C   2dyz       0.000000 -0.000000  0.000000  0.172399  0.000000  0.000000
  0C   2dx2y2    -0.000000 -1.479115  0.000000 -0.000000 -0.000000  0.000003
  0C   2dxy       1.479114 -0.000000  0.000000 -0.000000 -0.000000 -0.000000
  0C   1f0       -0.000000  0.000000  0.000040  0.000000  0.000000  0.000000
  0C   1f+1       0.000000  0.398970 -0.000000  0.000000  0.000000 -0.000001
  0C   1f-1       0.398970 -0.000000  0.000000 -0.000000 -0.000000 -0.000000
  0C   1f+2      -0.000000  0.000000  0.460327 -0.000000 -0.000000 -0.000000
  0C   1f-2       0.000000 -0.000000  0.000000  0.460326  0.000000 -0.000000
  0C   1f+3      -0.000000 -0.000003 -0.000000  0.000000 -0.000000 -1.152268
  0C   1f-3       0.000000 -0.000000  0.000000 -0.000000  0.954145  0.000000
  1H   1s         0.000000  0.387275 -0.000000  0.000000 -0.000000 -0.806703
  1H   2s         0.000000  1.562017 -0.000000  0.000000  0.000000  0.683813
  1H   3s         0.000000  0.069314 -0.000000  0.000000 -0.000000  0.235019
  1H   1pz        0.000000 -0.000000 -0.974412  0.000000  0.000000  0.000000
  1H   1px        0.000000  0.023762 -0.000000  0.000000 -0.000000  0.832110
  1H   1py        0.824436 -0.000000  0.000000 -0.000000  0.767517 -0.000000
  1H   2pz       -0.000000  0.000000  0.484869 -0.000000 -0.000000  0.000000
  1H   2px       -0.000000 -0.756672  0.000000 -0.000000 -0.000000 -0.680992
  1H   2py       -0.898671  0.000000 -0.000000  0.000000 -0.225629  0.000000
  2H   1s         0.335392 -0.193640  0.000000 -0.000000 -0.000000 -0.806702
  2H   2s         1.352745 -0.781007  0.000000 -0.000000  0.000001  0.683821
  2H   3s         0.060029 -0.034658  0.000000 -0.000000 -0.000000  0.235019
  2H   1pz       -0.000000 -0.000000  0.487287  0.843912  0.000000 -0.000000
  2H   1px        0.346701  0.624268 -0.000000  0.000000 -0.664690 -0.416053
  2H   1py        0.223931  0.346700 -0.000000  0.000000 -0.383760  0.720626
  2H   2pz        0.000000  0.000000 -0.242476 -0.419933  0.000000 -0.000000
  2H   2px       -0.061487 -0.863171  0.000000 -0.000000  0.195402  0.340497
  2H   2py       -0.792172 -0.061487 -0.000000 -0.000000  0.112815 -0.589758
  3H   1s        -0.335392 -0.193640  0.000000 -0.000000  0.000000 -0.806702
  3H   2s        -1.352746 -0.781007  0.000000 -0.000000 -0.000001  0.683821
  3H   3s        -0.060029 -0.034658  0.000000 -0.000000  0.000000  0.235019
  3H   1pz       -0.000000  0.000000  0.487287 -0.843912 -0.000000 -0.000000
  3H   1px       -0.346700  0.624268 -0.000000  0.000000  0.664690 -0.416053
  3H   1py        0.223931 -0.346700  0.000000 -0.000000 -0.383760 -0.720626
  3H   2pz        0.000000 -0.000000 -0.242476  0.419933  0.000000  0.000000
  3H   2px        0.061487 -0.863171  0.000000 -0.000000 -0.195402  0.340497
  3H   2py       -0.792172  0.061487 -0.000000  0.000000  0.112815  0.589758
                     54        55        56   
                   5.97783   5.97783  25.36024
                   0.00000   0.00000   0.00000
                  --------  --------  --------
  0C   1s         0.000000  0.000000  2.042411
  0C   2s         0.000000  0.000000 -2.259673
  0C   1pz       -0.000000 -0.000000 -0.000000
  0C   1px       -0.721194  0.000000  0.000000
  0C   1py       -0.000000 -0.721194 -0.000000
  0C   3s        -0.000001  0.000000  0.829340
  0C   2pz        0.000000  0.000000  0.000000
  0C   2px        2.658999 -0.000000 -0.000001
  0C   2py        0.000000  2.659003  0.000000
  0C   4s         0.000002  0.000000  0.957776
  0C   3pz        0.000000 -0.000000  0.000000
  0C   3px        0.657714 -0.000000 -0.000000
  0C   3py        0.000000  0.657715  0.000000
  0C   1dz2       0.000002  0.000000 -0.067844
  0C   1dxz       0.000000 -0.000000  0.000000
  0C   1dyz       0.000000 -0.000000 -0.000000
  0C   1dx2y2     0.822307 -0.000000 -0.000000
  0C   1dxy      -0.000000 -0.822307 -0.000000
  0C   2dz2       0.000000 -0.000000 -0.279922
  0C   2dxz      -0.000000  0.000000  0.000000
  0C   2dyz      -0.000000  0.000000  0.000000
  0C   2dx2y2     1.149960 -0.000000 -0.000001
  0C   2dxy      -0.000000 -1.149961 -0.000000
  0C   1f0       -0.000000  0.000000 -0.000000
  0C   1f+1      -0.630460  0.000000  0.000000
  0C   1f-1      -0.000000 -0.630461 -0.000000
  0C   1f+2      -0.000000  0.000000  0.000000
  0C   1f-2       0.000000  0.000000  0.000000
  0C   1f+3       0.000002  0.000000 -0.177097
  0C   1f-3       0.000000  0.000002 -0.000000
  1H   1s        -0.686393  0.000000 -0.042923
  1H   2s        -2.085543  0.000000 -0.550597
  1H   3s         0.066096 -0.000000 -0.090877
  1H   1pz       -0.000000  0.000000  0.000000
  1H   1px        1.182252 -0.000000  0.121489
  1H   1py        0.000000  0.030750 -0.000000
  1H   2pz        0.000000 -0.000000 -0.000000
  1H   2px        0.358458 -0.000000  0.217685
  1H   2py        0.000000  0.082699 -0.000000
  2H   1s         0.343199 -0.594436 -0.042924
  2H   2s         1.042770 -1.806135 -0.550599
  2H   3s        -0.033048  0.057240 -0.090878
  2H   1pz       -0.000000  0.000000  0.000000
  2H   1px        0.318626 -0.498617 -0.060745
  2H   1py       -0.498617  0.894378  0.105213
  2H   2pz        0.000000  0.000000 -0.000000
  2H   2px        0.151638 -0.119407 -0.108843
  2H   2py       -0.119406  0.289519  0.188521
  3H   1s         0.343199  0.594436 -0.042924
  3H   2s         1.042770  1.806135 -0.550599
  3H   3s        -0.033048 -0.057240 -0.090878
  3H   1pz        0.000000 -0.000000 -0.000000
  3H   1px        0.318626  0.498617 -0.060745
  3H   1py        0.498618  0.894378 -0.105213
  3H   2pz       -0.000000  0.000000 -0.000000
  3H   2px        0.151638  0.119407 -0.108843
  3H   2py        0.119406  0.289519 -0.188521

                      0         1         2         3         4         5   
                 -11.20402  -0.85709  -0.56663  -0.56663   0.13615   0.16331
                   1.00000   1.00000   1.00000   1.00000   0.00000   0.00000
                  --------  --------  --------  --------  --------  --------
  0C   1s        -0.563763  0.100799  0.000000 -0.000000 -0.000000  0.046870
  0C   2s        -0.466740  0.167002  0.000000 -0.000000 -0.000000  0.083254
  0C   1pz        0.000000 -0.000000  0.000000 -0.000000  0.186411 -0.000000
  0C   1px       -0.000000  0.000000  0.000000  0.190318 -0.000000 -0.000000
  0C   1py        0.000000  0.000000 -0.190318  0.000000 -0.000000  0.000000
  0C   3s        -0.002653 -0.413382  0.000000 -0.000000  0.000000 -0.184312
  0C   2pz       -0.000000  0.000000  0.000000 -0.000000  0.189667  0.000000
  0C   2px        0.000000  0.000000  0.000000  0.277271 -0.000000  0.000000
  0C   2py       -0.000000  0.000000 -0.277271  0.000000  0.000000  0.000000
  0C   4s        -0.000905 -0.240762  0.000000  0.000000 -0.000000 -3.271695
  0C   3pz       -0.000000 -0.000000  0.000000 -0.000000  0.770444  0.000000
  0C   3px        0.000000  0.000000  0.000000  0.152604 -0.000000 -0.000000
  0C   3py       -0.000000  0.000000 -0.152604  0.000000 -0.000000  0.000000
  0C   1dz2       0.001089  0.020091  0.000000 -0.000000 -0.000000  0.002372
  0C   1dxz       0.000000 -0.000000  0.000000 -0.000000 -0.000000  0.000000
  0C   1dyz       0.000000  0.000000 -0.000000 -0.000000 -0.000000  0.000000
  0C   1dx2y2     0.000000  0.000000  0.000000  0.018348  0.000000 -0.000000
  0C   1dxy       0.000000  0.000000  0.018348 -0.000000  0.000000  0.000000
  0C   2dz2       0.000327  0.027056 -0.000000 -0.000000  0.000000  0.192859
  0C   2dxz      -0.000000  0.000000 -0.000000  0.000000 -0.000000 -0.000000
  0C   2dyz       0.000000 -0.000000  0.000000  0.000000 -0.000000 -0.000000
  0C   2dx2y2     0.000000  0.000000  0.000000  0.013803 -0.000000  0.000000
  0C   2dxy       0.000000 -0.000000  0.013803 -0.000000 -0.000000 -0.000000
  0C   1f0        0.000000  0.000000 -0.000000  0.000000 -0.013224  0.000000
  0C   1f+1      -0.000000  0.000000 -0.000000 -0.007387  0.000000  0.000000
  0C   1f-1       0.000000 -0.000000  0.007387 -0.000000 -0.000000 -0.000000
  0C   1f+2      -0.000000  0.000000 -0.000000  0.000000 -0.000000  0.000000
  0C   1f-2      -0.000000 -0.000000 -0.000000 -0.000000  0.000000  0.000000
  0C   1f+3       0.000389  0.004665 -0.000000  0.000000  0.000000  0.020140
  0C   1f-3      -0.000000  0.000000 -0.000000  0.000000  0.000000  0.000000
  1H   1s        -0.000271 -0.099607  0.000000  0.174473 -0.000000 -0.001633
  1H   2s         0.000283 -0.140596  0.000000  0.280851  0.000000  0.289936
  1H   3s         0.000075 -0.024077  0.000000  0.117622  0.000000  1.218423
  1H   1pz        0.000000 -0.000000  0.000000 -0.000000  0.010137  0.000000
  1H   1px       -0.000019  0.009089 -0.000000 -0.012302  0.000000  0.014723
  1H   1py       -0.000000  0.000000 -0.003965  0.000000 -0.000000  0.000000
  1H   2pz        0.000000  0.000000 -0.000000 -0.000000  0.009114  0.000000
  1H   2px       -0.000132  0.016494 -0.000000 -0.016991 -0.000000 -0.202613
  1H   2py       -0.000000  0.000000 -0.010130  0.000000  0.000000 -0.000000
  2H   1s        -0.000271 -0.099607 -0.151098 -0.087237 -0.000000 -0.001633
  2H   2s         0.000283 -0.140596 -0.243224 -0.140425 -0.000000  0.289936
  2H   3s         0.000075 -0.024077 -0.101864 -0.058811 -0.000000  1.218423
  2H   1pz        0.000000 -0.000000 -0.000000  0.000000  0.010137  0.000000
  2H   1px        0.000010 -0.004545 -0.007044 -0.000102 -0.000000 -0.007362
  2H   1py       -0.000017  0.007872  0.008235  0.007044  0.000000  0.012751
  2H   2pz       -0.000000  0.000000 -0.000000 -0.000000  0.009114 -0.000000
  2H   2px        0.000066 -0.008247 -0.011744  0.003350 -0.000000  0.101307
  2H   2py       -0.000115  0.014284  0.010211  0.011744  0.000000 -0.175468
  3H   1s        -0.000271 -0.099607  0.151098 -0.087237 -0.000000 -0.001633
  3H   2s         0.000283 -0.140596  0.243224 -0.140425 -0.000000  0.289936
  3H   3s         0.000075 -0.024077  0.101864 -0.058811 -0.000000  1.218423
  3H   1pz        0.000000  0.000000  0.000000 -0.000000  0.010137  0.000000
  3H   1px        0.000010 -0.004545  0.007044 -0.000102  0.000000 -0.007362
  3H   1py        0.000017 -0.007872  0.008235 -0.007044  0.000000 -0.012751
  3H   2pz        0.000000 -0.000000  0.000000  0.000000  0.009114 -0.000000
  3H   2px        0.000066 -0.008247  0.011744  0.003350 -0.000000  0.101307
  3H   2py        0.000115 -0.014284  0.010211 -0.011744 -0.000000  0.175468
                      6         7         8         9        10        11   
                   0.22670   0.22670   0.43658   0.43658   0.55851   0.69416
                   0.00000   0.00000   0.00000   0.00000   0.00000   0.00000
                  --------  --------  --------  --------  --------  --------
  0C   1s         0.000000  0.000000 -0.000000 -0.000000 -0.038097 -0.000000
  0C   2s         0.000000  0.000000 -0.000000 -0.000000 -0.063398 -0.000000
  0C   1pz       -0.000000  0.000000  0.000000 -0.000000 -0.000000  0.231714
  0C   1px       -0.000000  0.105890  0.024293 -0.000000  0.000000  0.000000
  0C   1py       -0.105890 -0.000000 -0.000000 -0.024293 -0.000000  0.000000
  0C   3s        -0.000000 -0.000000  0.000000  0.000000 -0.038832  0.000000
  0C   2pz        0.000000  0.000000  0.000000 -0.000000 -0.000000  0.929353
  0C   2px       -0.000000  0.279213 -0.208069  0.000000 -0.000000 -0.000000
  0C   2py       -0.279213 -0.000000  0.000000  0.208070  0.000000  0.000000
  0C   4s        -0.000000 -0.000001  0.000004  0.000000  1.431141 -0.000000
  0C   3pz       -0.000000  0.000000 -0.000000 -0.000000 -0.000000 -1.250613
  0C   3px       -0.000001  1.682093 -2.176622  0.000000  0.000000 -0.000000
  0C   3py       -1.682094 -0.000001  0.000000  2.176624  0.000000 -0.000000
  0C   1dz2       0.000000  0.000000  0.000000  0.000000  0.010482 -0.000000
  0C   1dxz      -0.000000 -0.000000  0.000000  0.000000  0.000000 -0.000000
[...]


 NHO DIRECTIONALITY AND BOND BENDING (deviation from line of nuclear centers at
                                      the position of maximum hybrid amplitude)

         [Thresholds for printing:  angular deviation  >  1.0 degree]
                                    p- or d-character  > 25.0%
                                    orbital occupancy  >  0.10e

                        Line of Centers        Hybrid 1             Hybrid 2
                        ---------------  -------------------  ------------------
           NBO            Theta   Phi    Theta   Phi    Dev   Theta   Phi    Dev
 ===============================================================================
    None exceeding thresholds


 NATURAL BOND ORBITALS (Summary):

           NBO                 Occupancy
 ========================================
 Molecular unit  1  (CH3)
 ------ Lewis ---------------------------
    1. CR ( 1) C  1             0.99954
    2. BD ( 1) C  1- H  2       0.98574
    3. BD ( 1) C  1- H  3       0.98574
    4. BD ( 1) C  1- H  4       0.98574
 ------ non-Lewis -----------------------
    5. LV ( 1) C  1             0.00353
    6. BD*( 1) C  1- H  2       0.00591
    7. BD*( 1) C  1- H  3       0.00591
    8. BD*( 1) C  1- H  4       0.00591
    9. RY ( 1) C  1             0.00296
   10. RY ( 2) C  1             0.00296
   11. RY ( 3) C  1             0.00145
   12. RY ( 4) C  1             0.00125
   13. RY ( 5) C  1             0.00125
   14. RY ( 6) C  1             0.00069
   15. RY ( 7) C  1             0.00069
   16. RY ( 8) C  1             0.00031
   17. RY ( 9) C  1             0.00028
   18. RY (10) C  1             0.00022
   19. RY (11) C  1             0.00017
   20. RY (12) C  1             0.00016
   21. RY (13) C  1             0.00016
   22. RY (14) C  1             0.00015
   23. RY (15) C  1             0.00015
   24. RY (16) C  1             0.00014
   25. RY (17) C  1             0.00009
   26. RY (18) C  1             0.00009
   27. RY (19) C  1             0.00008
   28. RY (20) C  1             0.00006
   29. RY (21) C  1             0.00006
   30. RY (22) C  1             0.00005
   31. RY (23) C  1             0.00004
   32. RY (24) C  1             0.00004
   33. RY (25) C  1             0.00003
   34. RY ( 1) H  2             0.00128
   35. RY ( 2) H  2             0.00053
   36. RY ( 3) H  2             0.00049
   37. RY ( 4) H  2             0.00033
   38. RY ( 5) H  2             0.00008
   39. RY ( 6) H  2             0.00006
   40. RY ( 7) H  2             0.00003
   41. RY ( 8) H  2             0.00002
   42. RY ( 1) H  3             0.00128
   43. RY ( 2) H  3             0.00053
   44. RY ( 3) H  3             0.00049
   45. RY ( 4) H  3             0.00033
   46. RY ( 5) H  3             0.00008
   47. RY ( 6) H  3             0.00006
   48. RY ( 7) H  3             0.00003
   49. RY ( 8) H  3             0.00002
   50. RY ( 1) H  4             0.00128
   51. RY ( 2) H  4             0.00053
   52. RY ( 3) H  4             0.00049
   53. RY ( 4) H  4             0.00033
   54. RY ( 5) H  4             0.00008
   55. RY ( 6) H  4             0.00006
   56. RY ( 7) H  4             0.00003
   57. RY ( 8) H  4             0.00002
          -------------------------------
                 Total Lewis    3.95677  ( 98.9191%)
           Valence non-Lewis    0.02126  (  0.5316%)
           Rydberg non-Lewis    0.02197  (  0.5493%)
          -------------------------------
               Total unit  1    4.00000  (100.0000%)
              Charge unit  1    0.50000

 $CHOOSE
  ALPHA
   LONE 1 1 END
   BOND S 1 2 S 1 3 S 1 4 END
  END
  BETA
   BOND S 1 2 S 1 3 S 1 4 END
  END
 $END

 NBO analysis completed in 0.10 CPU seconds (1 wall second)
 Maximum scratch memory used by NBO was 421200 words (3.21 MB)
Stopping NBO...Storing NBOs: CH3·.pmp2re.nbo

                                *** returned from   NBO  program ***


----------------------------------
MP2 DERIVATIVE INTEGRAL GENERATION
----------------------------------


Input Wavefunction Amplitudes       ... CH3·.mp2tbb.tmp
Input Correlated Electron Density   ... CH3·.pmp2re
Input Energy Weighted Density       ... CH3·.wmp2.tmp
Input SCF Electron Density          ... CH3·.scfp

One-Electron Terms    ...
                        ... One-Electron Terms done
Prescreening matrices              ... done

Batch handling in the gradient evaluation:
Memory available                      ... 3000.0 MB
Memory per occupied orbital in Q2     ...    0.2 MB
Memory per occupied orbital in Q3     ...    0.0 MB
Total memory requirement per |i>      ...    0.2 MB
Max. Number of orbitals possible      ...  12274
Number of orbitals treated per batch  ...      9
Number of batches to be done          ...      1
Batch   0: i=    0 ...     8

---------------------------------------
MP2 TOTAL ENERGY:      -39.749293814 Eh
---------------------------------------

-----------------------------------
NORM OF THE MP2 GRADIENT:  0.000001
-----------------------------------

-------------------------   --------------------
FINAL SINGLE POINT ENERGY       -39.749293813540
-------------------------   --------------------

                                *** OPTIMIZATION RUN DONE ***

                            ***************************************
                            *     ORCA property calculations      *
                            ***************************************

                                    ---------------------
                                    Active property flags
                                    ---------------------
   (+) Dipole Moment


------------------------------------------------------------------------------
                       ORCA ELECTRIC PROPERTIES CALCULATION
------------------------------------------------------------------------------

Dipole Moment Calculation                       ... on
Quadrupole Moment Calculation                   ... off
Polarizability Calculation                      ... off
GBWName                                         ... CH3·.gbw
Electron density file                           ... CH3·.scfp
The origin for moment calculation is the CENTER OF MASS  = ( 0.000000, -0.000000  0.000000)

-------------
DIPOLE MOMENT
-------------
                                X             Y             Z
Electronic contribution:     -0.00000      -0.00000       0.00000
Nuclear contribution   :      0.00000       0.00000      -0.00000
                        -----------------------------------------
Total Dipole Moment    :      0.00000       0.00000      -0.00000
                        -----------------------------------------
Magnitude (a.u.)       :      0.00000
Magnitude (Debye)      :      0.00000



--------------------
Rotational spectrum 
--------------------
 
Rotational constants in cm-1:     9.692516     9.692513     4.846257 
Rotational constants in MHz : 290574.316505 290574.215086 145287.132898 

 Dipole components along the rotational axes: 
x,y,z [a.u.] :     0.000000    -0.000000    -0.000000 
x,y,z [Debye]:     0.000000    -0.000000    -0.000000 

 

                         *** MP2 UNRELAXED DENSITY ***

------------------------------------------------------------------------------
                       ORCA ELECTRIC PROPERTIES CALCULATION
------------------------------------------------------------------------------

Dipole Moment Calculation                       ... on
Quadrupole Moment Calculation                   ... off
Polarizability Calculation                      ... off
GBWName                                         ... CH3·.gbw
Electron density file                           ... CH3·.pmp2ur
The origin for moment calculation is the CENTER OF MASS  = ( 0.000000, -0.000000  0.000000)

-------------
DIPOLE MOMENT
-------------
                                X             Y             Z
Electronic contribution:     -0.00000      -0.00000       0.00000
Nuclear contribution   :      0.00000       0.00000      -0.00000
                        -----------------------------------------
Total Dipole Moment    :      0.00000       0.00000      -0.00000
                        -----------------------------------------
Magnitude (a.u.)       :      0.00000
Magnitude (Debye)      :      0.00000



--------------------
Rotational spectrum 
--------------------
 
Rotational constants in cm-1:     9.692516     9.692513     4.846257 
Rotational constants in MHz : 290574.316505 290574.215086 145287.132898 

 Dipole components along the rotational axes: 
x,y,z [a.u.] :     0.000000    -0.000000    -0.000000 
x,y,z [Debye]:     0.000000    -0.000000    -0.000000 

 

                           *** MP2 RELAXED DENSITY ***

------------------------------------------------------------------------------
                       ORCA ELECTRIC PROPERTIES CALCULATION
------------------------------------------------------------------------------

Dipole Moment Calculation                       ... on
Quadrupole Moment Calculation                   ... off
Polarizability Calculation                      ... off
GBWName                                         ... CH3·.gbw
Electron density file                           ... CH3·.pmp2re
The origin for moment calculation is the CENTER OF MASS  = ( 0.000000, -0.000000  0.000000)

-------------
DIPOLE MOMENT
-------------
                                X             Y             Z
Electronic contribution:     -0.00000      -0.00000       0.00000
Nuclear contribution   :      0.00000       0.00000      -0.00000
                        -----------------------------------------
Total Dipole Moment    :      0.00000       0.00000      -0.00000
                        -----------------------------------------
Magnitude (a.u.)       :      0.00000
Magnitude (Debye)      :      0.00000



--------------------
Rotational spectrum 
--------------------
 
Rotational constants in cm-1:     9.692516     9.692513     4.846257 
Rotational constants in MHz : 290574.316505 290574.215086 145287.132898 

 Dipole components along the rotational axes: 
x,y,z [a.u.] :     0.000000    -0.000000    -0.000000 
x,y,z [Debye]:     0.000000    -0.000000    -0.000000 

 
------------------------------------------------------------------------------
                         ORCA MP2 H E S S I A N CALCULATION
------------------------------------------------------------------------------

Calculating analytic MP2 second derivatives ... (>CH3·.last_mp2) done

-----------------------
VIBRATIONAL FREQUENCIES
-----------------------

Scaling factor for frequencies =  1.000000000  (already applied!)

   0:         0.00 cm**-1
   1:         0.00 cm**-1
   2:         0.00 cm**-1
   3:         0.00 cm**-1
   4:         0.00 cm**-1
   5:         0.00 cm**-1
   6:       484.24 cm**-1
   7:      1441.28 cm**-1
   8:      1441.32 cm**-1
   9:      3197.50 cm**-1
  10:      3388.36 cm**-1
  11:      3388.36 cm**-1


------------
NORMAL MODES
------------

These modes are the Cartesian displacements weighted by the diagonal matrix
M(i,i)=1/sqrt(m[i]) where m[i] is the mass of the displaced atom
Thus, these vectors are normalized but *not* orthogonal

                  0          1          2          3          4          5    
      0       0.000000   0.000000   0.000000   0.000000   0.000000   0.000000
      1       0.000000   0.000000   0.000000   0.000000   0.000000   0.000000
      2       0.000000   0.000000   0.000000   0.000000   0.000000   0.000000
      3       0.000000   0.000000   0.000000   0.000000   0.000000   0.000000
      4       0.000000   0.000000   0.000000   0.000000   0.000000   0.000000
      5       0.000000   0.000000   0.000000   0.000000   0.000000   0.000000
      6       0.000000   0.000000   0.000000   0.000000   0.000000   0.000000
      7       0.000000   0.000000   0.000000   0.000000   0.000000   0.000000
      8       0.000000   0.000000   0.000000   0.000000   0.000000   0.000000
      9       0.000000   0.000000   0.000000   0.000000   0.000000   0.000000
     10       0.000000   0.000000   0.000000   0.000000   0.000000   0.000000
     11       0.000000   0.000000   0.000000   0.000000   0.000000   0.000000
                  6          7          8          9         10         11    
      0       0.000000  -0.092367  -0.000023  -0.000001   0.100362   0.000020
      1       0.000000  -0.000023   0.092367   0.000000  -0.000020   0.100362
      2       0.143847   0.000000  -0.000000   0.000000   0.000000   0.000000
      3      -0.000000  -0.075730  -0.000019   0.577358  -0.812230  -0.000161
      4      -0.000000   0.000203  -0.809471   0.000000  -0.000003   0.014982
      5      -0.571346  -0.000000   0.000000  -0.000000  -0.000000  -0.000000
      6      -0.000000   0.588266  -0.383156  -0.288674  -0.191896   0.358158
      7      -0.000000   0.383341  -0.145473   0.499996   0.358321  -0.605361
      8      -0.571346  -0.000000   0.000000  -0.000000  -0.000000  -0.000000
      9       0.000000   0.588074   0.383452  -0.288674  -0.191754  -0.358234
     10       0.000000  -0.383268  -0.145665  -0.499996  -0.358082  -0.605502
     11      -0.571346  -0.000000   0.000000  -0.000000  -0.000000  -0.000000


-----------
IR SPECTRUM
-----------

 Mode    freq (cm**-1)   T**2         TX         TY         TZ
-------------------------------------------------------------------
   6:       484.24   73.435809  ( -0.000000  -0.000000  -8.569470)
   7:      1441.28    2.669621  (  1.633898   0.000410  -0.000000)
   8:      1441.32    2.668310  (  0.000410  -1.633496   0.000000)
   9:      3197.50    0.000000  (  0.000075  -0.000000  -0.000000)
  10:      3388.36    2.170986  (  1.473427  -0.000291  -0.000000)
  11:      3388.36    2.170325  (  0.000291   1.473202  -0.000000)

The first frequency considered to be a vibration is 6
The total number of vibrations considered is 6


--------------------------
THERMOCHEMISTRY AT 298.15K
--------------------------

Temperature         ... 298.15 K
Pressure            ... 1.00 atm
Total Mass          ... 15.03 AMU

Throughout the following assumptions are being made:
  (1) The electronic state is orbitally nondegenerate
      but the spin degeneracy is treated
  (2) There are no thermally accessible electronically excited states
  (3) Hindered rotations indicated by low frequency modes are not
      treated as such but are treated as vibrations and this may
      cause some error
  (4) All equations used are the standard statistical mechanics
      equations for an ideal gas
  (5) All vibrations are strictly harmonic

freq.     484.24  E(vib)   ...       0.15 
freq.    1441.28  E(vib)   ...       0.00 
freq.    1441.32  E(vib)   ...       0.00 
freq.    3197.50  E(vib)   ...       0.00 
freq.    3388.36  E(vib)   ...       0.00 
freq.    3388.36  E(vib)   ...       0.00 

------------
INNER ENERGY
------------

The inner energy is: U= E(el) + E(ZPE) + E(vib) + E(rot) + E(trans)
    E(el)   - is the total energy from the electronic structure calculation
              = E(kin-el) + E(nuc-el) + E(el-el) + E(nuc-nuc)
    E(ZPE)  - the the zero temperature vibrational energy from the frequency calculation
    E(vib)  - the the finite temperature correction to E(ZPE) due to population
              of excited vibrational states
    E(rot)  - is the rotational thermal energy
    E(trans)- is the translational thermal energy

Summary of contributions to the inner energy U:
Electronic energy                ...    -39.74929381 Eh
Zero point energy                ...      0.03039317 Eh      19.07 kcal/mol
Thermal vibrational correction   ...      0.00024859 Eh       0.16 kcal/mol
Thermal rotational correction    ...      0.00141627 Eh       0.89 kcal/mol
Thermal translational correction ...      0.00141627 Eh       0.89 kcal/mol
-----------------------------------------------------------------------
Total thermal energy                    -39.71581951 Eh


Summary of corrections to the electronic energy:
(perhaps to be used in another calculation)
Total thermal correction                  0.00308113 Eh       1.93 kcal/mol
Non-thermal (ZPE) correction              0.03039317 Eh      19.07 kcal/mol
-----------------------------------------------------------------------
Total correction                          0.03347430 Eh      21.01 kcal/mol


--------
ENTHALPY
--------

The enthalpy is H = U + kB*T
                kB is Boltzmann's constant
Total free energy                 ...    -39.71581951 Eh 
Thermal Enthalpy correction       ...      0.00094421 Eh       0.59 kcal/mol
-----------------------------------------------------------------------
Total Enthalpy                    ...    -39.71487530 Eh


Note: Rotational entropy computed according to Herzberg 
Infrared and Raman Spectra, Chapter V,1, Van Nostrand Reinhold, 1945 
Point Group:  D3h, Symmetry Number:   6  
Rotational constants in cm-1:     9.692516     9.692513     4.846257 

Vibrational entropy computed according to the QRRHO of S. Grimme
Chem.Eur.J. 2012 18 9955


-------
ENTROPY
-------

The entropy contributions are T*S = T*(S(el)+S(vib)+S(rot)+S(trans))
     S(el)   - electronic entropy
     S(vib)  - vibrational entropy
     S(rot)  - rotational entropy
     S(trans)- translational entropy
The entropies will be listed as mutliplied by the temperature to get
units of energy

Electronic entropy                ...      0.00065446 Eh      0.41 kcal/mol
Vibrational entropy               ...      0.00034686 Eh      0.22 kcal/mol
Rotational entropy                ...      0.00492944 Eh      3.09 kcal/mol
Translational entropy             ...      0.01618771 Eh     10.16 kcal/mol
-----------------------------------------------------------------------
Final entropy term                ...      0.02211846 Eh     13.88 kcal/mol

In case the symmetry of your molecule has not been determined correctly
or in case you have a reason to use a different symmetry number we print 
out the resulting rotational entropy values for sn=1,12 :
 --------------------------------------------------------
|  sn= 1 | S(rot)=       0.00662118 Eh      4.15 kcal/mol|
|  sn= 2 | S(rot)=       0.00596673 Eh      3.74 kcal/mol|
|  sn= 3 | S(rot)=       0.00558390 Eh      3.50 kcal/mol|
|  sn= 4 | S(rot)=       0.00531227 Eh      3.33 kcal/mol|
|  sn= 5 | S(rot)=       0.00510158 Eh      3.20 kcal/mol|
|  sn= 6 | S(rot)=       0.00492944 Eh      3.09 kcal/mol|
|  sn= 7 | S(rot)=       0.00478389 Eh      3.00 kcal/mol|
|  sn= 8 | S(rot)=       0.00465782 Eh      2.92 kcal/mol|
|  sn= 9 | S(rot)=       0.00454661 Eh      2.85 kcal/mol|
|  sn=10 | S(rot)=       0.00444713 Eh      2.79 kcal/mol|
|  sn=11 | S(rot)=       0.00435714 Eh      2.73 kcal/mol|
|  sn=12 | S(rot)=       0.00427498 Eh      2.68 kcal/mol|
 --------------------------------------------------------


-------------------
GIBBS FREE ENERGY
-------------------

The Gibbs free energy is G = H - T*S

Total enthalpy                    ...    -39.71487530 Eh 
Total entropy correction          ...     -0.02211846 Eh    -13.88 kcal/mol
-----------------------------------------------------------------------
Final Gibbs free energy         ...    -39.73699376 Eh

For completeness - the Gibbs free energy minus the electronic energy
G-E(el)                           ...      0.01230005 Eh      7.72 kcal/mol


Timings for individual modules:

Sum of individual times         ...      125.798 sec (=   2.097 min)
GTO integral calculation        ...        6.910 sec (=   0.115 min)   5.5 %
SCF iterations                  ...       25.380 sec (=   0.423 min)  20.2 %
MP2 module                      ...       30.960 sec (=   0.516 min)  24.6 %
Geometry relaxation             ...        0.055 sec (=   0.001 min)   0.0 %
Analytical frequency calculation...       62.493 sec (=   1.042 min)  49.7 %
                             ****ORCA TERMINATED NORMALLY****
TOTAL RUN TIME: 0 days 0 hours 2 minutes 7 seconds 216 msec
