
                                 *****************
                                 * O   R   C   A *
                                 *****************

           --- An Ab Initio, DFT and Semiempirical electronic structure package ---

                  #######################################################
                  #                        -***-                        #
                  #          Department of theory and spectroscopy      #
                  #               Directorship: Frank Neese             #
                  #        Max Planck Institute fuer Kohlenforschung    #
                  #                Kaiser Wilhelm Platz 1               #
                  #                 D-45470 Muelheim/Ruhr               #
                  #                      Germany                        #
                  #                                                     #
                  #                  All rights reserved                #
                  #                        -***-                        #
                  #######################################################


                         Program Version 4.2.1 -  RELEASE  -


 With contributions from (in alphabetic order):
   Daniel Aravena         : Magnetic Suceptibility
   Michael Atanasov       : Ab Initio Ligand Field Theory (pilot matlab implementation)
   Alexander A. Auer      : GIAO ZORA, VPT2
   Ute Becker             : Parallelization
   Giovanni Bistoni       : ED, misc. LED, open-shell LED, HFLD
   Martin Brehm           : Molecular dynamics
   Dmytro Bykov           : SCF Hessian
   Vijay G. Chilkuri      : MRCI spin determinant printing, contributions to CSF-ICE
   Dipayan Datta          : RHF DLPNO-CCSD density
   Achintya Kumar Dutta   : EOM-CC, STEOM-CC
   Dmitry Ganyushin       : Spin-Orbit,Spin-Spin,Magnetic field MRCI
   Miquel Garcia          : C-PCM Hessian, Gaussian charge scheme
   Yang Guo               : DLPNO-NEVPT2, CIM, IAO-localization
   Andreas Hansen         : Spin unrestricted coupled pair/coupled cluster methods
   Benjamin Helmich-Paris : CASSCF linear response (MC-RPA)
   Lee Huntington         : MR-EOM, pCC
   Robert Izsak           : Overlap fitted RIJCOSX, COSX-SCS-MP3, EOM
   Christian Kollmar      : KDIIS, OOCD, Brueckner-CCSD(T), CCSD density
   Simone Kossmann        : Meta GGA functionals, TD-DFT gradient, OOMP2, MP2 Hessian
   Martin Krupicka        : AUTO-CI
   Lucas Lang             : DCDCAS
   Dagmar Lenk            : GEPOL surface, SMD
   Dimitrios Liakos       : Extrapolation schemes; Compound Job, initial MDCI parallelization
   Dimitrios Manganas     : Further ROCIS development; embedding schemes
   Dimitrios Pantazis     : SARC Basis sets
   Taras Petrenko         : DFT Hessian,TD-DFT gradient, ASA, ECA, R-Raman, ABS, FL, XAS/XES, NRVS
   Peter Pinski           : DLPNO-MP2, DLPNO-MP2 Gradient
   Christoph Reimann      : Effective Core Potentials
   Marius Retegan         : Local ZFS, SOC
   Christoph Riplinger    : Optimizer, TS searches, QM/MM, DLPNO-CCSD(T), (RO)-DLPNO pert. Triples
   Tobias Risthaus        : Range-separated hybrids, TD-DFT gradient, RPA, STAB
   Michael Roemelt        : Original ROCIS implementation
   Masaaki Saitow         : Open-shell DLPNO-CCSD energy and density
   Barbara Sandhoefer     : DKH picture change effects
   Avijit Sen             : IP-ROCIS
   Kantharuban Sivalingam : CASSCF convergence, NEVPT2, FIC-MRCI
   Bernardo de Souza      : ESD, SOC TD-DFT
   Georgi Stoychev        : AutoAux, RI-MP2 NMR
   Willem Van den Heuvel  : Paramagnetic NMR
   Boris Wezisla          : Elementary symmetry handling
   Frank Wennmohs         : Technical directorship


 We gratefully acknowledge several colleagues who have allowed us to
 interface, adapt or use parts of their codes:
   Stefan Grimme, W. Hujo, H. Kruse,             : VdW corrections, initial TS optimization,
                  C. Bannwarth                     DFT functionals, gCP, sTDA/sTD-DF
   Ed Valeev, F. Pavosevic, A. Kumar             : LibInt (2-el integral package), F12 methods
   Garnet Chan, S. Sharma, J. Yang, R. Olivares  : DMRG
   Ulf Ekstrom                                   : XCFun DFT Library
   Mihaly Kallay                                 : mrcc  (arbitrary order and MRCC methods)
   Andreas Klamt, Michael Diedenhofen            : otool_cosmo (COSMO solvation model)
   Jiri Pittner, Ondrej Demel                    : Mk-CCSD
   Frank Weinhold                                : gennbo (NPA and NBO analysis)
   Christopher J. Cramer and Donald G. Truhlar   : smd solvation model
   Lars Goerigk                                  : TD-DFT with DH, B97 family of functionals
   V. Asgeirsson, H. Jonsson                     : NEB implementation
   FAccTs GmbH                                   : IRC, NEB, NEB-TS, Multilevel, MM, QM/MM, CI optimization
   S Lehtola, MJT Oliveira, MAL Marques          : LibXC Library


 Your calculation uses the libint2 library for the computation of 2-el integrals
 For citations please refer to: http://libint.valeyev.net

 Your ORCA version has been built with support for libXC version: 4.2.3
 For citations please refer to: https://tddft.org/programs/libxc/

 This ORCA versions uses:
   CBLAS   interface :  Fast vector & matrix operations
   LAPACKE interface :  Fast linear algebra routines
   SCALAPACK package :  Parallel linear algebra routines


----- Orbital basis set information -----
Your calculation utilizes the basis: 6-311G(2df,2p)
   H, Li - Ne  : R. Krishnan, J. S. Binkley, R. Seeger and J. A. Pople, J. Chem. Phys. 72, 650 (1980).
   Na - Ar     : A. D. McLean and G. S. Chandler J. Chem. Phys. 72, 5639, (1980).
   K  - Ca     : J.-P. Blaudeau, M. P. McGrath, L. A. Curtiss and L. Radom, J. Chem. Phys. 107, 5016 (1997).
   Ga - Kr     : L. A. Curtiss, M. P. McGrath, J.-P. Blandeau, N. E. Davis, R. C. Binning and L. Radom, J. Chem. Phys. 103, 6104 (1995).
   Pol./Diff.
   H, Li - Cl  : T. Clark, J. Chandrasekhar and P. v. R. Schleyer, J. Comp. Chem. 4, 294 (1983).
   H - Ne      : M. J. Frisch, J. A. Pople and J. S. Binkley, J. Chem. Phys. 80, 3265 (1984).

================================================================================
                                        WARNINGS
                       Please study these warnings very carefully!
================================================================================


WARNING: Geometry Optimization
  ===> : Switching off AutoStart
         For restart on a previous wavefunction, please use MOREAD

WARNING: Post HF methods need fully converged wavefunctions
  ===> : Setting SCFConvForced true
         You can overwrite this default with %scf ConvForced false 


INFO   : the flag for use of LIBINT has been found!

================================================================================
                                       INPUT FILE
================================================================================
NAME = HCl.inp
|  1> ! UHF MP2 6-311G(2df,2p) Opt Freq NoFrozenCore TightOpt TightSCF Grid4 FinalGrid5 PrintBasis PrintMOs NBO
|  2> %maxcore 3000
|  3> 
|  4> *xyz 0 1
|  5> Cl       0.000000000      0.000000000      0.034379000
|  6> H        0.000000000      0.000000000     -1.236571000
|  7> *
|  8> 
|  9> %pal
| 10>  nprocs 12
| 11> end
| 12> 
| 13>                          ****END OF INPUT****
================================================================================

                       *****************************
                       * Geometry Optimization Run *
                       *****************************

Geometry optimization settings:
Update method            Update   .... BFGS
Choice of coordinates    CoordSys .... Z-matrix Internals
Initial Hessian          InHess   .... Almoef's Model

Convergence Tolerances:
Energy Change            TolE     ....  1.0000e-06 Eh
Max. Gradient            TolMAXG  ....  1.0000e-04 Eh/bohr
RMS Gradient             TolRMSG  ....  3.0000e-05 Eh/bohr
Max. Displacement        TolMAXD  ....  1.0000e-03 bohr
RMS Displacement         TolRMSD  ....  6.0000e-04 bohr
Strict Convergence                ....  False
------------------------------------------------------------------------------
                        ORCA OPTIMIZATION COORDINATE SETUP
------------------------------------------------------------------------------

The optimization will be done in new redundant internal coordinates
Making redundant internal coordinates   ...  (new redundants) done
Evaluating the initial hessian          ...  (Almloef) done
Evaluating the coordinates              ...  done
Calculating the B-matrix                .... done
Calculating the G-matrix                .... done
Diagonalizing the G-matrix              .... done
The first mode is                       ....    0
The number of degrees of freedom        ....    1

    -----------------------------------------------------------------
                    Redundant Internal Coordinates


    -----------------------------------------------------------------
         Definition                    Initial Value    Approx d2E/dq
    -----------------------------------------------------------------
      1. B(H   1,Cl  0)                  1.2710         0.415647   
    -----------------------------------------------------------------

Number of atoms                         .... 2
Number of degrees of freedom            .... 1

         *************************************************************
         *                GEOMETRY OPTIMIZATION CYCLE   1            *
         *************************************************************
---------------------------------
CARTESIAN COORDINATES (ANGSTROEM)
---------------------------------
  Cl     0.000000    0.000000    0.034379
  H      0.000000    0.000000   -1.236571

----------------------------
CARTESIAN COORDINATES (A.U.)
----------------------------
  NO LB      ZA    FRAG     MASS         X           Y           Z
   0 Cl   17.0000    0    35.453    0.000000    0.000000    0.064967
   1 H     1.0000    0     1.008    0.000000    0.000000   -2.336781

--------------------------------
INTERNAL COORDINATES (ANGSTROEM)
--------------------------------
 Cl     0   0   0     0.000000000000     0.00000000     0.00000000
 H      1   0   0     1.270950000000     0.00000000     0.00000000

---------------------------
INTERNAL COORDINATES (A.U.)
---------------------------
 Cl     0   0   0     0.000000000000     0.00000000     0.00000000
 H      1   0   0     2.401747429907     0.00000000     0.00000000

---------------------
BASIS SET INFORMATION
---------------------
There are 2 groups of distinct atoms

 Group   1 Type Cl  : 13s10p2d1f contracted to 6s5p2d1f pattern {631111/52111/11/1}
 Group   2 Type H   : 5s2p contracted to 3s2p pattern {311/11}

Atom   0Cl   basis set group =>   1
Atom   1H    basis set group =>   2

-------------------------
BASIS SET IN INPUT FORMAT
-------------------------

 # Basis set for element : H 
 NewGTO H 
 S 3 
   1      33.8650000000      0.0254938145
   2       5.0947900000      0.1903731086
   3       1.1587900000      0.8521614860
 S 1 
   1       0.3258400000      1.0000000000
 S 1 
   1       0.1027410000      1.0000000000
 P 1 
   1       1.5000000000      1.0000000000
 P 1 
   1       0.3750000000      1.0000000000
  end;

 # Basis set for element : Cl
 NewGTO Cl
 S 6 
   1  105819.0000000000      0.0007380002
   2   15872.0000000000      0.0057180019
   3    3619.6500000000      0.0294950099
   4    1030.8000000000      0.1172860392
   5     339.9080000000      0.3629491212
   6     124.5380000000      0.5841491951
 S 3 
   1     124.5380000000      0.1341769734
   2      49.5135000000      0.6242498762
   3      20.8056000000      0.2917559421
 S 1 
   1       6.5834600000      1.0000000000
 S 1 
   1       2.5646800000      1.0000000000
 S 1 
   1       0.5597630000      1.0000000000
 S 1 
   1       0.1832730000      1.0000000000
 P 5 
   1     589.7760000000      0.0023909997
   2     139.8490000000      0.0185039976
   3      45.1413000000      0.0813769893
   4      16.8733000000      0.2215519708
   5       6.7411000000      0.7725688983
 P 2 
   1       6.7411000000     -1.5722438126
   2       2.7715200000      0.9923888817
 P 1 
   1       1.0238700000      1.0000000000
 P 1 
   1       0.3813680000      1.0000000000
 P 1 
   1       0.1094370000      1.0000000000
 D 1 
   1       1.5000000000      1.0000000000
 D 1 
   1       0.3750000000      1.0000000000
 F 1 
   1       0.7000000000      1.0000000000
  end;



           ************************************************************
           *        Program running with 12 parallel MPI-processes    *
           *              working on a common directory               *
           ************************************************************
------------------------------------------------------------------------------
                           ORCA GTO INTEGRAL CALCULATION
------------------------------------------------------------------------------

                         BASIS SET STATISTICS AND STARTUP INFO

 # of primitive gaussian shells          ...   33
 # of primitive gaussian functions       ...   71
 # of contracted shells                  ...   19
 # of contracted basis functions         ...   47
 Highest angular momentum                ...    3
 Maximum contraction depth               ...    6
 Integral package used                   ... LIBINT
 Integral threshhold            Thresh   ...  2.500e-11
 Primitive cut-off              TCut     ...  2.500e-12


------------------------------ INTEGRAL EVALUATION ----------------------------


 * One electron integrals 
 Pre-screening matrix                    ... done
 Shell pair data                         ... done (   0.000 sec)



           ************************************************************
           *        Program running with 12 parallel MPI-processes    *
           *              working on a common directory               *
           ************************************************************
-------------------------------------------------------------------------------
                                 ORCA SCF
-------------------------------------------------------------------------------

------------
SCF SETTINGS
------------
Hamiltonian:
 Ab initio Hamiltonian  Method          .... Hartree-Fock(GTOs)


General Settings:
 Integral files         IntName         .... HCl
 Hartree-Fock type      HFTyp           .... UHF
 Total Charge           Charge          ....    0
 Multiplicity           Mult            ....    1
 Number of Electrons    NEL             ....   18
 Basis Dimension        Dim             ....   47
 Nuclear Repulsion      ENuc            ....      7.0781797404 Eh

Convergence Acceleration:
 DIIS                   CNVDIIS         .... on
   Start iteration      DIISMaxIt       ....    12
   Startup error        DIISStart       ....  0.200000
   # of expansion vecs  DIISMaxEq       ....     5
   Bias factor          DIISBfac        ....   1.050
   Max. coefficient     DIISMaxC        ....  10.000
 Newton-Raphson         CNVNR           .... off
 SOSCF                  CNVSOSCF        .... off
 Level Shifting         CNVShift        .... on
   Level shift para.    LevelShift      ....    0.2500
   Turn off err/grad.   ShiftErr        ....    0.0010
 Zerner damping         CNVZerner       .... off
 Static damping         CNVDamp         .... on
   Fraction old density DampFac         ....    0.7000
   Max. Damping (<1)    DampMax         ....    0.9800
   Min. Damping (>=0)   DampMin         ....    0.0000
   Turn off err/grad.   DampErr         ....    0.1000
 Fernandez-Rico         CNVRico         .... off

SCF Procedure:
 Maximum # iterations   MaxIter         ....   125
 SCF integral mode      SCFMode         .... Direct
   Integral package                     .... LIBINT
 Reset frequency        DirectResetFreq ....    20
 Integral Threshold     Thresh          ....  2.500e-11 Eh
 Primitive CutOff       TCut            ....  2.500e-12 Eh

Convergence Tolerance:
 Convergence Check Mode ConvCheckMode   .... Total+1el-Energy
 Convergence forced     ConvForced      .... 1
 Energy Change          TolE            ....  1.000e-08 Eh
 1-El. energy change                    ....  1.000e-05 Eh
 DIIS Error             TolErr          ....  5.000e-07


Diagonalization of the overlap matrix:
Smallest eigenvalue                        ... 7.122e-03
Time for diagonalization                   ...    0.002 sec
Threshold for overlap eigenvalues          ... 1.000e-08
Number of eigenvalues below threshold      ... 0
Time for construction of square roots      ...    0.011 sec
Total time needed                          ...    0.013 sec

-------------------
DFT GRID GENERATION
-------------------

General Integration Accuracy     IntAcc      ...  4.670
Radial Grid Type                 RadialGrid  ... Gauss-Chebyshev
Angular Grid (max. acc.)         AngularGrid ... Lebedev-302
Angular grid pruning method      GridPruning ... 3 (G Style)
Weight generation scheme         WeightScheme... Becke
Basis function cutoff            BFCut       ...    1.0000e-11
Integration weight cutoff        WCut        ...    1.0000e-14
Grids for H and He will be reduced by one unit

# of grid points (after initial pruning)     ...  10132 (   0.0 sec)
# of grid points (after weights+screening)   ...  10103 (   0.0 sec)
nearest neighbour list constructed           ...    0.0 sec
Grid point re-assignment to atoms done       ...    0.0 sec
Grid point division into batches done        ...    0.1 sec
Reduced shell lists constructed in    0.1 sec

Total number of grid points                  ...    10103
Total number of batches                      ...      159
Average number of points per batch           ...       63
Average number of grid points per atom       ...     5052
Average number of shells per batch           ...     4.20 (22.11%)
Average number of basis functions per batch  ...     9.27 (19.72%)
Average number of large shells per batch     ...     2.60 (61.90%)
Average number of large basis fcns per batch ...     6.33 (68.35%)
Maximum spatial batch extension              ...  25.31, 23.02, 15.18 au
Average spatial batch extension              ...   1.46,  1.37,  0.97 au

Time for grid setup =    0.151 sec

------------------------------
INITIAL GUESS: MODEL POTENTIAL
------------------------------
Loading Hartree-Fock densities                     ... done
Calculating cut-offs                               ... done
Setting up the integral package                    ... done
Initializing the effective Hamiltonian             ... done
Starting the Coulomb interaction                   ... done (   0.0 sec)
Reading the grid                                   ... done
Mapping shells                                     ... done
Starting the XC term evaluation                    ... done (   0.0 sec)
Transforming the Hamiltonian                       ... done (   0.0 sec)
Diagonalizing the Hamiltonian                      ... done (   0.0 sec)
Back transforming the eigenvectors                 ... done (   0.0 sec)
Now organizing SCF variables                       ... done
                      ------------------
                      INITIAL GUESS DONE (   0.4 sec)
                      ------------------
--------------
SCF ITERATIONS
--------------
ITER       Energy         Delta-E        Max-DP      RMS-DP      [F,P]     Damp
               ***  Starting incremental Fock matrix formation  ***
  0   -460.0712517729   0.000000000000 0.01434851  0.00067057  0.6475457 0.7000
  1   -460.0794948147  -0.008243041829 0.01090008  0.00050901  0.4558598 0.7000
  2   -460.0851801455  -0.005685330808 0.00700115  0.00034327  0.3208332 0.7000
  3   -460.0891036405  -0.003923495043 0.00435320  0.00022980  0.2257412 0.7000
                               ***Turning on DIIS***
  4   -460.0918442011  -0.002740560606 0.00269612  0.00015723  0.1587812 0.7000
  5   -460.1355693166  -0.043725115475 0.00141919  0.00011364  0.1116523 0.7000
  6   -460.1254751919   0.010094124725 0.00387462  0.00028775  0.0782532 0.0000
  7   -460.0985704724   0.026904719461 0.00041533  0.00002664  0.0021093 0.0000
  8   -460.0992462257  -0.000675753218 0.00023178  0.00001853  0.0010474 0.0000
  9   -460.0982917905   0.000954435125 0.00014514  0.00000948  0.0003391 0.0000
 10   -460.0983719880  -0.000080197517 0.00002352  0.00000125  0.0000279 0.0000
 11   -460.0983998358  -0.000027847772 0.00000592  0.00000033  0.0000084 0.0000
 12   -460.0983690181   0.000030817741 0.00000143  0.00000006  0.0000014 0.0000
                            ***DIIS convergence achieved***

               *****************************************************
               *                     SUCCESS                       *
               *           SCF CONVERGED AFTER  13 CYCLES          *
               *****************************************************


----------------
TOTAL SCF ENERGY
----------------

Total Energy       :         -460.09837593 Eh          -12519.91331 eV

Components:
Nuclear Repulsion  :            7.07817974 Eh             192.60706 eV
Electronic Energy  :         -467.17655567 Eh          -12712.52037 eV
One Electron Energy:         -649.83029857 Eh          -17682.78140 eV
Two Electron Energy:          182.65374290 Eh            4970.26103 eV

Virial components:
Potential Energy   :         -920.20477846 Eh          -25040.04503 eV
Kinetic Energy     :          460.10640252 Eh           12520.13172 eV
Virial Ratio       :            1.99998255


---------------
SCF CONVERGENCE
---------------

  Last Energy change         ...   -6.9161e-06  Tolerance :   1.0000e-08
  Last MAX-Density change    ...    1.0738e-07  Tolerance :   1.0000e-07
  Last RMS-Density change    ...    7.5763e-09  Tolerance :   5.0000e-09
  Last DIIS Error            ...    3.1474e-07  Tolerance :   5.0000e-07

             **** THE GBW FILE WAS UPDATED (HCl.gbw) ****
             **** DENSITY FILE WAS UPDATED (HCl.scfp) ****
             **** ENERGY FILE WAS UPDATED (HCl.en.tmp) ****
----------------------
UHF SPIN CONTAMINATION
----------------------

Expectation value of <S**2>     :     0.000000
Ideal value S*(S+1) for S=0.0   :     0.000000
Deviation                       :     0.000000

             **** THE GBW FILE WAS UPDATED (HCl.gbw) ****
             **** DENSITY FILE WAS UPDATED (HCl.scfp) ****
----------------
ORBITAL ENERGIES
----------------
                 SPIN UP ORBITALS
  NO   OCC          E(Eh)            E(eV) 
   0   1.0000    -104.850110     -2853.1165 
   1   1.0000     -10.576408      -287.7987 
   2   1.0000      -8.044370      -218.8984 
   3   1.0000      -8.042073      -218.8359 
   4   1.0000      -8.042073      -218.8359 
   5   1.0000      -1.119990       -30.4765 
   6   1.0000      -0.628702       -17.1079 
   7   1.0000      -0.478840       -13.0299 
   8   1.0000      -0.478840       -13.0299 
   9   0.0000       0.124973         3.4007 
  10   0.0000       0.310606         8.4520 
  11   0.0000       0.416324        11.3287 
  12   0.0000       0.416324        11.3287 
  13   0.0000       0.431617        11.7449 
  14   0.0000       0.557872        15.1805 
  15   0.0000       0.557872        15.1805 
  16   0.0000       0.664060        18.0700 
  17   0.0000       0.664060        18.0700 
  18   0.0000       0.848787        23.0967 
  19   0.0000       1.020555        27.7707 
  20   0.0000       1.057156        28.7667 
  21   0.0000       1.057156        28.7667 
  22   0.0000       1.484025        40.3824 
  23   0.0000       2.157964        58.7212 
  24   0.0000       2.363187        64.3056 
  25   0.0000       2.363187        64.3056 
  26   0.0000       2.385369        64.9092 
  27   0.0000       2.385369        64.9092 
  28   0.0000       2.427007        66.0422 
  29   0.0000       2.427007        66.0422 
  30   0.0000       2.476009        67.3756 
  31   0.0000       2.476009        67.3756 
  32   0.0000       2.689736        73.1914 
  33   0.0000       2.729398        74.2707 
  34   0.0000       2.729398        74.2707 
  35   0.0000       2.772471        75.4428 
  36   0.0000       2.858848        77.7932 
  37   0.0000       2.858848        77.7932 
  38   0.0000       3.561212        96.9055 
  39   0.0000       4.074274       110.8666 
  40   0.0000       4.074274       110.8666 
  41   0.0000       4.734988       128.8456 
  42   0.0000      10.271381       279.4985 
  43   0.0000      26.235426       713.9022 
  44   0.0000      26.235426       713.9022 
  45   0.0000      27.652065       752.4509 
  46   0.0000     219.061677      5960.9713 

                 SPIN DOWN ORBITALS
  NO   OCC          E(Eh)            E(eV) 
   0   1.0000    -104.850110     -2853.1165 
   1   1.0000     -10.576408      -287.7987 
   2   1.0000      -8.044370      -218.8984 
   3   1.0000      -8.042073      -218.8359 
   4   1.0000      -8.042073      -218.8359 
   5   1.0000      -1.119990       -30.4765 
   6   1.0000      -0.628702       -17.1079 
   7   1.0000      -0.478840       -13.0299 
   8   1.0000      -0.478840       -13.0299 
   9   0.0000       0.124973         3.4007 
  10   0.0000       0.310606         8.4520 
  11   0.0000       0.416324        11.3287 
  12   0.0000       0.416324        11.3287 
  13   0.0000       0.431617        11.7449 
  14   0.0000       0.557872        15.1805 
  15   0.0000       0.557872        15.1805 
  16   0.0000       0.664060        18.0700 
  17   0.0000       0.664060        18.0700 
  18   0.0000       0.848787        23.0967 
  19   0.0000       1.020555        27.7707 
  20   0.0000       1.057156        28.7667 
  21   0.0000       1.057156        28.7667 
  22   0.0000       1.484025        40.3824 
  23   0.0000       2.157964        58.7212 
  24   0.0000       2.363187        64.3056 
  25   0.0000       2.363187        64.3056 
  26   0.0000       2.385369        64.9092 
  27   0.0000       2.385369        64.9092 
  28   0.0000       2.427007        66.0422 
  29   0.0000       2.427007        66.0422 
  30   0.0000       2.476009        67.3756 
  31   0.0000       2.476009        67.3756 
  32   0.0000       2.689736        73.1914 
  33   0.0000       2.729398        74.2707 
  34   0.0000       2.729398        74.2707 
  35   0.0000       2.772471        75.4428 
  36   0.0000       2.858848        77.7932 
  37   0.0000       2.858848        77.7932 
  38   0.0000       3.561212        96.9055 
  39   0.0000       4.074274       110.8666 
  40   0.0000       4.074274       110.8666 
  41   0.0000       4.734988       128.8456 
  42   0.0000      10.271381       279.4985 
  43   0.0000      26.235426       713.9022 
  44   0.0000      26.235426       713.9022 
  45   0.0000      27.652065       752.4509 
  46   0.0000     219.061677      5960.9713 
------------------
MOLECULAR ORBITALS
------------------
                      0         1         2         3         4         5   
                 -104.85011 -10.57641  -8.04437  -8.04207  -8.04207  -1.11999
                   1.00000   1.00000   1.00000   1.00000   1.00000   1.00000
                  --------  --------  --------  --------  --------  --------
  0Cl  1s        -0.411733 -0.121941 -0.000540  0.000000  0.000000 -0.034750
  0Cl  2s        -0.654663 -0.331489 -0.001511  0.000000  0.000000 -0.100523
  0Cl  3s        -0.012082  0.511824  0.002922 -0.000000 -0.000000  0.198380
  0Cl  4s         0.000905  0.605734  0.002142 -0.000000 -0.000000  0.397871
  0Cl  5s        -0.000192  0.042040 -0.000905 -0.000000 -0.000000 -0.599052
  0Cl  6s         0.000022 -0.008171  0.001760 -0.000000 -0.000000 -0.516131
  0Cl  1pz        0.000167 -0.004695  1.230003 -0.000000 -0.000000 -0.041912
  0Cl  1px        0.000000  0.000000  0.000000 -0.037529  1.230764  0.000000
  0Cl  1py       -0.000000 -0.000000 -0.000000 -1.230764 -0.037529 -0.000000
  0Cl  2pz        0.000112 -0.001361  0.327006 -0.000000 -0.000000 -0.010818
  0Cl  2px        0.000000  0.000000  0.000000 -0.009976  0.327155  0.000000
  0Cl  2py       -0.000000 -0.000000 -0.000000 -0.327155 -0.009976 -0.000000
  0Cl  3pz       -0.000130  0.000139  0.051955 -0.000000 -0.000000  0.026209
  0Cl  3px       -0.000000  0.000000  0.000000 -0.001501  0.049235 -0.000000
  0Cl  3py        0.000000  0.000000 -0.000000 -0.049235 -0.001501  0.000000
  0Cl  4pz        0.000155 -0.002913 -0.004354  0.000000  0.000000  0.050337
  0Cl  4px        0.000000 -0.000000 -0.000000  0.000067 -0.002210  0.000000
  0Cl  4py       -0.000000 -0.000000 -0.000000  0.002210  0.000067 -0.000000
  0Cl  5pz       -0.000017  0.001627  0.000479  0.000000 -0.000000  0.018057
  0Cl  5px        0.000000  0.000000  0.000000 -0.000020  0.000657 -0.000000
  0Cl  5py        0.000000  0.000000  0.000000 -0.000657 -0.000020  0.000000
  0Cl  1dz2      -0.000001  0.000570 -0.000690  0.000000  0.000000 -0.012259
  0Cl  1dxz       0.000000 -0.000000 -0.000000  0.000018 -0.000593 -0.000000
  0Cl  1dyz       0.000000 -0.000000  0.000000  0.000593  0.000018  0.000000
  0Cl  1dx2y2    -0.000000 -0.000000 -0.000000  0.000000 -0.000000  0.000000
  0Cl  1dxy       0.000000  0.000000  0.000000 -0.000000 -0.000000  0.000000
  0Cl  2dz2      -0.000053  0.000897  0.000829 -0.000000 -0.000000 -0.018500
  0Cl  2dxz      -0.000000 -0.000000  0.000000 -0.000008  0.000246  0.000000
  0Cl  2dyz      -0.000000  0.000000  0.000000 -0.000246 -0.000008  0.000000
  0Cl  2dx2y2    -0.000000 -0.000000  0.000000 -0.000000  0.000000 -0.000000
  0Cl  2dxy      -0.000000 -0.000000 -0.000000  0.000000 -0.000000 -0.000000
  0Cl  1f0        0.000017 -0.000666  0.000109  0.000000 -0.000000  0.007258
  0Cl  1f+1       0.000000  0.000000  0.000000 -0.000004  0.000116  0.000000
  0Cl  1f-1       0.000000 -0.000000 -0.000000 -0.000116 -0.000004 -0.000000
  0Cl  1f+2      -0.000000  0.000000 -0.000000 -0.000000 -0.000000 -0.000000
  0Cl  1f-2       0.000000  0.000000  0.000000 -0.000000  0.000000  0.000000
  0Cl  1f+3      -0.000000  0.000000  0.000000 -0.000000  0.000000 -0.000000
  0Cl  1f-3      -0.000000  0.000000 -0.000000  0.000000 -0.000000 -0.000000
  1H   1s         0.000003  0.000128 -0.000288  0.000000  0.000000 -0.087382
  1H   2s         0.000117 -0.002768 -0.002090  0.000000  0.000000 -0.096461
  1H   3s        -0.000026  0.003088 -0.000152  0.000000  0.000000  0.004679
  1H   1pz        0.000017 -0.000787  0.000072  0.000000 -0.000000 -0.012898
  1H   1px        0.000000  0.000000 -0.000000 -0.000001  0.000019  0.000000
  1H   1py       -0.000000 -0.000000  0.000000 -0.000019 -0.000001 -0.000000
  1H   2pz        0.000064 -0.001398 -0.001315  0.000000  0.000000 -0.014231
  1H   2px       -0.000000  0.000000  0.000000 -0.000003  0.000108 -0.000000
  1H   2py       -0.000000  0.000000  0.000000 -0.000108 -0.000003  0.000000
                      6         7         8         9        10        11   
                  -0.62870  -0.47884  -0.47884   0.12497   0.31061   0.41632
                   1.00000   1.00000   1.00000   0.00000   0.00000   0.00000
                  --------  --------  --------  --------  --------  --------
  0Cl  1s        -0.010346 -0.000000  0.000000 -0.010678  0.002711  0.000000
  0Cl  2s        -0.030222 -0.000000  0.000000 -0.031909  0.008123  0.000000
  0Cl  3s         0.062218  0.000000 -0.000000  0.071593 -0.018497 -0.000000
  0Cl  4s         0.118233  0.000000 -0.000000  0.104335 -0.025784 -0.000000
  0Cl  5s        -0.188198  0.000000  0.000000 -0.064224 -0.015061  0.000000
  0Cl  6s        -0.255728  0.000000  0.000000 -1.136494  0.214982  0.000000
  0Cl  1pz        0.278834  0.000000 -0.000000 -0.126015  0.007750 -0.000000
  0Cl  1px        0.000000  0.060069  0.329379  0.000000  0.000000 -0.009908
  0Cl  1py        0.000000  0.329379 -0.060069  0.000000 -0.000000  0.187326
  0Cl  2pz        0.067823  0.000000 -0.000000 -0.029809  0.004217 -0.000000
  0Cl  2px        0.000000  0.014335  0.078605  0.000000  0.000000 -0.001581
  0Cl  2py        0.000000  0.078605 -0.014335  0.000000  0.000000  0.029893
  0Cl  3pz       -0.195489 -0.000000  0.000000  0.088004 -0.014765  0.000000
  0Cl  3px       -0.000000 -0.043218 -0.236977 -0.000000 -0.000000  0.002312
  0Cl  3py        0.000000 -0.236977  0.043218 -0.000000 -0.000000 -0.043705
  0Cl  4pz       -0.450461 -0.000000  0.000000  0.285151  0.055625  0.000000
  0Cl  4px       -0.000000 -0.106853 -0.585913  0.000000  0.000000  0.051091
  0Cl  4py        0.000000 -0.585913  0.106853 -0.000000  0.000000 -0.965946
  0Cl  5pz       -0.177123 -0.000000  0.000000  0.872633 -0.889530 -0.000000
  0Cl  5px       -0.000000 -0.059392 -0.325669 -0.000000 -0.000000 -0.067110
  0Cl  5py        0.000000 -0.325669  0.059392 -0.000000 -0.000000  1.268799
  0Cl  1dz2       0.033679 -0.000000 -0.000000  0.027320 -0.095112  0.000000
  0Cl  1dxz      -0.000000  0.000808  0.004433 -0.000000 -0.000000 -0.000476
  0Cl  1dyz      -0.000000  0.004433 -0.000808  0.000000  0.000000  0.009005
  0Cl  1dx2y2     0.000000  0.000000  0.000000  0.000000  0.000000 -0.000000
  0Cl  1dxy       0.000000  0.000000 -0.000000  0.000000 -0.000000 -0.000000
  0Cl  2dz2       0.058540  0.000000  0.000000  0.005912 -0.142699  0.000000
  0Cl  2dxz       0.000000  0.002352  0.012898 -0.000000  0.000000 -0.000026
  0Cl  2dyz      -0.000000  0.012898 -0.002352  0.000000 -0.000000  0.000489
  0Cl  2dx2y2    -0.000000 -0.000000  0.000000  0.000000  0.000000  0.000000
  0Cl  2dxy      -0.000000 -0.000000 -0.000000  0.000000  0.000000 -0.000000
  0Cl  1f0       -0.014242 -0.000000 -0.000000  0.004383 -0.012931 -0.000000
  0Cl  1f+1       0.000000 -0.001270 -0.006962 -0.000000 -0.000000 -0.000033
  0Cl  1f-1      -0.000000 -0.006962  0.001270 -0.000000  0.000000  0.000630
  0Cl  1f+2      -0.000000 -0.000000  0.000000  0.000000 -0.000000  0.000000
  0Cl  1f-2      -0.000000 -0.000000 -0.000000  0.000000 -0.000000  0.000000
  0Cl  1f+3      -0.000000  0.000000  0.000000  0.000000  0.000000 -0.000000
  0Cl  1f-3       0.000000 -0.000000  0.000000  0.000000  0.000000 -0.000000
  1H   1s         0.151445 -0.000000 -0.000000  0.078041 -0.089945  0.000000
  1H   2s         0.265152 -0.000000 -0.000000  0.118576 -1.138499 -0.000000
  1H   3s         0.043242 -0.000000  0.000000  1.774563  0.676109 -0.000000
  1H   1pz        0.012235  0.000000 -0.000000 -0.013290 -0.022690  0.000000
  1H   1px       -0.000000 -0.000982 -0.005387 -0.000000  0.000000 -0.000353
  1H   1py       -0.000000 -0.005387  0.000982  0.000000  0.000000  0.006665
  1H   2pz        0.014071 -0.000000 -0.000000  0.080800 -0.017390 -0.000000
  1H   2px       -0.000000 -0.004913 -0.026942  0.000000  0.000000  0.003527
  1H   2py        0.000000 -0.026942  0.004913 -0.000000 -0.000000 -0.066678
                     12        13        14        15        16        17   
                   0.41632   0.43162   0.55787   0.55787   0.66406   0.66406
                   0.00000   0.00000   0.00000   0.00000   0.00000   0.00000
                  --------  --------  --------  --------  --------  --------
  0Cl  1s        -0.000000 -0.003830  0.000000  0.000000 -0.000000 -0.000000
  0Cl  2s        -0.000000 -0.010891  0.000000  0.000000 -0.000000 -0.000000
  0Cl  3s         0.000000  0.020045 -0.000000 -0.000000  0.000000  0.000000
  0Cl  4s         0.000000  0.057922 -0.000000  0.000000  0.000000  0.000000
  0Cl  5s        -0.000000 -0.071320  0.000000  0.000000 -0.000000 -0.000000
  0Cl  6s        -0.000000 -0.832952 -0.000000 -0.000000  0.000000  0.000000
  0Cl  1pz        0.000000  0.227791  0.000000  0.000000 -0.000000 -0.000000
  0Cl  1px        0.187326 -0.000000 -0.001483  0.030551 -0.000000  0.000000
  0Cl  1py        0.009908  0.000000 -0.030551 -0.001483 -0.000000  0.000000
  0Cl  2pz        0.000000  0.046226  0.000000  0.000000 -0.000000 -0.000000
  0Cl  2px        0.029893  0.000000 -0.000261  0.005375 -0.000000  0.000000
  0Cl  2py        0.001581  0.000000 -0.005375 -0.000261 -0.000000  0.000000
  0Cl  3pz       -0.000000 -0.131811 -0.000000 -0.000000  0.000000  0.000000
  0Cl  3px       -0.043705  0.000000  0.000488 -0.010049  0.000000 -0.000000
  0Cl  3py       -0.002312 -0.000000  0.010049  0.000488  0.000000 -0.000000
  0Cl  4pz       -0.000000 -0.646588 -0.000000  0.000000 -0.000000 -0.000000
  0Cl  4px       -0.965946  0.000000  0.007105 -0.146385  0.000000  0.000000
  0Cl  4py       -0.051091 -0.000000  0.146385  0.007105  0.000000  0.000000
  0Cl  5pz        0.000000  1.455419  0.000000  0.000000 -0.000000 -0.000000
  0Cl  5px        1.268799 -0.000000  0.005025 -0.103531 -0.000000  0.000000
  0Cl  5py        0.067110  0.000000  0.103531  0.005025  0.000000 -0.000000
  0Cl  1dz2      -0.000000 -0.036189  0.000000  0.000000 -0.000000 -0.000000
  0Cl  1dxz       0.009005  0.000000  0.007482 -0.154146  0.000000 -0.000000
  0Cl  1dyz       0.000476  0.000000  0.154146  0.007482  0.000000 -0.000000
  0Cl  1dx2y2    -0.000000  0.000000 -0.000000  0.000000  0.145753  0.109653
  0Cl  1dxy      -0.000000 -0.000000 -0.000000  0.000000  0.109653 -0.145753
  0Cl  2dz2      -0.000000 -0.396407 -0.000000 -0.000000  0.000000  0.000000
  0Cl  2dxz       0.000489  0.000000  0.028770 -0.592718  0.000000 -0.000000
  0Cl  2dyz       0.000026 -0.000000  0.592718  0.028770  0.000000 -0.000000
  0Cl  2dx2y2    -0.000000  0.000000 -0.000000  0.000000  0.721760  0.542992
  0Cl  2dxy       0.000000  0.000000 -0.000000  0.000000  0.542992 -0.721760
  0Cl  1f0        0.000000  0.035026  0.000000  0.000000 -0.000000 -0.000000
  0Cl  1f+1       0.000630  0.000000  0.000457 -0.009422  0.000000  0.000000
  0Cl  1f-1       0.000033 -0.000000  0.009422  0.000457  0.000000 -0.000000
  0Cl  1f+2      -0.000000  0.000000 -0.000000  0.000000 -0.006745 -0.005074
  0Cl  1f-2       0.000000 -0.000000 -0.000000  0.000000 -0.005074  0.006745
  0Cl  1f+3       0.000000  0.000000 -0.000000  0.000000 -0.000000 -0.000000
  0Cl  1f-3      -0.000000  0.000000  0.000000 -0.000000 -0.000000 -0.000000
  1H   1s        -0.000000 -0.103844  0.000000 -0.000000  0.000000  0.000000
  1H   2s        -0.000000 -0.061215  0.000000  0.000000 -0.000000 -0.000000
  1H   3s         0.000000  1.266506 -0.000000  0.000000 -0.000000 -0.000000
  1H   1pz       -0.000000 -0.016761  0.000000 -0.000000 -0.000000 -0.000000
  1H   1px        0.006665  0.000000  0.001462 -0.030125  0.000000 -0.000000
  1H   1py        0.000353  0.000000  0.030125  0.001462  0.000000 -0.000000
  1H   2pz        0.000000  0.462617  0.000000  0.000000 -0.000000 -0.000000
  1H   2px       -0.066678 -0.000000 -0.025573  0.526856 -0.000000  0.000000
  1H   2py       -0.003527 -0.000000 -0.526856 -0.025573 -0.000000  0.000000
                     18        19        20        21        22        23   
                   0.84879   1.02055   1.05716   1.05716   1.48402   2.15796
                   0.00000   0.00000   0.00000   0.00000   0.00000   0.00000
                  --------  --------  --------  --------  --------  --------
  0Cl  1s        -0.019048  0.028209 -0.000000 -0.000000 -0.006001  0.001737
  0Cl  2s        -0.052556  0.076777 -0.000000 -0.000000 -0.017130  0.004257
  0Cl  3s         0.081730 -0.109228  0.000000  0.000000  0.031898 -0.001448
  0Cl  4s         0.356648 -0.578950  0.000000  0.000000  0.097286 -0.056792
  0Cl  5s        -1.270600  2.165728 -0.000000 -0.000000  0.164236  0.032102
  0Cl  6s         2.114134 -2.779720  0.000000  0.000000 -3.712591  1.233374
  0Cl  1pz       -0.068079  0.019469 -0.000000 -0.000000 -0.225218  0.194977
  0Cl  1px        0.000000 -0.000000 -0.021370 -0.030589  0.000000  0.000000
  0Cl  1py       -0.000000 -0.000000 -0.030589  0.021370 -0.000000 -0.000000
  0Cl  2pz       -0.024720  0.009898 -0.000000 -0.000000 -0.045527  0.063938
  0Cl  2px        0.000000 -0.000000 -0.004244 -0.006075  0.000000  0.000000
  0Cl  2py       -0.000000 -0.000000 -0.006075  0.004244  0.000000 -0.000000
  0Cl  3pz        0.151757 -0.074906  0.000000  0.000000  0.083399 -0.356913
  0Cl  3px       -0.000000  0.000000  0.010303  0.014747 -0.000000 -0.000000
  0Cl  3py        0.000000  0.000000  0.014747 -0.010303  0.000000  0.000000
  0Cl  4pz       -0.469409  0.226637  0.000000  0.000000  2.382991 -0.540087
  0Cl  4px        0.000000  0.000000  0.110636  0.158367 -0.000000  0.000000
  0Cl  4py        0.000000 -0.000000  0.158367 -0.110636 -0.000000 -0.000000
  0Cl  5pz       -0.305643  1.011293 -0.000000 -0.000000  1.021661 -0.570435
  0Cl  5px       -0.000000  0.000000  0.192268  0.275218 -0.000000 -0.000000
  0Cl  5py        0.000000 -0.000000  0.275218 -0.192268  0.000000  0.000000
  0Cl  1dz2      -0.153359 -0.103108  0.000000  0.000000 -0.066483  0.124122
  0Cl  1dxz       0.000000 -0.000000 -0.080368 -0.115042  0.000000 -0.000000
  0Cl  1dyz      -0.000000  0.000000 -0.115042  0.080368  0.000000 -0.000000
  0Cl  1dx2y2    -0.000000  0.000000 -0.000000 -0.000000  0.000000 -0.000000
  0Cl  1dxy       0.000000  0.000000  0.000000  0.000000  0.000000 -0.000000
  0Cl  2dz2      -0.396507 -0.781030  0.000000  0.000000 -1.613342  0.451491
  0Cl  2dxz       0.000000 -0.000000 -0.505860 -0.724102  0.000000  0.000000
  0Cl  2dyz      -0.000000  0.000000 -0.724102  0.505860 -0.000000  0.000000
  0Cl  2dx2y2    -0.000000  0.000000 -0.000000  0.000000 -0.000000  0.000000
  0Cl  2dxy      -0.000000  0.000000  0.000000  0.000000 -0.000000  0.000000
  0Cl  1f0       -0.058767  0.041754  0.000000 -0.000000  0.066170 -0.760605
  0Cl  1f+1      -0.000000  0.000000 -0.003374 -0.004829  0.000000  0.000000
  0Cl  1f-1      -0.000000 -0.000000 -0.004829  0.003374 -0.000000  0.000000
  0Cl  1f+2      -0.000000  0.000000 -0.000000  0.000000  0.000000  0.000000
  0Cl  1f-2       0.000000 -0.000000 -0.000000  0.000000  0.000000 -0.000000
  0Cl  1f+3      -0.000000  0.000000 -0.000000 -0.000000  0.000000 -0.000000
  0Cl  1f-3      -0.000000 -0.000000  0.000000 -0.000000 -0.000000  0.000000
  1H   1s         0.054483 -0.077141  0.000000  0.000000  0.118099  0.868609
  1H   2s         0.329381  1.276479 -0.000000 -0.000000  3.161434 -2.402334
  1H   3s        -1.383483  0.735516 -0.000000 -0.000000  1.213803  0.124669
  1H   1pz        0.004737  0.053566 -0.000000 -0.000000 -0.097175  0.058114
  1H   1px       -0.000000  0.000000  0.043614  0.062430 -0.000000  0.000000
  1H   1py        0.000000 -0.000000  0.062430 -0.043614 -0.000000 -0.000000
  1H   2pz       -0.870652  0.044602  0.000000  0.000000  2.850397 -0.908438
  1H   2px        0.000000 -0.000000 -0.707310 -1.012464  0.000000 -0.000000
  1H   2py       -0.000000  0.000000 -1.012464  0.707310 -0.000000  0.000000
                     24        25        26        27        28        29   
                   2.36319   2.36319   2.38537   2.38537   2.42701   2.42701
                   0.00000   0.00000   0.00000   0.00000   0.00000   0.00000
                  --------  --------  --------  --------  --------  --------
  0Cl  1s         0.000000 -0.000000 -0.000000  0.000000 -0.000000 -0.000000
  0Cl  2s         0.000000 -0.000000 -0.000000  0.000000 -0.000000 -0.000000
  0Cl  3s        -0.000000  0.000000 -0.000000 -0.000000  0.000000  0.000000
  0Cl  4s        -0.000000  0.000000  0.000000  0.000000  0.000000  0.000000
  0Cl  5s         0.000000 -0.000000 -0.000000  0.000000 -0.000000 -0.000000
  0Cl  6s         0.000000 -0.000000 -0.000000 -0.000000 -0.000000 -0.000000
  0Cl  1pz       -0.000000  0.000000  0.000000  0.000000  0.000000 -0.000000
  0Cl  1px       -0.000000 -0.000000  0.000000 -0.000000  0.403116 -0.241881
  0Cl  1py        0.000000 -0.000000  0.000000 -0.000000 -0.241881 -0.403116
  0Cl  2pz       -0.000000  0.000000  0.000000  0.000000  0.000000 -0.000000
  0Cl  2px       -0.000000 -0.000000  0.000000 -0.000000  0.134094 -0.080460
  0Cl  2py        0.000000 -0.000000  0.000000 -0.000000 -0.080460 -0.134094
  0Cl  3pz        0.000000 -0.000000 -0.000000 -0.000000 -0.000000  0.000000
  0Cl  3px        0.000000  0.000000 -0.000000  0.000000 -0.970247  0.582175
  0Cl  3py       -0.000000  0.000000 -0.000000  0.000000  0.582175  0.970247
  0Cl  4pz       -0.000000  0.000000  0.000000  0.000000  0.000000 -0.000000
  0Cl  4px       -0.000000 -0.000000  0.000000 -0.000000  0.891102 -0.534686
  0Cl  4py       -0.000000 -0.000000  0.000000 -0.000000 -0.534686 -0.891102
  0Cl  5pz       -0.000000  0.000000 -0.000000  0.000000  0.000000  0.000000
  0Cl  5px        0.000000  0.000000 -0.000000  0.000000 -0.359734  0.215851
  0Cl  5py       -0.000000  0.000000 -0.000000  0.000000  0.215851  0.359734
  0Cl  1dz2       0.000000 -0.000000 -0.000000 -0.000000  0.000000  0.000000
  0Cl  1dxz      -0.000000 -0.000000  0.000000 -0.000000  0.217682 -0.130615
  0Cl  1dyz       0.000000 -0.000000  0.000000 -0.000000 -0.130615 -0.217682
  0Cl  1dx2y2    -0.003488  0.001925 -0.000000  0.000000 -0.000000 -0.000000
  0Cl  1dxy      -0.001925 -0.003488 -0.000000 -0.000000 -0.000000  0.000000
  0Cl  2dz2       0.000000 -0.000000 -0.000000 -0.000000 -0.000000 -0.000000
  0Cl  2dxz      -0.000000  0.000000 -0.000000  0.000000 -0.032833  0.019701
  0Cl  2dyz      -0.000000  0.000000 -0.000000  0.000000  0.019701  0.032833
  0Cl  2dx2y2    -0.005382  0.002970  0.000000 -0.000000  0.000000 -0.000000
  0Cl  2dxy      -0.002970 -0.005382  0.000000  0.000000  0.000000 -0.000000
  0Cl  1f0       -0.000000  0.000000  0.000000  0.000000  0.000000  0.000000
  0Cl  1f+1       0.000000  0.000000 -0.000000  0.000000 -0.671065  0.402658
  0Cl  1f-1      -0.000000  0.000000 -0.000000  0.000000  0.402658  0.671065
  0Cl  1f+2      -0.875512  0.483118 -0.000000 -0.000000 -0.000000 -0.000000
  0Cl  1f-2      -0.483118 -0.875512 -0.000000 -0.000000 -0.000000  0.000000
  0Cl  1f+3      -0.000000  0.000000  0.729700 -0.683767 -0.000000  0.000000
  0Cl  1f-3      -0.000000  0.000000  0.683767  0.729700 -0.000000  0.000000
  1H   1s         0.000000 -0.000000 -0.000000 -0.000000 -0.000000 -0.000000
  1H   2s        -0.000000  0.000000  0.000000  0.000000  0.000000  0.000000
  1H   3s         0.000000 -0.000000 -0.000000  0.000000  0.000000  0.000000
  1H   1pz        0.000000 -0.000000  0.000000 -0.000000  0.000000  0.000000
  1H   1px        0.000000  0.000000 -0.000000  0.000000 -0.096942  0.058168
  1H   1py       -0.000000  0.000000 -0.000000  0.000000  0.058168  0.096942
  1H   2pz       -0.000000  0.000000  0.000000  0.000000  0.000000  0.000000
  1H   2px       -0.000000 -0.000000  0.000000 -0.000000  0.247925 -0.148762
  1H   2py        0.000000 -0.000000  0.000000 -0.000000 -0.148762 -0.247925
                     30        31        32        33        34        35   
                   2.47601   2.47601   2.68974   2.72940   2.72940   2.77247
                   0.00000   0.00000   0.00000   0.00000   0.00000   0.00000
                  --------  --------  --------  --------  --------  --------
  0Cl  1s         0.000000 -0.000000  0.003351  0.000000 -0.000000  0.005337
  0Cl  2s         0.000000 -0.000000  0.010166  0.000000  0.000000  0.015575
  0Cl  3s        -0.000000 -0.000000 -0.023728 -0.000000 -0.000000 -0.032132
  0Cl  4s        -0.000000  0.000000 -0.051169 -0.000000  0.000000 -0.091350
  0Cl  5s         0.000000 -0.000000  0.160237  0.000000  0.000000  0.085818
  0Cl  6s         0.000000  0.000000  0.656457  0.000000 -0.000000  1.858132
  0Cl  1pz        0.000000 -0.000000 -0.511665 -0.000000 -0.000000 -0.338647
  0Cl  1px       -0.267222 -0.567682  0.000000 -0.000000  0.000000 -0.000000
  0Cl  1py        0.567682 -0.267222  0.000000  0.000000  0.000000 -0.000000
  0Cl  2pz        0.000000 -0.000000 -0.169374 -0.000000 -0.000000 -0.117851
  0Cl  2px       -0.088282 -0.187545  0.000000 -0.000000  0.000000 -0.000000
  0Cl  2py        0.187545 -0.088282  0.000000  0.000000  0.000000 -0.000000
  0Cl  3pz       -0.000000  0.000000  1.347542  0.000000  0.000000  1.056943
  0Cl  3px        0.652733  1.386655 -0.000000  0.000000 -0.000000  0.000000
  0Cl  3py       -1.386655  0.652733 -0.000000 -0.000000 -0.000000  0.000000
  0Cl  4pz        0.000000 -0.000000 -1.928773 -0.000000  0.000000 -2.438525
  0Cl  4px       -0.632145 -1.342918  0.000000 -0.000000  0.000000 -0.000000
  0Cl  4py        1.342918 -0.632145  0.000000  0.000000  0.000000 -0.000000
  0Cl  5pz       -0.000000 -0.000000  0.328822  0.000000  0.000000 -0.321847
  0Cl  5px        0.156122  0.331663 -0.000000  0.000000 -0.000000 -0.000000
  0Cl  5py       -0.331663  0.156122 -0.000000 -0.000000  0.000000  0.000000
  0Cl  1dz2      -0.000000  0.000000  0.824565  0.000000  0.000000 -0.445070
  0Cl  1dxz       0.124645  0.264794 -0.000000 -0.000000  0.000000 -0.000000
  0Cl  1dyz      -0.264794  0.124645 -0.000000 -0.000000 -0.000000  0.000000
  0Cl  1dx2y2    -0.000000 -0.000000 -0.000000  0.155968  1.098980  0.000000
  0Cl  1dxy       0.000000 -0.000000  0.000000 -1.098980  0.155968  0.000000
  0Cl  2dz2       0.000000 -0.000000 -0.180363 -0.000000 -0.000000  1.183844
  0Cl  2dxz      -0.015147 -0.032179  0.000000 -0.000000  0.000000  0.000000
  0Cl  2dyz       0.032179 -0.015147  0.000000  0.000000 -0.000000 -0.000000
  0Cl  2dx2y2     0.000000  0.000000  0.000000 -0.094212 -0.663834 -0.000000
  0Cl  2dxy      -0.000000  0.000000 -0.000000  0.663834 -0.094212 -0.000000
  0Cl  1f0        0.000000 -0.000000 -0.057012  0.000000 -0.000000  0.244161
  0Cl  1f+1      -0.238324 -0.506291 -0.000000  0.000000 -0.000000 -0.000000
  0Cl  1f-1       0.506291 -0.238324 -0.000000  0.000000  0.000000 -0.000000
  0Cl  1f+2      -0.000000 -0.000000  0.000000 -0.000309 -0.002180  0.000000
  0Cl  1f-2      -0.000000  0.000000  0.000000  0.002180 -0.000309  0.000000
  0Cl  1f+3       0.000000  0.000000 -0.000000  0.000000  0.000000  0.000000
  0Cl  1f-3       0.000000  0.000000  0.000000 -0.000000  0.000000  0.000000
  1H   1s         0.000000 -0.000000  0.087972  0.000000 -0.000000  1.192566
  1H   2s        -0.000000  0.000000 -0.883773 -0.000000  0.000000 -3.496469
  1H   3s         0.000000 -0.000000 -0.030923 -0.000000 -0.000000  0.155294
  1H   1pz       -0.000000  0.000000  0.135248  0.000000  0.000000 -0.198340
  1H   1px       -0.051625 -0.109670 -0.000000  0.000000 -0.000000  0.000000
  1H   1py        0.109670 -0.051625 -0.000000  0.000000  0.000000 -0.000000
  1H   2pz       -0.000000 -0.000000 -0.845332 -0.000000  0.000000 -1.335258
  1H   2px        0.146789  0.311836  0.000000 -0.000000  0.000000  0.000000
  1H   2py       -0.311836  0.146789 -0.000000  0.000000 -0.000000  0.000000
                     36        37        38        39        40        41   
                   2.85885   2.85885   3.56121   4.07427   4.07427   4.73499
                   0.00000   0.00000   0.00000   0.00000   0.00000   0.00000
                  --------  --------  --------  --------  --------  --------
  0Cl  1s        -0.000000 -0.000000 -0.000854 -0.000000 -0.000000 -0.012515
  0Cl  2s        -0.000000 -0.000000 -0.003705 -0.000000 -0.000000 -0.046157
  0Cl  3s         0.000000  0.000000  0.018611  0.000000  0.000000  0.186588
  0Cl  4s         0.000000  0.000000 -0.028041  0.000000 -0.000000 -0.099904
  0Cl  5s        -0.000000 -0.000000  0.448930 -0.000000  0.000000  0.275927
  0Cl  6s        -0.000000 -0.000000 -2.762239  0.000000 -0.000000 -1.231549
  0Cl  1pz        0.000000  0.000000  0.446717 -0.000000  0.000000  0.132242
  0Cl  1px       -0.008333 -0.064331  0.000000 -0.009001  0.028173 -0.000000
  0Cl  1py       -0.064331  0.008333 -0.000000  0.028173  0.009001  0.000000
  0Cl  2pz        0.000000  0.000000  0.139583  0.000000 -0.000000  0.066155
  0Cl  2px       -0.002694 -0.020794  0.000000 -0.003361  0.010519  0.000000
  0Cl  2py       -0.020794  0.002694  0.000000  0.010519  0.003361  0.000000
  0Cl  3pz       -0.000000 -0.000000 -1.465258  0.000000 -0.000000 -0.690708
  0Cl  3px        0.023455  0.181069  0.000000  0.027537 -0.086189  0.000000
  0Cl  3py        0.181069 -0.023455  0.000000 -0.086189 -0.027537 -0.000000
  0Cl  4pz        0.000000  0.000000  2.952227  0.000000  0.000000  1.662784
  0Cl  4px       -0.031492 -0.243114 -0.000000 -0.019378  0.060652 -0.000000
  0Cl  4py       -0.243114  0.031492 -0.000000  0.060652  0.019378  0.000000
  0Cl  5pz        0.000000  0.000000  0.490896 -0.000000  0.000000  0.203351
  0Cl  5px       -0.011333 -0.087487 -0.000000  0.045144 -0.141294  0.000000
  0Cl  5py       -0.087487  0.011333  0.000000 -0.141294 -0.045144  0.000000
  0Cl  1dz2      -0.000000  0.000000  0.681953 -0.000000  0.000000  0.049965
  0Cl  1dxz      -0.135357 -1.044932 -0.000000  0.002916 -0.009127 -0.000000
  0Cl  1dyz      -1.044932  0.135357  0.000000 -0.009127 -0.002916  0.000000
  0Cl  1dx2y2     0.000000 -0.000000 -0.000000  0.000000 -0.000000 -0.000000
  0Cl  1dxy       0.000000 -0.000000  0.000000  0.000000  0.000000 -0.000000
  0Cl  2dz2      -0.000000 -0.000000 -1.699264 -0.000000 -0.000000 -1.111245
  0Cl  2dxz       0.113660  0.877429  0.000000 -0.013072  0.040913  0.000000
  0Cl  2dyz       0.877429 -0.113660 -0.000000  0.040913  0.013072 -0.000000
  0Cl  2dx2y2    -0.000000  0.000000  0.000000 -0.000000  0.000000  0.000000
  0Cl  2dxy      -0.000000  0.000000 -0.000000 -0.000000 -0.000000  0.000000
  0Cl  1f0        0.000000 -0.000000  0.761397  0.000000  0.000000  0.829003
  0Cl  1f+1      -0.053365 -0.411968 -0.000000 -0.073229  0.229199  0.000000
  0Cl  1f-1      -0.411968  0.053365  0.000000  0.229199  0.073229 -0.000000
  0Cl  1f+2      -0.000000 -0.000000 -0.000000 -0.000000  0.000000  0.000000
  0Cl  1f-2       0.000000  0.000000  0.000000  0.000000 -0.000000  0.000000
  0Cl  1f+3       0.000000  0.000000 -0.000000  0.000000 -0.000000 -0.000000
  0Cl  1f-3       0.000000 -0.000000  0.000000  0.000000  0.000000  0.000000
  1H   1s        -0.000000 -0.000000  0.623235 -0.000000  0.000000  0.451074
  1H   2s         0.000000  0.000000  2.294523  0.000000  0.000000  1.548747
  1H   3s         0.000000 -0.000000  0.707766 -0.000000  0.000000 -0.050965
  1H   1pz        0.000000  0.000000 -0.203409  0.000000  0.000000  1.417202
  1H   1px       -0.007580 -0.058518  0.000000  0.375865 -1.176413  0.000000
  1H   1py       -0.058518  0.007580 -0.000000 -1.176413 -0.375865  0.000000
  1H   2pz        0.000000  0.000000  1.739236 -0.000000  0.000000  0.084660
  1H   2px        0.066043  0.509836  0.000000 -0.202663  0.634311 -0.000000
  1H   2py        0.509836 -0.066043  0.000000  0.634311  0.202663 -0.000000
                     42        43        44        45        46   
                  10.27138  26.23543  26.23543  27.65207 219.06168
                   0.00000   0.00000   0.00000   0.00000   0.00000
                  --------  --------  --------  --------  --------
  0Cl  1s        -0.115429 -0.000000 -0.000000 -0.002838 -1.542049
  0Cl  2s        -0.480449  0.000000 -0.000000 -0.008756  1.914657
  0Cl  3s         2.642649 -0.000000  0.000000  0.065815 -1.436833
  0Cl  4s        -3.089428  0.000000 -0.000000 -0.104828  0.961407
  0Cl  5s         1.618615 -0.000000 -0.000000 -0.063143 -0.372087
  0Cl  6s        -0.494192 -0.000000  0.000000  1.195120  0.128161
  0Cl  1pz       -0.005536 -0.000000 -0.000000 -3.537165  0.021119
  0Cl  1px       -0.000000  0.423070 -3.332393  0.000000  0.000000
  0Cl  1py       -0.000000 -3.332393 -0.423070  0.000000  0.000000
  0Cl  2pz        0.017747 -0.000000 -0.000000 -3.534905  0.017843
  0Cl  2px        0.000000  0.428634 -3.376221  0.000000  0.000000
  0Cl  2py       -0.000000 -3.376221 -0.428634  0.000000  0.000000
  0Cl  3pz        0.159749  0.000000  0.000000  2.742071 -0.039818
  0Cl  3px       -0.000000 -0.292175  2.301374 -0.000000 -0.000000
  0Cl  3py        0.000000  2.301374  0.292175 -0.000000 -0.000000
  0Cl  4pz       -0.501080 -0.000000 -0.000000 -2.256269  0.094030
  0Cl  4px       -0.000000  0.136929 -1.078544  0.000000  0.000000
  0Cl  4py        0.000000 -1.078544 -0.136929  0.000000  0.000000
  0Cl  5pz        0.123356  0.000000  0.000000  0.022134 -0.032561
  0Cl  5px        0.000000 -0.034366  0.270692 -0.000000 -0.000000
  0Cl  5py       -0.000000  0.270692  0.034366 -0.000000 -0.000000
  0Cl  1dz2      -0.006189 -0.000000 -0.000000 -0.083465  0.000970
  0Cl  1dxz       0.000000  0.000968 -0.007628 -0.000000  0.000000
  0Cl  1dyz       0.000000 -0.007628 -0.000968  0.000000 -0.000000
  0Cl  1dx2y2     0.000000  0.000000  0.000000  0.000000 -0.000000
  0Cl  1dxy       0.000000  0.000000  0.000000 -0.000000 -0.000000
  0Cl  2dz2       0.220496  0.000000  0.000000  0.648190 -0.034730
  0Cl  2dxz      -0.000000 -0.003629  0.028584 -0.000000 -0.000000
  0Cl  2dyz      -0.000000  0.028584  0.003629 -0.000000  0.000000
  0Cl  2dx2y2    -0.000000  0.000000 -0.000000 -0.000000  0.000000
  0Cl  2dxy      -0.000000 -0.000000 -0.000000  0.000000  0.000000
  0Cl  1f0       -0.114829  0.000000 -0.000000 -0.184501  0.015836
  0Cl  1f+1      -0.000000  0.001957 -0.015416 -0.000000  0.000000
  0Cl  1f-1       0.000000 -0.015416 -0.001957  0.000000  0.000000
  0Cl  1f+2      -0.000000 -0.000000  0.000000  0.000000 -0.000000
  0Cl  1f-2       0.000000 -0.000000  0.000000 -0.000000  0.000000
  0Cl  1f+3      -0.000000  0.000000 -0.000000 -0.000000  0.000000
  0Cl  1f-3       0.000000  0.000000 -0.000000  0.000000  0.000000
  1H   1s        -0.006982  0.000000  0.000000 -0.023635 -0.002817
  1H   2s        -0.505997 -0.000000 -0.000000 -1.373037  0.089972
  1H   3s         0.276698  0.000000 -0.000000 -0.146264 -0.062785
  1H   1pz       -0.187208 -0.000000 -0.000000 -0.015460  0.023974
  1H   1px        0.000000 -0.001158  0.009123  0.000000 -0.000000
  1H   1py       -0.000000  0.009123  0.001158 -0.000000  0.000000
  1H   2pz       -0.207617  0.000000 -0.000000 -0.838657  0.043416
  1H   2px       -0.000000 -0.005770  0.045448 -0.000000 -0.000000
  1H   2py       -0.000000  0.045448  0.005770 -0.000000  0.000000

                      0         1         2         3         4         5   
                 -104.85011 -10.57641  -8.04437  -8.04207  -8.04207  -1.11999
                   1.00000   1.00000   1.00000   1.00000   1.00000   1.00000
                  --------  --------  --------  --------  --------  --------
  0Cl  1s        -0.411733 -0.121941 -0.000540  0.000000  0.000000 -0.034750
  0Cl  2s        -0.654663 -0.331489 -0.001511  0.000000  0.000000 -0.100523
  0Cl  3s        -0.012082  0.511824  0.002922 -0.000000 -0.000000  0.198380
  0Cl  4s         0.000905  0.605734  0.002142 -0.000000 -0.000000  0.397871
  0Cl  5s        -0.000192  0.042040 -0.000905 -0.000000 -0.000000 -0.599052
  0Cl  6s         0.000022 -0.008171  0.001760 -0.000000 -0.000000 -0.516131
  0Cl  1pz        0.000167 -0.004695  1.230003 -0.000000 -0.000000 -0.041912
  0Cl  1px        0.000000  0.000000  0.000000 -0.037529  1.230764  0.000000
  0Cl  1py       -0.000000 -0.000000 -0.000000 -1.230764 -0.037529 -0.000000
  0Cl  2pz        0.000112 -0.001361  0.327006 -0.000000 -0.000000 -0.010818
  0Cl  2px        0.000000  0.000000  0.000000 -0.009976  0.327155  0.000000
  0Cl  2py       -0.000000 -0.000000 -0.000000 -0.327155 -0.009976 -0.000000
  0Cl  3pz       -0.000130  0.000139  0.051955 -0.000000 -0.000000  0.026209
  0Cl  3px       -0.000000  0.000000  0.000000 -0.001501  0.049235 -0.000000
  0Cl  3py        0.000000  0.000000 -0.000000 -0.049235 -0.001501  0.000000
  0Cl  4pz        0.000155 -0.002913 -0.004354  0.000000  0.000000  0.050337
  0Cl  4px        0.000000 -0.000000 -0.000000  0.000067 -0.002210  0.000000
  0Cl  4py       -0.000000 -0.000000 -0.000000  0.002210  0.000067 -0.000000
  0Cl  5pz       -0.000017  0.001627  0.000479  0.000000 -0.000000  0.018057
  0Cl  5px        0.000000  0.000000  0.000000 -0.000020  0.000657 -0.000000
  0Cl  5py        0.000000  0.000000  0.000000 -0.000657 -0.000020  0.000000
  0Cl  1dz2      -0.000001  0.000570 -0.000690  0.000000  0.000000 -0.012259
  0Cl  1dxz       0.000000 -0.000000 -0.000000  0.000018 -0.000593 -0.000000
  0Cl  1dyz       0.000000 -0.000000  0.000000  0.000593  0.000018  0.000000
  0Cl  1dx2y2    -0.000000 -0.000000 -0.000000  0.000000 -0.000000  0.000000
  0Cl  1dxy       0.000000  0.000000  0.000000 -0.000000 -0.000000  0.000000
  0Cl  2dz2      -0.000053  0.000897  0.000829 -0.000000 -0.000000 -0.018500
  0Cl  2dxz      -0.000000 -0.000000  0.000000 -0.000008  0.000246  0.000000
  0Cl  2dyz      -0.000000  0.000000  0.000000 -0.000246 -0.000008  0.000000
  0Cl  2dx2y2    -0.000000 -0.000000  0.000000 -0.000000  0.000000 -0.000000
  0Cl  2dxy      -0.000000 -0.000000 -0.000000  0.000000 -0.000000 -0.000000
  0Cl  1f0        0.000017 -0.000666  0.000109  0.000000 -0.000000  0.007258
  0Cl  1f+1       0.000000  0.000000  0.000000 -0.000004  0.000116  0.000000
  0Cl  1f-1       0.000000 -0.000000 -0.000000 -0.000116 -0.000004 -0.000000
  0Cl  1f+2      -0.000000  0.000000 -0.000000 -0.000000 -0.000000 -0.000000
  0Cl  1f-2       0.000000  0.000000  0.000000 -0.000000  0.000000  0.000000
  0Cl  1f+3      -0.000000  0.000000  0.000000 -0.000000  0.000000 -0.000000
  0Cl  1f-3      -0.000000  0.000000 -0.000000  0.000000 -0.000000 -0.000000
  1H   1s         0.000003  0.000128 -0.000288  0.000000  0.000000 -0.087382
  1H   2s         0.000117 -0.002768 -0.002090  0.000000  0.000000 -0.096461
  1H   3s        -0.000026  0.003088 -0.000152  0.000000  0.000000  0.004679
  1H   1pz        0.000017 -0.000787  0.000072  0.000000 -0.000000 -0.012898
  1H   1px        0.000000  0.000000 -0.000000 -0.000001  0.000019  0.000000
  1H   1py       -0.000000 -0.000000  0.000000 -0.000019 -0.000001 -0.000000
  1H   2pz        0.000064 -0.001398 -0.001315  0.000000  0.000000 -0.014231
  1H   2px       -0.000000  0.000000  0.000000 -0.000003  0.000108 -0.000000
  1H   2py       -0.000000  0.000000  0.000000 -0.000108 -0.000003  0.000000
                      6         7         8         9        10        11   
                  -0.62870  -0.47884  -0.47884   0.12497   0.31061   0.41632
                   1.00000   1.00000   1.00000   0.00000   0.00000   0.00000
                  --------  --------  --------  --------  --------  --------
  0Cl  1s        -0.010346 -0.000000  0.000000 -0.010678  0.002711  0.000000
  0Cl  2s        -0.030222 -0.000000  0.000000 -0.031909  0.008123  0.000000
  0Cl  3s         0.062218  0.000000 -0.000000  0.071593 -0.018497 -0.000000
  0Cl  4s         0.118233  0.000000 -0.000000  0.104335 -0.025784 -0.000000
  0Cl  5s        -0.188198  0.000000  0.000000 -0.064224 -0.015061  0.000000
  0Cl  6s        -0.255728  0.000000  0.000000 -1.136494  0.214982  0.000000
  0Cl  1pz        0.278834  0.000000 -0.000000 -0.126015  0.007750 -0.000000
  0Cl  1px        0.000000  0.060069  0.329379  0.000000  0.000000 -0.009908
  0Cl  1py        0.000000  0.329379 -0.060069  0.000000 -0.000000  0.187326
  0Cl  2pz        0.067823  0.000000 -0.000000 -0.029809  0.004217 -0.000000
  0Cl  2px        0.000000  0.014335  0.078605  0.000000  0.000000 -0.001581
  0Cl  2py        0.000000  0.078605 -0.014335  0.000000  0.000000  0.029893
  0Cl  3pz       -0.195489 -0.000000  0.000000  0.088004 -0.014765  0.000000
  0Cl  3px       -0.000000 -0.043218 -0.236977 -0.000000 -0.000000  0.002312
  0Cl  3py        0.000000 -0.236977  0.043218 -0.000000 -0.000000 -0.043705
  0Cl  4pz       -0.450461 -0.000000  0.000000  0.285151  0.055625  0.000000
  0Cl  4px       -0.000000 -0.106853 -0.585913  0.000000  0.000000  0.051091
  0Cl  4py        0.000000 -0.585913  0.106853 -0.000000  0.000000 -0.965946
  0Cl  5pz       -0.177123 -0.000000  0.000000  0.872633 -0.889530 -0.000000
  0Cl  5px       -0.000000 -0.059392 -0.325669 -0.000000 -0.000000 -0.067110
  0Cl  5py        0.000000 -0.325669  0.059392 -0.000000 -0.000000  1.268799
  0Cl  1dz2       0.033679 -0.000000 -0.000000  0.027320 -0.095112  0.000000
  0Cl  1dxz      -0.000000  0.000808  0.004433 -0.000000 -0.000000 -0.000476
  0Cl  1dyz      -0.000000  0.004433 -0.000808  0.000000  0.000000  0.009005
  0Cl  1dx2y2     0.000000  0.000000  0.000000  0.000000  0.000000 -0.000000
  0Cl  1dxy       0.000000  0.000000 -0.000000  0.000000 -0.000000 -0.000000
  0Cl  2dz2       0.058540  0.000000  0.000000  0.005912 -0.142699  0.000000
  0Cl  2dxz       0.000000  0.002352  0.012898 -0.000000  0.000000 -0.000026
  0Cl  2dyz      -0.000000  0.012898 -0.002352  0.000000 -0.000000  0.000489
  0Cl  2dx2y2    -0.000000 -0.000000  0.000000  0.000000  0.000000  0.000000
  0Cl  2dxy      -0.000000 -0.000000 -0.000000  0.000000  0.000000 -0.000000
  0Cl  1f0       -0.014242 -0.000000 -0.000000  0.004383 -0.012931 -0.000000
  0Cl  1f+1       0.000000 -0.001270 -0.006962 -0.000000 -0.000000 -0.000033
  0Cl  1f-1      -0.000000 -0.006962  0.001270 -0.000000  0.000000  0.000630
  0Cl  1f+2      -0.000000 -0.000000  0.000000  0.000000 -0.000000  0.000000
  0Cl  1f-2      -0.000000 -0.000000 -0.000000  0.000000 -0.000000  0.000000
  0Cl  1f+3      -0.000000  0.000000  0.000000  0.000000  0.000000 -0.000000
  0Cl  1f-3       0.000000 -0.000000  0.000000  0.000000  0.000000 -0.000000
  1H   1s         0.151445 -0.000000 -0.000000  0.078041 -0.089945  0.000000
  1H   2s         0.265152 -0.000000 -0.000000  0.118576 -1.138499 -0.000000
  1H   3s         0.043242 -0.000000  0.000000  1.774563  0.676109 -0.000000
  1H   1pz        0.012235  0.000000 -0.000000 -0.013290 -0.022690  0.000000
  1H   1px       -0.000000 -0.000982 -0.005387 -0.000000  0.000000 -0.000353
  1H   1py       -0.000000 -0.005387  0.000982  0.000000  0.000000  0.006665
  1H   2pz        0.014071 -0.000000 -0.000000  0.080800 -0.017390 -0.000000
  1H   2px       -0.000000 -0.004913 -0.026942  0.000000  0.000000  0.003527
  1H   2py        0.000000 -0.026942  0.004913 -0.000000 -0.000000 -0.066678
                     12        13        14        15        16        17   
                   0.41632   0.43162   0.55787   0.55787   0.66406   0.66406
                   0.00000   0.00000   0.00000   0.00000   0.00000   0.00000
                  --------  --------  --------  --------  --------  --------
  0Cl  1s        -0.000000 -0.003830  0.000000  0.000000 -0.000000 -0.000000
  0Cl  2s        -0.000000 -0.010891  0.000000  0.000000 -0.000000 -0.000000
  0Cl  3s         0.000000  0.020045 -0.000000 -0.000000  0.000000  0.000000
  0Cl  4s         0.000000  0.057922 -0.000000  0.000000  0.000000  0.000000
  0Cl  5s        -0.000000 -0.071320  0.000000  0.000000 -0.000000 -0.000000
  0Cl  6s        -0.000000 -0.832952 -0.000000 -0.000000  0.000000  0.000000
  0Cl  1pz        0.000000  0.227791  0.000000  0.000000 -0.000000 -0.000000
  0Cl  1px        0.187326 -0.000000 -0.001483  0.030551 -0.000000  0.000000
  0Cl  1py        0.009908  0.000000 -0.030551 -0.001483 -0.000000  0.000000
  0Cl  2pz        0.000000  0.046226  0.000000  0.000000 -0.000000 -0.000000
  0Cl  2px        0.029893  0.000000 -0.000261  0.005375 -0.000000  0.000000
  0Cl  2py        0.001581  0.000000 -0.005375 -0.000261 -0.000000  0.000000
  0Cl  3pz       -0.000000 -0.131811 -0.000000 -0.000000  0.000000  0.000000
  0Cl  3px       -0.043705  0.000000  0.000488 -0.010049  0.000000 -0.000000
  0Cl  3py       -0.002312 -0.000000  0.010049  0.000488  0.000000 -0.000000
  0Cl  4pz       -0.000000 -0.646588 -0.000000  0.000000 -0.000000 -0.000000
  0Cl  4px       -0.965946  0.000000  0.007105 -0.146385  0.000000  0.000000
  0Cl  4py       -0.051091 -0.000000  0.146385  0.007105  0.000000  0.000000
  0Cl  5pz        0.000000  1.455419  0.000000  0.000000 -0.000000 -0.000000
  0Cl  5px        1.268799 -0.000000  0.005025 -0.103531 -0.000000  0.000000
  0Cl  5py        0.067110  0.000000  0.103531  0.005025  0.000000 -0.000000
  0Cl  1dz2      -0.000000 -0.036189  0.000000  0.000000 -0.000000 -0.000000
  0Cl  1dxz       0.009005  0.000000  0.007482 -0.154146  0.000000 -0.000000
  0Cl  1dyz       0.000476  0.000000  0.154146  0.007482  0.000000 -0.000000
  0Cl  1dx2y2    -0.000000  0.000000 -0.000000  0.000000  0.145753  0.109653
  0Cl  1dxy      -0.000000 -0.000000 -0.000000  0.000000  0.109653 -0.145753
  0Cl  2dz2      -0.000000 -0.396407 -0.000000 -0.000000  0.000000  0.000000
  0Cl  2dxz       0.000489  0.000000  0.028770 -0.592718  0.000000 -0.000000
  0Cl  2dyz       0.000026 -0.000000  0.592718  0.028770  0.000000 -0.000000
  0Cl  2dx2y2    -0.000000  0.000000 -0.000000  0.000000  0.721760  0.542992
  0Cl  2dxy       0.000000  0.000000 -0.000000  0.000000  0.542992 -0.721760
  0Cl  1f0        0.000000  0.035026  0.000000  0.000000 -0.000000 -0.000000
  0Cl  1f+1       0.000630  0.000000  0.000457 -0.009422  0.000000  0.000000
  0Cl  1f-1       0.000033 -0.000000  0.009422  0.000457  0.000000 -0.000000
  0Cl  1f+2      -0.000000  0.000000 -0.000000  0.000000 -0.006745 -0.005074
  0Cl  1f-2       0.000000 -0.000000 -0.000000  0.000000 -0.005074  0.006745
  0Cl  1f+3       0.000000  0.000000 -0.000000  0.000000 -0.000000 -0.000000
  0Cl  1f-3      -0.000000  0.000000  0.000000 -0.000000 -0.000000 -0.000000
  1H   1s        -0.000000 -0.103844  0.000000 -0.000000  0.000000  0.000000
  1H   2s        -0.000000 -0.061215  0.000000  0.000000 -0.000000 -0.000000
  1H   3s         0.000000  1.266506 -0.000000  0.000000 -0.000000 -0.000000
  1H   1pz       -0.000000 -0.016761  0.000000 -0.000000 -0.000000 -0.000000
  1H   1px        0.006665  0.000000  0.001462 -0.030125  0.000000 -0.000000
  1H   1py        0.000353  0.000000  0.030125  0.001462  0.000000 -0.000000
  1H   2pz        0.000000  0.462617  0.000000  0.000000 -0.000000 -0.000000
  1H   2px       -0.066678 -0.000000 -0.025573  0.526856 -0.000000  0.000000
  1H   2py       -0.003527 -0.000000 -0.526856 -0.025573 -0.000000  0.000000
                     18        19        20        21        22        23   
                   0.84879   1.02055   1.05716   1.05716   1.48402   2.15796
                   0.00000   0.00000   0.00000   0.00000   0.00000   0.00000
                  --------  --------  --------  --------  --------  --------
  0Cl  1s        -0.019048  0.028209 -0.000000 -0.000000 -0.006001  0.001737
  0Cl  2s        -0.052556  0.076777 -0.000000 -0.000000 -0.017130  0.004257
  0Cl  3s         0.081730 -0.109228  0.000000  0.000000  0.031898 -0.001448
  0Cl  4s         0.356648 -0.578950  0.000000  0.000000  0.097286 -0.056792
  0Cl  5s        -1.270600  2.165728 -0.000000 -0.000000  0.164236  0.032102
  0Cl  6s         2.114134 -2.779720  0.000000  0.000000 -3.712591  1.233374
  0Cl  1pz       -0.068079  0.019469 -0.000000 -0.000000 -0.225218  0.194977
  0Cl  1px        0.000000 -0.000000 -0.021370 -0.030589  0.000000  0.000000
  0Cl  1py       -0.000000 -0.000000 -0.030589  0.021370 -0.000000 -0.000000
  0Cl  2pz       -0.024720  0.009898 -0.000000 -0.000000 -0.045527  0.063938
  0Cl  2px        0.000000 -0.000000 -0.004244 -0.006075  0.000000  0.000000
  0Cl  2py       -0.000000 -0.000000 -0.006075  0.004244  0.000000 -0.000000
  0Cl  3pz        0.151757 -0.074906  0.000000  0.000000  0.083399 -0.356913
  0Cl  3px       -0.000000  0.000000  0.010303  0.014747 -0.000000 -0.000000
  0Cl  3py        0.000000  0.000000  0.014747 -0.010303  0.000000  0.000000
  0Cl  4pz       -0.469409  0.226637  0.000000  0.000000  2.382991 -0.540087
  0Cl  4px        0.000000  0.000000  0.110636  0.158367 -0.000000  0.000000
  0Cl  4py        0.000000 -0.000000  0.158367 -0.110636 -0.000000 -0.000000
  0Cl  5pz       -0.305643  1.011293 -0.000000 -0.000000  1.021661 -0.570435
  0Cl  5px       -0.000000  0.000000  0.192268  0.275218 -0.000000 -0.000000
  0Cl  5py        0.000000 -0.000000  0.275218 -0.192268  0.000000  0.000000
  0Cl  1dz2      -0.153359 -0.103108  0.000000  0.000000 -0.066483  0.124122
  0Cl  1dxz       0.000000 -0.000000 -0.080368 -0.115042  0.000000 -0.000000
  0Cl  1dyz      -0.000000  0.000000 -0.115042  0.080368  0.000000 -0.000000
  0Cl  1dx2y2    -0.000000  0.000000 -0.000000 -0.000000  0.000000 -0.000000
  0Cl  1dxy       0.000000  0.000000  0.000000  0.000000  0.000000 -0.000000
  0Cl  2dz2      -0.396507 -0.781030  0.000000  0.000000 -1.613342  0.451491
  0Cl  2dxz       0.000000 -0.000000 -0.505860 -0.724102  0.000000  0.000000
  0Cl  2dyz      -0.000000  0.000000 -0.724102  0.505860 -0.000000  0.000000
  0Cl  2dx2y2    -0.000000  0.000000 -0.000000  0.000000 -0.000000  0.000000
  0Cl  2dxy      -0.000000  0.000000  0.000000  0.000000 -0.000000  0.000000
  0Cl  1f0       -0.058767  0.041754  0.000000 -0.000000  0.066170 -0.760605
  0Cl  1f+1      -0.000000  0.000000 -0.003374 -0.004829  0.000000  0.000000
  0Cl  1f-1      -0.000000 -0.000000 -0.004829  0.003374 -0.000000  0.000000
  0Cl  1f+2      -0.000000  0.000000 -0.000000  0.000000  0.000000  0.000000
  0Cl  1f-2       0.000000 -0.000000 -0.000000  0.000000  0.000000 -0.000000
  0Cl  1f+3      -0.000000  0.000000 -0.000000 -0.000000  0.000000 -0.000000
  0Cl  1f-3      -0.000000 -0.000000  0.000000 -0.000000 -0.000000  0.000000
  1H   1s         0.054483 -0.077141  0.000000  0.000000  0.118099  0.868609
  1H   2s         0.329381  1.276479 -0.000000 -0.000000  3.161434 -2.402334
  1H   3s        -1.383483  0.735516 -0.000000 -0.000000  1.213803  0.124669
  1H   1pz        0.004737  0.053566 -0.000000 -0.000000 -0.097175  0.058114
  1H   1px       -0.000000  0.000000  0.043614  0.062430 -0.000000  0.000000
  1H   1py        0.000000 -0.000000  0.062430 -0.043614 -0.000000 -0.000000
  1H   2pz       -0.870652  0.044602  0.000000  0.000000  2.850397 -0.908438
  1H   2px        0.000000 -0.000000 -0.707310 -1.012464  0.000000 -0.000000
  1H   2py       -0.000000  0.000000 -1.012464  0.707310 -0.000000  0.000000
                     24        25        26        27        28        29   
                   2.36319   2.36319   2.38537   2.38537   2.42701   2.42701
                   0.00000   0.00000   0.00000   0.00000   0.00000   0.00000
                  --------  --------  --------  --------  --------  --------
  0Cl  1s         0.000000 -0.000000 -0.000000  0.000000 -0.000000 -0.000000
  0Cl  2s         0.000000 -0.000000 -0.000000  0.000000 -0.000000 -0.000000
  0Cl  3s        -0.000000  0.000000 -0.000000 -0.000000  0.000000  0.000000
  0Cl  4s        -0.000000  0.000000  0.000000  0.000000  0.000000  0.000000
  0Cl  5s         0.000000 -0.000000 -0.000000  0.000000 -0.000000 -0.000000
  0Cl  6s         0.000000 -0.000000 -0.000000 -0.000000 -0.000000 -0.000000
  0Cl  1pz       -0.000000  0.000000  0.000000  0.000000  0.000000 -0.000000
  0Cl  1px       -0.000000 -0.000000  0.000000 -0.000000  0.403116 -0.241881
  0Cl  1py        0.000000 -0.000000  0.000000 -0.000000 -0.241881 -0.403116
  0Cl  2pz       -0.000000  0.000000  0.000000  0.000000  0.000000 -0.000000
  0Cl  2px       -0.000000 -0.000000  0.000000 -0.000000  0.134094 -0.080460
  0Cl  2py        0.000000 -0.000000  0.000000 -0.000000 -0.080460 -0.134094
  0Cl  3pz        0.000000 -0.000000 -0.000000 -0.000000 -0.000000  0.000000
  0Cl  3px        0.000000  0.000000 -0.000000  0.000000 -0.970247  0.582175
  0Cl  3py       -0.000000  0.000000 -0.000000  0.000000  0.582175  0.970247
  0Cl  4pz       -0.000000  0.000000  0.000000  0.000000  0.000000 -0.000000
  0Cl  4px       -0.000000 -0.000000  0.000000 -0.000000  0.891102 -0.534686
  0Cl  4py       -0.000000 -0.000000  0.000000 -0.000000 -0.534686 -0.891102
  0Cl  5pz       -0.000000  0.000000 -0.000000  0.000000  0.000000  0.000000
  0Cl  5px        0.000000  0.000000 -0.000000  0.000000 -0.359734  0.215851
  0Cl  5py       -0.000000  0.000000 -0.000000  0.000000  0.215851  0.359734
  0Cl  1dz2       0.000000 -0.000000 -0.000000 -0.000000  0.000000  0.000000
  0Cl  1dxz      -0.000000 -0.000000  0.000000 -0.000000  0.217682 -0.130615
  0Cl  1dyz       0.000000 -0.000000  0.000000 -0.000000 -0.130615 -0.217682
  0Cl  1dx2y2    -0.003488  0.001925 -0.000000  0.000000 -0.000000 -0.000000
  0Cl  1dxy      -0.001925 -0.003488 -0.000000 -0.000000 -0.000000  0.000000
  0Cl  2dz2       0.000000 -0.000000 -0.000000 -0.000000 -0.000000 -0.000000
  0Cl  2dxz      -0.000000  0.000000 -0.000000  0.000000 -0.032833  0.019701
  0Cl  2dyz      -0.000000  0.000000 -0.000000  0.000000  0.019701  0.032833
  0Cl  2dx2y2    -0.005382  0.002970  0.000000 -0.000000  0.000000 -0.000000
  0Cl  2dxy      -0.002970 -0.005382  0.000000  0.000000  0.000000 -0.000000
  0Cl  1f0       -0.000000  0.000000  0.000000  0.000000  0.000000  0.000000
  0Cl  1f+1       0.000000  0.000000 -0.000000  0.000000 -0.671065  0.402658
  0Cl  1f-1      -0.000000  0.000000 -0.000000  0.000000  0.402658  0.671065
  0Cl  1f+2      -0.875512  0.483118 -0.000000 -0.000000 -0.000000 -0.000000
  0Cl  1f-2      -0.483118 -0.875512 -0.000000 -0.000000 -0.000000  0.000000
  0Cl  1f+3      -0.000000  0.000000  0.729700 -0.683767 -0.000000  0.000000
  0Cl  1f-3      -0.000000  0.000000  0.683767  0.729700 -0.000000  0.000000
  1H   1s         0.000000 -0.000000 -0.000000 -0.000000 -0.000000 -0.000000
  1H   2s        -0.000000  0.000000  0.000000  0.000000  0.000000  0.000000
  1H   3s         0.000000 -0.000000 -0.000000  0.000000  0.000000  0.000000
  1H   1pz        0.000000 -0.000000  0.000000 -0.000000  0.000000  0.000000
  1H   1px        0.000000  0.000000 -0.000000  0.000000 -0.096942  0.058168
  1H   1py       -0.000000  0.000000 -0.000000  0.000000  0.058168  0.096942
  1H   2pz       -0.000000  0.000000  0.000000  0.000000  0.000000  0.000000
  1H   2px       -0.000000 -0.000000  0.000000 -0.000000  0.247925 -0.148762
  1H   2py        0.000000 -0.000000  0.000000 -0.000000 -0.148762 -0.247925
                     30        31        32        33        34        35   
                   2.47601   2.47601   2.68974   2.72940   2.72940   2.77247
                   0.00000   0.00000   0.00000   0.00000   0.00000   0.00000
                  --------  --------  --------  --------  --------  --------
  0Cl  1s         0.000000 -0.000000  0.003351  0.000000 -0.000000  0.005337
  0Cl  2s         0.000000 -0.000000  0.010166  0.000000  0.000000  0.015575
  0Cl  3s        -0.000000 -0.000000 -0.023728 -0.000000 -0.000000 -0.032132
  0Cl  4s        -0.000000  0.000000 -0.051169 -0.000000  0.000000 -0.091350
  0Cl  5s         0.000000 -0.000000  0.160237  0.000000  0.000000  0.085818
  0Cl  6s         0.000000  0.000000  0.656457  0.000000 -0.000000  1.858132
  0Cl  1pz        0.000000 -0.000000 -0.511665 -0.000000 -0.000000 -0.338647
  0Cl  1px       -0.267222 -0.567682  0.000000 -0.000000  0.000000 -0.000000
  0Cl  1py        0.567682 -0.267222  0.000000  0.000000  0.000000 -0.000000
  0Cl  2pz        0.000000 -0.000000 -0.169374 -0.000000 -0.000000 -0.117851
  0Cl  2px       -0.088282 -0.187545  0.000000 -0.000000  0.000000 -0.000000
  0Cl  2py        0.187545 -0.088282  0.000000  0.000000  0.000000 -0.000000
  0Cl  3pz       -0.000000  0.000000  1.347542  0.000000  0.000000  1.056943
  0Cl  3px        0.652733  1.386655 -0.000000  0.000000 -0.000000  0.000000
  0Cl  3py       -1.386655  0.652733 -0.000000 -0.000000 -0.000000  0.000000
  0Cl  4pz        0.000000 -0.000000 -1.928773 -0.000000  0.000000 -2.438525
  0Cl  4px       -0.632145 -1.342918  0.000000 -0.000000  0.000000 -0.000000
  0Cl  4py        1.342918 -0.632145  0.000000  0.000000  0.000000 -0.000000
  0Cl  5pz       -0.000000 -0.000000  0.328822  0.000000  0.000000 -0.321847
  0Cl  5px        0.156122  0.331663 -0.000000  0.000000 -0.000000 -0.000000
  0Cl  5py       -0.331663  0.156122 -0.000000 -0.000000  0.000000  0.000000
  0Cl  1dz2      -0.000000  0.000000  0.824565  0.000000  0.000000 -0.445070
  0Cl  1dxz       0.124645  0.264794 -0.000000 -0.000000  0.000000 -0.000000
  0Cl  1dyz      -0.264794  0.124645 -0.000000 -0.000000 -0.000000  0.000000
  0Cl  1dx2y2    -0.000000 -0.000000 -0.000000  0.155968  1.098980  0.000000
  0Cl  1dxy       0.000000 -0.000000  0.000000 -1.098980  0.155968  0.000000
  0Cl  2dz2       0.000000 -0.000000 -0.180363 -0.000000 -0.000000  1.183844
[...]
                                        -0.0146  0.0000  0.0000  0.0000  0.0000
                                         0.0000  0.0000  0.0000  0.0000  0.0000
                                         0.0000  0.0000 -0.0006  0.1020 -0.0098
                                         0.0243  0.0000  0.0000  0.0000  0.0000
                                         0.0000  0.0000  0.0000  0.0000  0.0295
                                        -0.9489 -0.2023  0.0000  0.0000  0.0000
                                         0.0000  0.0000  0.0000
  36. (0.00002) RY (26)Cl  1            s( 99.93%)p 0.00(  0.05%)d 0.00(  0.02%)
                                                  f 0.00(  0.00%)
  37. (0.00001) RY (27)Cl  1            s(  0.00%)p 1.00(100.00%)d 0.00(  0.00%)
                                                  f 0.00(  0.00%)
  38. (0.00001) RY (28)Cl  1            s(  0.05%)p99.99( 99.86%)d 1.08(  0.06%)
                                                  f 0.46(  0.02%)
  39. (0.00001) RY (29)Cl  1            s(  0.00%)p 1.00(100.00%)d 0.00(  0.00%)
                                                  f 0.00(  0.00%)
  40. (0.00249) RY ( 1) H  2            s(  0.00%)p 1.00(100.00%)
                                         0.0000  0.0000  0.0000  0.9971 -0.0758
                                         0.0000  0.0000  0.0000  0.0000
  41. (0.00249) RY ( 2) H  2            s(  0.00%)p 1.00(100.00%)
                                         0.0000  0.0000  0.0000  0.0000  0.0000
                                         0.9971 -0.0758  0.0000  0.0000
  42. (0.00092) RY ( 3) H  2            s( 81.04%)p 0.23( 18.96%)
                                         0.0232  0.8993 -0.0343  0.0000  0.0000
                                         0.0000  0.0000 -0.3933 -0.1868
  43. (0.00041) RY ( 4) H  2            s( 19.91%)p 4.02( 80.09%)
                                        -0.0453  0.3953  0.2018  0.0000  0.0000
                                         0.0000  0.0000  0.8946 -0.0232
  44. (0.00012) RY ( 5) H  2            s( 94.84%)p 0.05(  5.16%)
                                         0.0083 -0.0307  0.9734  0.0000  0.0000
                                         0.0000  0.0000 -0.2029  0.1018
  45. (0.00005) RY ( 6) H  2            s(  0.00%)p 1.00(100.00%)
  46. (0.00005) RY ( 7) H  2            s(  0.00%)p 1.00(100.00%)
  47. (0.00004) RY ( 8) H  2            s(  4.49%)p21.25( 95.51%)


 NHO DIRECTIONALITY AND BOND BENDING (deviation from line of nuclear centers at
                                      the position of maximum hybrid amplitude)

         [Thresholds for printing:  angular deviation  >  1.0 degree]
                                    p- or d-character  > 25.0%
                                    orbital occupancy  >  0.10e

                        Line of Centers        Hybrid 1             Hybrid 2
                        ---------------  -------------------  ------------------
           NBO            Theta   Phi    Theta   Phi    Dev   Theta   Phi    Dev
 ===============================================================================
   7. LP ( 2)Cl  1          --     --     94.0  180.0   --      --     --    --
   8. LP ( 3)Cl  1          --     --     94.0  270.0   --      --     --    --


 NATURAL BOND ORBITALS (Summary):

           NBO                 Occupancy
 ========================================
 Molecular unit  1  (HCl)
 ------ Lewis ---------------------------
    1. CR ( 1)Cl  1             0.99998
    2. CR ( 2)Cl  1             0.99968
    3. CR ( 3)Cl  1             0.99952
    4. CR ( 4)Cl  1             0.99952
    5. CR ( 5)Cl  1             0.99947
    6. LP ( 1)Cl  1             0.98792
    7. LP ( 2)Cl  1             0.97818
    8. LP ( 3)Cl  1             0.97818
    9. BD ( 1)Cl  1- H  2       0.98289
 ------ non-Lewis -----------------------
   10. BD*( 1)Cl  1- H  2       0.01080
   11. RY ( 1)Cl  1             0.00830
   12. RY ( 2)Cl  1             0.00830
   13. RY ( 3)Cl  1             0.00760
   14. RY ( 4)Cl  1             0.00760
   15. RY ( 5)Cl  1             0.00580
   16. RY ( 6)Cl  1             0.00469
   17. RY ( 7)Cl  1             0.00469
   18. RY ( 8)Cl  1             0.00319
   19. RY ( 9)Cl  1             0.00107
   20. RY (10)Cl  1             0.00054
   21. RY (11)Cl  1             0.00054
   22. RY (12)Cl  1             0.00053
   23. RY (13)Cl  1             0.00053
   24. RY (14)Cl  1             0.00049
   25. RY (15)Cl  1             0.00049
   26. RY (16)Cl  1             0.00046
   27. RY (17)Cl  1             0.00038
   28. RY (18)Cl  1             0.00038
   29. RY (19)Cl  1             0.00029
   30. RY (20)Cl  1             0.00029
   31. RY (21)Cl  1             0.00029
   32. RY (22)Cl  1             0.00023
   33. RY (23)Cl  1             0.00023
   34. RY (24)Cl  1             0.00023
   35. RY (25)Cl  1             0.00013
   36. RY (26)Cl  1             0.00002
   37. RY (27)Cl  1             0.00001
   38. RY (28)Cl  1             0.00001
   39. RY (29)Cl  1             0.00001
   40. RY ( 1) H  2             0.00249
   41. RY ( 2) H  2             0.00249
   42. RY ( 3) H  2             0.00092
   43. RY ( 4) H  2             0.00041
   44. RY ( 5) H  2             0.00012
   45. RY ( 6) H  2             0.00005
   46. RY ( 7) H  2             0.00005
   47. RY ( 8) H  2             0.00004
          -------------------------------
                 Total Lewis    8.92532  ( 99.1703%)
           Valence non-Lewis    0.01080  (  0.1200%)
           Rydberg non-Lewis    0.06387  (  0.7097%)
          -------------------------------
               Total unit  1    9.00000  (100.0000%)
              Charge unit  1    0.00000

 $CHOOSE
  ALPHA
   LONE 1 3 END
   BOND S 1 2 END
  END
  BETA
   LONE 1 3 END
   BOND S 1 2 END
  END
 $END

 NBO analysis completed in 0.13 CPU seconds (1 wall second)
 Maximum scratch memory used by NBO was 495203 words (3.78 MB)
Stopping NBO...Storing NBOs: HCl.pmp2re.nbo

                                *** returned from   NBO  program ***


----------------------------------
MP2 DERIVATIVE INTEGRAL GENERATION
----------------------------------


Input Wavefunction Amplitudes       ... HCl.mp2tbb.tmp
Input Correlated Electron Density   ... HCl.pmp2re
Input Energy Weighted Density       ... HCl.wmp2.tmp
Input SCF Electron Density          ... HCl.scfp

One-Electron Terms    ...
                        ... One-Electron Terms done
Prescreening matrices              ... done

Batch handling in the gradient evaluation:
Memory available                      ... 3000.0 MB
Memory per occupied orbital in Q2     ...    0.3 MB
Memory per occupied orbital in Q3     ...    0.0 MB
Total memory requirement per |i>      ...    0.3 MB
Max. Number of orbitals possible      ...   9347
Number of orbitals treated per batch  ...     18
Number of batches to be done          ...      1
Batch   0: i=    0 ...    17

---------------------------------------
MP2 TOTAL ENERGY:     -460.356199280 Eh
---------------------------------------

-----------------------------------
NORM OF THE MP2 GRADIENT:  0.000000
-----------------------------------

-------------------------   --------------------
FINAL SINGLE POINT ENERGY      -460.356199279938
-------------------------   --------------------

                                *** OPTIMIZATION RUN DONE ***

                            ***************************************
                            *     ORCA property calculations      *
                            ***************************************

                                    ---------------------
                                    Active property flags
                                    ---------------------
   (+) Dipole Moment


------------------------------------------------------------------------------
                       ORCA ELECTRIC PROPERTIES CALCULATION
------------------------------------------------------------------------------

Dipole Moment Calculation                       ... on
Quadrupole Moment Calculation                   ... off
Polarizability Calculation                      ... off
GBWName                                         ... HCl.gbw
Electron density file                           ... HCl.scfp
The origin for moment calculation is the CENTER OF MASS  = ( 0.000000,  0.000000  0.000455)

-------------
DIPOLE MOMENT
-------------
                                X             Y             Z
Electronic contribution:     -0.00000      -0.00000       0.71487
Nuclear contribution   :      0.00000       0.00000      -1.20858
                        -----------------------------------------
Total Dipole Moment    :     -0.00000      -0.00000      -0.49370
                        -----------------------------------------
Magnitude (a.u.)       :      0.49370
Magnitude (Debye)      :      1.25489



--------------------
Rotational spectrum 
--------------------
 
Rotational constants in cm-1:     0.000000    10.612351    10.612351 
Rotational constants in MHz :     0.000000 318150.279410 318150.279410 

 Dipole components along the rotational axes: 
x,y,z [a.u.] :    -0.493704    -0.000000    -0.000000 
x,y,z [Debye]:    -1.254895    -0.000000    -0.000000 

 

                         *** MP2 UNRELAXED DENSITY ***

------------------------------------------------------------------------------
                       ORCA ELECTRIC PROPERTIES CALCULATION
------------------------------------------------------------------------------

Dipole Moment Calculation                       ... on
Quadrupole Moment Calculation                   ... off
Polarizability Calculation                      ... off
GBWName                                         ... HCl.gbw
Electron density file                           ... HCl.pmp2ur
The origin for moment calculation is the CENTER OF MASS  = ( 0.000000,  0.000000  0.000455)

-------------
DIPOLE MOMENT
-------------
                                X             Y             Z
Electronic contribution:     -0.00000      -0.00000       0.71880
Nuclear contribution   :      0.00000       0.00000      -1.20858
                        -----------------------------------------
Total Dipole Moment    :     -0.00000      -0.00000      -0.48978
                        -----------------------------------------
Magnitude (a.u.)       :      0.48978
Magnitude (Debye)      :      1.24492



--------------------
Rotational spectrum 
--------------------
 
Rotational constants in cm-1:     0.000000    10.612351    10.612351 
Rotational constants in MHz :     0.000000 318150.279410 318150.279410 

 Dipole components along the rotational axes: 
x,y,z [a.u.] :    -0.489778    -0.000000    -0.000000 
x,y,z [Debye]:    -1.244918    -0.000000    -0.000000 

 

                           *** MP2 RELAXED DENSITY ***

------------------------------------------------------------------------------
                       ORCA ELECTRIC PROPERTIES CALCULATION
------------------------------------------------------------------------------

Dipole Moment Calculation                       ... on
Quadrupole Moment Calculation                   ... off
Polarizability Calculation                      ... off
GBWName                                         ... HCl.gbw
Electron density file                           ... HCl.pmp2re
The origin for moment calculation is the CENTER OF MASS  = ( 0.000000,  0.000000  0.000455)

-------------
DIPOLE MOMENT
-------------
                                X             Y             Z
Electronic contribution:     -0.00000      -0.00000       0.73370
Nuclear contribution   :      0.00000       0.00000      -1.20858
                        -----------------------------------------
Total Dipole Moment    :     -0.00000      -0.00000      -0.47488
                        -----------------------------------------
Magnitude (a.u.)       :      0.47488
Magnitude (Debye)      :      1.20706



--------------------
Rotational spectrum 
--------------------
 
Rotational constants in cm-1:     0.000000    10.612351    10.612351 
Rotational constants in MHz :     0.000000 318150.279410 318150.279410 

 Dipole components along the rotational axes: 
x,y,z [a.u.] :    -0.474883    -0.000000    -0.000000 
x,y,z [Debye]:    -1.207056    -0.000000    -0.000000 

 
------------------------------------------------------------------------------
                         ORCA MP2 H E S S I A N CALCULATION
------------------------------------------------------------------------------

Calculating analytic MP2 second derivatives ... (>HCl.last_mp2) done
Warning: T+R mode no 5 is zero 

-----------------------
VIBRATIONAL FREQUENCIES
-----------------------

Scaling factor for frequencies =  1.000000000  (already applied!)

   0:         0.00 cm**-1
   1:         0.00 cm**-1
   2:         0.00 cm**-1
   3:         0.00 cm**-1
   4:         0.00 cm**-1
   5:      3028.10 cm**-1


------------
NORMAL MODES
------------

These modes are the Cartesian displacements weighted by the diagonal matrix
M(i,i)=1/sqrt(m[i]) where m[i] is the mass of the displaced atom
Thus, these vectors are normalized but *not* orthogonal

                  0          1          2          3          4          5    
      0       0.000000   0.000000   0.000000   0.000000   0.000000   0.000000
      1       0.000000   0.000000   0.000000   0.000000   0.000000   0.000000
      2       0.000000   0.000000   0.000000   0.000000   0.000000   0.028421
      3       0.000000   0.000000   0.000000   0.000000   0.000000   0.000000
      4       0.000000   0.000000   0.000000   0.000000   0.000000   0.000000
      5       0.000000   0.000000   0.000000   0.000000   0.000000  -0.999596


-----------
IR SPECTRUM
-----------

 Mode    freq (cm**-1)   T**2         TX         TY         TZ
-------------------------------------------------------------------
   5:      3028.10   55.644790  ( -0.000000  -0.000000  -7.459544)

The first frequency considered to be a vibration is 5
The total number of vibrations considered is 1


--------------------------
THERMOCHEMISTRY AT 298.15K
--------------------------

Temperature         ... 298.15 K
Pressure            ... 1.00 atm
Total Mass          ... 36.46 AMU
The molecule is recognized as being linear

Throughout the following assumptions are being made:
  (1) The electronic state is orbitally nondegenerate
  (2) There are no thermally accessible electronically excited states
  (3) Hindered rotations indicated by low frequency modes are not
      treated as such but are treated as vibrations and this may
      cause some error
  (4) All equations used are the standard statistical mechanics
      equations for an ideal gas
  (5) All vibrations are strictly harmonic

freq.    3028.10  E(vib)   ...       0.00 

------------
INNER ENERGY
------------

The inner energy is: U= E(el) + E(ZPE) + E(vib) + E(rot) + E(trans)
    E(el)   - is the total energy from the electronic structure calculation
              = E(kin-el) + E(nuc-el) + E(el-el) + E(nuc-nuc)
    E(ZPE)  - the the zero temperature vibrational energy from the frequency calculation
    E(vib)  - the the finite temperature correction to E(ZPE) due to population
              of excited vibrational states
    E(rot)  - is the rotational thermal energy
    E(trans)- is the translational thermal energy

Summary of contributions to the inner energy U:
Electronic energy                ...   -460.35619928 Eh
Zero point energy                ...      0.00689851 Eh       4.33 kcal/mol
Thermal vibrational correction   ...      0.00000001 Eh       0.00 kcal/mol
Thermal rotational correction    ...      0.00094418 Eh       0.59 kcal/mol
Thermal translational correction ...      0.00141627 Eh       0.89 kcal/mol
-----------------------------------------------------------------------
Total thermal energy                   -460.34694031 Eh


Summary of corrections to the electronic energy:
(perhaps to be used in another calculation)
Total thermal correction                  0.00236046 Eh       1.48 kcal/mol
Non-thermal (ZPE) correction              0.00689851 Eh       4.33 kcal/mol
-----------------------------------------------------------------------
Total correction                          0.00925897 Eh       5.81 kcal/mol


--------
ENTHALPY
--------

The enthalpy is H = U + kB*T
                kB is Boltzmann's constant
Total free energy                 ...   -460.34694031 Eh 
Thermal Enthalpy correction       ...      0.00094421 Eh       0.59 kcal/mol
-----------------------------------------------------------------------
Total Enthalpy                    ...   -460.34599610 Eh


Note: Rotational entropy computed according to Herzberg 
Infrared and Raman Spectra, Chapter V,1, Van Nostrand Reinhold, 1945 
Point Group:  Cinfv, Symmetry Number:   1  
Rotational constants in cm-1:     0.000000    10.612351    10.612351 

Vibrational entropy computed according to the QRRHO of S. Grimme
Chem.Eur.J. 2012 18 9955


-------
ENTROPY
-------

The entropy contributions are T*S = T*(S(el)+S(vib)+S(rot)+S(trans))
     S(el)   - electronic entropy
     S(vib)  - vibrational entropy
     S(rot)  - rotational entropy
     S(trans)- translational entropy
The entropies will be listed as mutliplied by the temperature to get
units of energy

Electronic entropy                ...      0.00000000 Eh      0.00 kcal/mol
Vibrational entropy               ...      0.00000001 Eh      0.00 kcal/mol
Rotational entropy                ...      0.00375009 Eh      2.35 kcal/mol
Translational entropy             ...      0.01744233 Eh     10.95 kcal/mol
-----------------------------------------------------------------------
Final entropy term                ...      0.02119242 Eh     13.30 kcal/mol

In case the symmetry of your molecule has not been determined correctly
or in case you have a reason to use a different symmetry number we print 
out the resulting rotational entropy values for sn=1,12 :
 --------------------------------------------------------
|  sn= 1 | S(rot)=             -inf Eh      -inf kcal/mol|
|  sn= 2 | S(rot)=             -inf Eh      -inf kcal/mol|
|  sn= 3 | S(rot)=             -inf Eh      -inf kcal/mol|
|  sn= 4 | S(rot)=             -inf Eh      -inf kcal/mol|
|  sn= 5 | S(rot)=             -inf Eh      -inf kcal/mol|
|  sn= 6 | S(rot)=             -inf Eh      -inf kcal/mol|
|  sn= 7 | S(rot)=             -inf Eh      -inf kcal/mol|
|  sn= 8 | S(rot)=             -inf Eh      -inf kcal/mol|
|  sn= 9 | S(rot)=             -inf Eh      -inf kcal/mol|
|  sn=10 | S(rot)=             -inf Eh      -inf kcal/mol|
|  sn=11 | S(rot)=             -inf Eh      -inf kcal/mol|
|  sn=12 | S(rot)=             -inf Eh      -inf kcal/mol|
 --------------------------------------------------------


-------------------
GIBBS FREE ENERGY
-------------------

The Gibbs free energy is G = H - T*S

Total enthalpy                    ...   -460.34599610 Eh 
Total entropy correction          ...     -0.02119242 Eh    -13.30 kcal/mol
-----------------------------------------------------------------------
Final Gibbs free energy         ...   -460.36718852 Eh

For completeness - the Gibbs free energy minus the electronic energy
G-E(el)                           ...     -0.01098924 Eh     -6.90 kcal/mol


Timings for individual modules:

Sum of individual times         ...       63.633 sec (=   1.061 min)
GTO integral calculation        ...        5.034 sec (=   0.084 min)   7.9 %
SCF iterations                  ...       16.694 sec (=   0.278 min)  26.2 %
MP2 module                      ...       19.491 sec (=   0.325 min)  30.6 %
Geometry relaxation             ...        0.064 sec (=   0.001 min)   0.1 %
Analytical frequency calculation...       22.350 sec (=   0.373 min)  35.1 %
                             ****ORCA TERMINATED NORMALLY****
TOTAL RUN TIME: 0 days 0 hours 1 minutes 4 seconds 528 msec
