
                                 *****************
                                 * O   R   C   A *
                                 *****************

           --- An Ab Initio, DFT and Semiempirical electronic structure package ---

                  #######################################################
                  #                        -***-                        #
                  #          Department of theory and spectroscopy      #
                  #               Directorship: Frank Neese             #
                  #        Max Planck Institute fuer Kohlenforschung    #
                  #                Kaiser Wilhelm Platz 1               #
                  #                 D-45470 Muelheim/Ruhr               #
                  #                      Germany                        #
                  #                                                     #
                  #                  All rights reserved                #
                  #                        -***-                        #
                  #######################################################


                         Program Version 4.2.1 -  RELEASE  -


 With contributions from (in alphabetic order):
   Daniel Aravena         : Magnetic Suceptibility
   Michael Atanasov       : Ab Initio Ligand Field Theory (pilot matlab implementation)
   Alexander A. Auer      : GIAO ZORA, VPT2
   Ute Becker             : Parallelization
   Giovanni Bistoni       : ED, misc. LED, open-shell LED, HFLD
   Martin Brehm           : Molecular dynamics
   Dmytro Bykov           : SCF Hessian
   Vijay G. Chilkuri      : MRCI spin determinant printing, contributions to CSF-ICE
   Dipayan Datta          : RHF DLPNO-CCSD density
   Achintya Kumar Dutta   : EOM-CC, STEOM-CC
   Dmitry Ganyushin       : Spin-Orbit,Spin-Spin,Magnetic field MRCI
   Miquel Garcia          : C-PCM Hessian, Gaussian charge scheme
   Yang Guo               : DLPNO-NEVPT2, CIM, IAO-localization
   Andreas Hansen         : Spin unrestricted coupled pair/coupled cluster methods
   Benjamin Helmich-Paris : CASSCF linear response (MC-RPA)
   Lee Huntington         : MR-EOM, pCC
   Robert Izsak           : Overlap fitted RIJCOSX, COSX-SCS-MP3, EOM
   Christian Kollmar      : KDIIS, OOCD, Brueckner-CCSD(T), CCSD density
   Simone Kossmann        : Meta GGA functionals, TD-DFT gradient, OOMP2, MP2 Hessian
   Martin Krupicka        : AUTO-CI
   Lucas Lang             : DCDCAS
   Dagmar Lenk            : GEPOL surface, SMD
   Dimitrios Liakos       : Extrapolation schemes; Compound Job, initial MDCI parallelization
   Dimitrios Manganas     : Further ROCIS development; embedding schemes
   Dimitrios Pantazis     : SARC Basis sets
   Taras Petrenko         : DFT Hessian,TD-DFT gradient, ASA, ECA, R-Raman, ABS, FL, XAS/XES, NRVS
   Peter Pinski           : DLPNO-MP2, DLPNO-MP2 Gradient
   Christoph Reimann      : Effective Core Potentials
   Marius Retegan         : Local ZFS, SOC
   Christoph Riplinger    : Optimizer, TS searches, QM/MM, DLPNO-CCSD(T), (RO)-DLPNO pert. Triples
   Tobias Risthaus        : Range-separated hybrids, TD-DFT gradient, RPA, STAB
   Michael Roemelt        : Original ROCIS implementation
   Masaaki Saitow         : Open-shell DLPNO-CCSD energy and density
   Barbara Sandhoefer     : DKH picture change effects
   Avijit Sen             : IP-ROCIS
   Kantharuban Sivalingam : CASSCF convergence, NEVPT2, FIC-MRCI
   Bernardo de Souza      : ESD, SOC TD-DFT
   Georgi Stoychev        : AutoAux, RI-MP2 NMR
   Willem Van den Heuvel  : Paramagnetic NMR
   Boris Wezisla          : Elementary symmetry handling
   Frank Wennmohs         : Technical directorship


 We gratefully acknowledge several colleagues who have allowed us to
 interface, adapt or use parts of their codes:
   Stefan Grimme, W. Hujo, H. Kruse,             : VdW corrections, initial TS optimization,
                  C. Bannwarth                     DFT functionals, gCP, sTDA/sTD-DF
   Ed Valeev, F. Pavosevic, A. Kumar             : LibInt (2-el integral package), F12 methods
   Garnet Chan, S. Sharma, J. Yang, R. Olivares  : DMRG
   Ulf Ekstrom                                   : XCFun DFT Library
   Mihaly Kallay                                 : mrcc  (arbitrary order and MRCC methods)
   Andreas Klamt, Michael Diedenhofen            : otool_cosmo (COSMO solvation model)
   Jiri Pittner, Ondrej Demel                    : Mk-CCSD
   Frank Weinhold                                : gennbo (NPA and NBO analysis)
   Christopher J. Cramer and Donald G. Truhlar   : smd solvation model
   Lars Goerigk                                  : TD-DFT with DH, B97 family of functionals
   V. Asgeirsson, H. Jonsson                     : NEB implementation
   FAccTs GmbH                                   : IRC, NEB, NEB-TS, Multilevel, MM, QM/MM, CI optimization
   S Lehtola, MJT Oliveira, MAL Marques          : LibXC Library


 Your calculation uses the libint2 library for the computation of 2-el integrals
 For citations please refer to: http://libint.valeyev.net

 Your ORCA version has been built with support for libXC version: 4.2.3
 For citations please refer to: https://tddft.org/programs/libxc/

 This ORCA versions uses:
   CBLAS   interface :  Fast vector & matrix operations
   LAPACKE interface :  Fast linear algebra routines
   SCALAPACK package :  Parallel linear algebra routines


----- Orbital basis set information -----
Your calculation utilizes the basis: 6-311G(2df,2p)
   H, Li - Ne  : R. Krishnan, J. S. Binkley, R. Seeger and J. A. Pople, J. Chem. Phys. 72, 650 (1980).
   Na - Ar     : A. D. McLean and G. S. Chandler J. Chem. Phys. 72, 5639, (1980).
   K  - Ca     : J.-P. Blaudeau, M. P. McGrath, L. A. Curtiss and L. Radom, J. Chem. Phys. 107, 5016 (1997).
   Ga - Kr     : L. A. Curtiss, M. P. McGrath, J.-P. Blandeau, N. E. Davis, R. C. Binning and L. Radom, J. Chem. Phys. 103, 6104 (1995).
   Pol./Diff.
   H, Li - Cl  : T. Clark, J. Chandrasekhar and P. v. R. Schleyer, J. Comp. Chem. 4, 294 (1983).
   H - Ne      : M. J. Frisch, J. A. Pople and J. S. Binkley, J. Chem. Phys. 80, 3265 (1984).

================================================================================
                                        WARNINGS
                       Please study these warnings very carefully!
================================================================================


WARNING: Geometry Optimization
  ===> : Switching off AutoStart
         For restart on a previous wavefunction, please use MOREAD

WARNING: Post HF methods need fully converged wavefunctions
  ===> : Setting SCFConvForced true
         You can overwrite this default with %scf ConvForced false 


INFO   : the flag for use of LIBINT has been found!

================================================================================
                                       INPUT FILE
================================================================================
NAME = methane.inp
|  1> ! UHF MP2 6-311G(2df,2p) Opt Freq NoFrozenCore TightOpt TightSCF Grid4 FinalGrid5 PrintBasis PrintMOs NBO
|  2> %maxcore 3000
|  3> 
|  4> *xyz 0 1
|  5> C        0.000000000      0.000000000      0.000000000
|  6> H       -0.625911000     -0.625911000      0.625911000
|  7> H        0.625911000     -0.625911000     -0.625911000
|  8> H       -0.625911000      0.625911000     -0.625911000
|  9> H        0.625911000      0.625911000      0.625911000
| 10> *
| 11> 
| 12> %pal
| 13>  nprocs 12
| 14> end
| 15> 
| 16>                          ****END OF INPUT****
================================================================================

                       *****************************
                       * Geometry Optimization Run *
                       *****************************

Geometry optimization settings:
Update method            Update   .... BFGS
Choice of coordinates    CoordSys .... Z-matrix Internals
Initial Hessian          InHess   .... Almoef's Model

Convergence Tolerances:
Energy Change            TolE     ....  1.0000e-06 Eh
Max. Gradient            TolMAXG  ....  1.0000e-04 Eh/bohr
RMS Gradient             TolRMSG  ....  3.0000e-05 Eh/bohr
Max. Displacement        TolMAXD  ....  1.0000e-03 bohr
RMS Displacement         TolRMSD  ....  6.0000e-04 bohr
Strict Convergence                ....  False
------------------------------------------------------------------------------
                        ORCA OPTIMIZATION COORDINATE SETUP
------------------------------------------------------------------------------

The optimization will be done in new redundant internal coordinates
Making redundant internal coordinates   ...  (new redundants) done
Evaluating the initial hessian          ...  (Almloef) done
Evaluating the coordinates              ...  done
Calculating the B-matrix                .... done
Calculating the G-matrix                .... done
Diagonalizing the G-matrix              .... done
The first mode is                       ....    1
The number of degrees of freedom        ....    9

    -----------------------------------------------------------------
                    Redundant Internal Coordinates


    -----------------------------------------------------------------
         Definition                    Initial Value    Approx d2E/dq
    -----------------------------------------------------------------
      1. B(H   1,C   0)                  1.0841         0.367977   
      2. B(H   2,C   0)                  1.0841         0.367977   
      3. B(H   3,C   0)                  1.0841         0.367977   
      4. B(H   4,C   0)                  1.0841         0.367977   
      5. A(H   1,C   0,H   3)          109.4712         0.292826   
      6. A(H   2,C   0,H   3)          109.4712         0.292826   
      7. A(H   1,C   0,H   4)          109.4712         0.292826   
      8. A(H   2,C   0,H   4)          109.4712         0.292826   
      9. A(H   3,C   0,H   4)          109.4712         0.292826   
     10. A(H   1,C   0,H   2)          109.4712         0.292826   
    -----------------------------------------------------------------

Number of atoms                         .... 5
Number of degrees of freedom            .... 10

         *************************************************************
         *                GEOMETRY OPTIMIZATION CYCLE   1            *
         *************************************************************
---------------------------------
CARTESIAN COORDINATES (ANGSTROEM)
---------------------------------
  C      0.000000    0.000000    0.000000
  H     -0.625911   -0.625911    0.625911
  H      0.625911   -0.625911   -0.625911
  H     -0.625911    0.625911   -0.625911
  H      0.625911    0.625911    0.625911

----------------------------
CARTESIAN COORDINATES (A.U.)
----------------------------
  NO LB      ZA    FRAG     MASS         X           Y           Z
   0 C     6.0000    0    12.011    0.000000    0.000000    0.000000
   1 H     1.0000    0     1.008   -1.182800   -1.182800    1.182800
   2 H     1.0000    0     1.008    1.182800   -1.182800   -1.182800
   3 H     1.0000    0     1.008   -1.182800    1.182800   -1.182800
   4 H     1.0000    0     1.008    1.182800    1.182800    1.182800

--------------------------------
INTERNAL COORDINATES (ANGSTROEM)
--------------------------------
 C      0   0   0     0.000000000000     0.00000000     0.00000000
 H      1   0   0     1.084109653016     0.00000000     0.00000000
 H      1   2   0     1.084109653016   109.47122063     0.00000000
 H      1   2   3     1.084109653016   109.47122063   120.00000000
 H      1   2   3     1.084109653016   109.47122063   240.00000000

---------------------------
INTERNAL COORDINATES (A.U.)
---------------------------
 C      0   0   0     0.000000000000     0.00000000     0.00000000
 H      1   0   0     2.048670343341     0.00000000     0.00000000
 H      1   2   0     2.048670343341   109.47122063     0.00000000
 H      1   2   3     2.048670343341   109.47122063   120.00000000
 H      1   2   3     2.048670343341   109.47122063   240.00000000

---------------------
BASIS SET INFORMATION
---------------------
There are 2 groups of distinct atoms

 Group   1 Type C   : 11s5p2d1f contracted to 4s3p2d1f pattern {6311/311/11/1}
 Group   2 Type H   : 5s2p contracted to 3s2p pattern {311/11}

Atom   0C    basis set group =>   1
Atom   1H    basis set group =>   2
Atom   2H    basis set group =>   2
Atom   3H    basis set group =>   2
Atom   4H    basis set group =>   2

-------------------------
BASIS SET IN INPUT FORMAT
-------------------------

 # Basis set for element : H 
 NewGTO H 
 S 3 
   1      33.8650000000      0.0254938145
   2       5.0947900000      0.1903731086
   3       1.1587900000      0.8521614860
 S 1 
   1       0.3258400000      1.0000000000
 S 1 
   1       0.1027410000      1.0000000000
 P 1 
   1       1.5000000000      1.0000000000
 P 1 
   1       0.3750000000      1.0000000000
  end;

 # Basis set for element : C 
 NewGTO C 
 S 6 
   1    4563.2400000000      0.0019666502
   2     682.0240000000      0.0152306019
   3     154.9730000000      0.0761269097
   4      44.4553000000      0.2608010331
   5      13.0290000000      0.6164620782
   6       1.8277300000      0.2210060280
 S 3 
   1      20.9642000000      0.1146600807
   2       4.8033100000      0.9199996477
   3       1.4593300000     -0.0030306821
 P 3 
   1      20.9642000000      0.0402486927
   2       4.8033100000      0.2375939567
   3       1.4593300000      0.8158538515
 S 1 
   1       0.4834560000      1.0000000000
 P 1 
   1       0.4834560000      1.0000000000
 S 1 
   1       0.1455850000      1.0000000000
 P 1 
   1       0.1455850000      1.0000000000
 D 1 
   1       1.2520000000      1.0000000000
 D 1 
   1       0.3130000000      1.0000000000
 F 1 
   1       0.8000000000      1.0000000000
  end;



           ************************************************************
           *        Program running with 12 parallel MPI-processes    *
           *              working on a common directory               *
           ************************************************************
------------------------------------------------------------------------------
                           ORCA GTO INTEGRAL CALCULATION
------------------------------------------------------------------------------

                         BASIS SET STATISTICS AND STARTUP INFO

 # of primitive gaussian shells          ...   47
 # of primitive gaussian functions       ...   87
 # of contracted shells                  ...   30
 # of contracted basis functions         ...   66
 Highest angular momentum                ...    3
 Maximum contraction depth               ...    6
 Integral package used                   ... LIBINT
 Integral threshhold            Thresh   ...  2.500e-11
 Primitive cut-off              TCut     ...  2.500e-12


------------------------------ INTEGRAL EVALUATION ----------------------------


 * One electron integrals 
 Pre-screening matrix                    ... done
 Shell pair data                         ... done (   0.001 sec)



           ************************************************************
           *        Program running with 12 parallel MPI-processes    *
           *              working on a common directory               *
           ************************************************************
-------------------------------------------------------------------------------
                                 ORCA SCF
-------------------------------------------------------------------------------

------------
SCF SETTINGS
------------
Hamiltonian:
 Ab initio Hamiltonian  Method          .... Hartree-Fock(GTOs)


General Settings:
 Integral files         IntName         .... methane
 Hartree-Fock type      HFTyp           .... UHF
 Total Charge           Charge          ....    0
 Multiplicity           Mult            ....    1
 Number of Electrons    NEL             ....   10
 Basis Dimension        Dim             ....   66
 Nuclear Repulsion      ENuc            ....     13.5083883574 Eh

Convergence Acceleration:
 DIIS                   CNVDIIS         .... on
   Start iteration      DIISMaxIt       ....    12
   Startup error        DIISStart       ....  0.200000
   # of expansion vecs  DIISMaxEq       ....     5
   Bias factor          DIISBfac        ....   1.050
   Max. coefficient     DIISMaxC        ....  10.000
 Newton-Raphson         CNVNR           .... off
 SOSCF                  CNVSOSCF        .... off
 Level Shifting         CNVShift        .... on
   Level shift para.    LevelShift      ....    0.2500
   Turn off err/grad.   ShiftErr        ....    0.0010
 Zerner damping         CNVZerner       .... off
 Static damping         CNVDamp         .... on
   Fraction old density DampFac         ....    0.7000
   Max. Damping (<1)    DampMax         ....    0.9800
   Min. Damping (>=0)   DampMin         ....    0.0000
   Turn off err/grad.   DampErr         ....    0.1000
 Fernandez-Rico         CNVRico         .... off

SCF Procedure:
 Maximum # iterations   MaxIter         ....   125
 SCF integral mode      SCFMode         .... Direct
   Integral package                     .... LIBINT
 Reset frequency        DirectResetFreq ....    20
 Integral Threshold     Thresh          ....  2.500e-11 Eh
 Primitive CutOff       TCut            ....  2.500e-12 Eh

Convergence Tolerance:
 Convergence Check Mode ConvCheckMode   .... Total+1el-Energy
 Convergence forced     ConvForced      .... 1
 Energy Change          TolE            ....  1.000e-08 Eh
 1-El. energy change                    ....  1.000e-05 Eh
 DIIS Error             TolErr          ....  5.000e-07


Diagonalization of the overlap matrix:
Smallest eigenvalue                        ... 3.901e-03
Time for diagonalization                   ...    0.006 sec
Threshold for overlap eigenvalues          ... 1.000e-08
Number of eigenvalues below threshold      ... 0
Time for construction of square roots      ...    0.008 sec
Total time needed                          ...    0.014 sec

-------------------
DFT GRID GENERATION
-------------------

General Integration Accuracy     IntAcc      ...  4.670
Radial Grid Type                 RadialGrid  ... Gauss-Chebyshev
Angular Grid (max. acc.)         AngularGrid ... Lebedev-302
Angular grid pruning method      GridPruning ... 3 (G Style)
Weight generation scheme         WeightScheme... Becke
Basis function cutoff            BFCut       ...    1.0000e-11
Integration weight cutoff        WCut        ...    1.0000e-14
Grids for H and He will be reduced by one unit

# of grid points (after initial pruning)     ...  19788 (   0.0 sec)
# of grid points (after weights+screening)   ...  19276 (   0.0 sec)
nearest neighbour list constructed           ...    0.0 sec
Grid point re-assignment to atoms done       ...    0.0 sec
Grid point division into batches done        ...    0.2 sec
Reduced shell lists constructed in    0.2 sec

Total number of grid points                  ...    19276
Total number of batches                      ...      303
Average number of points per batch           ...       63
Average number of grid points per atom       ...     3855
Average number of shells per batch           ...    28.89 (96.30%)
Average number of basis functions per batch  ...    63.56 (96.30%)
Average number of large shells per batch     ...    28.74 (99.49%)
Average number of large basis fcns per batch ...    63.11 (99.30%)
Maximum spatial batch extension              ...   1.44,  1.38,  1.38 au
Average spatial batch extension              ...   0.09,  0.09,  0.09 au

Time for grid setup =    0.277 sec

------------------------------
INITIAL GUESS: MODEL POTENTIAL
------------------------------
Loading Hartree-Fock densities                     ... done
Calculating cut-offs                               ... done
Setting up the integral package                    ... done
Initializing the effective Hamiltonian             ... done
Starting the Coulomb interaction                   ... done (   0.0 sec)
Reading the grid                                   ... done
Mapping shells                                     ... done
Starting the XC term evaluation                    ... done (   0.0 sec)
Transforming the Hamiltonian                       ... done (   0.0 sec)
Diagonalizing the Hamiltonian                      ... done (   0.0 sec)
Back transforming the eigenvectors                 ... done (   0.0 sec)
Now organizing SCF variables                       ... done
                      ------------------
                      INITIAL GUESS DONE (   0.5 sec)
                      ------------------
--------------
SCF ITERATIONS
--------------
ITER       Energy         Delta-E        Max-DP      RMS-DP      [F,P]     Damp
               ***  Starting incremental Fock matrix formation  ***
  0    -40.0962221039   0.000000000000 0.03312045  0.00081389  0.3122253 0.7000
  1    -40.1384498372  -0.042227733367 0.02263279  0.00060688  0.1996058 0.7000
                               ***Turning on DIIS***
  2    -40.1635758684  -0.025126031214 0.01298216  0.00037977  0.1170152 0.7000
  3    -40.3456185708  -0.182042702397 0.01581621  0.00064182  0.0668709 0.0000
  4    -40.1860603707   0.159558200151 0.00477685  0.00010902  0.0108749 0.0000
  5    -40.2099018718  -0.023841501167 0.00086367  0.00004925  0.0029916 0.0000
  6    -40.2118860511  -0.001984179290 0.00056365  0.00003010  0.0009995 0.0000
  7    -40.2123232668  -0.000437215667 0.00007842  0.00000419  0.0000831 0.0000
  8    -40.2123244979  -0.000001231052 0.00000856  0.00000049  0.0000047 0.0000
                            ***DIIS convergence achieved***

               *****************************************************
               *                     SUCCESS                       *
               *           SCF CONVERGED AFTER   9 CYCLES          *
               *****************************************************


----------------
TOTAL SCF ENERGY
----------------

Total Energy       :          -40.21231010 Eh           -1094.23259 eV

Components:
Nuclear Repulsion  :           13.50838836 Eh             367.58193 eV
Electronic Energy  :          -53.72069845 Eh           -1461.81452 eV
One Electron Energy:          -79.87036816 Eh           -2173.38321 eV
Two Electron Energy:           26.14966971 Eh             711.56869 eV

Virial components:
Potential Energy   :          -80.41113673 Eh           -2188.09827 eV
Kinetic Energy     :           40.19882663 Eh            1093.86568 eV
Virial Ratio       :            2.00033542


---------------
SCF CONVERGENCE
---------------

  Last Energy change         ...    1.4400e-05  Tolerance :   1.0000e-08
  Last MAX-Density change    ...    8.0248e-07  Tolerance :   1.0000e-07
  Last RMS-Density change    ...    5.6546e-08  Tolerance :   5.0000e-09
  Last DIIS Error            ...    4.4115e-07  Tolerance :   5.0000e-07

             **** THE GBW FILE WAS UPDATED (methane.gbw) ****
             **** DENSITY FILE WAS UPDATED (methane.scfp) ****
             **** ENERGY FILE WAS UPDATED (methane.en.tmp) ****
----------------------
UHF SPIN CONTAMINATION
----------------------

Expectation value of <S**2>     :    -0.000000
Ideal value S*(S+1) for S=0.0   :     0.000000
Deviation                       :    -0.000000

             **** THE GBW FILE WAS UPDATED (methane.gbw) ****
             **** DENSITY FILE WAS UPDATED (methane.scfp) ****
----------------
ORBITAL ENERGIES
----------------
                 SPIN UP ORBITALS
  NO   OCC          E(Eh)            E(eV) 
   0   1.0000     -11.202615      -304.8387 
   1   1.0000      -0.944713       -25.7069 
   2   1.0000      -0.546062       -14.8591 
   3   1.0000      -0.546062       -14.8591 
   4   1.0000      -0.546062       -14.8591 
   5   0.0000       0.148983         4.0540 
   6   0.0000       0.229287         6.2392 
   7   0.0000       0.229287         6.2392 
   8   0.0000       0.229287         6.2392 
   9   0.0000       0.419349        11.4111 
  10   0.0000       0.419349        11.4111 
  11   0.0000       0.419349        11.4111 
  12   0.0000       0.670041        18.2327 
  13   0.0000       0.672973        18.3125 
  14   0.0000       0.672973        18.3125 
  15   0.0000       0.682862        18.5816 
  16   0.0000       0.682862        18.5816 
  17   0.0000       0.682862        18.5816 
  18   0.0000       0.815528        22.1916 
  19   0.0000       1.062160        28.9028 
  20   0.0000       1.062160        28.9028 
  21   0.0000       1.062160        28.9028 
  22   0.0000       1.203892        32.7596 
  23   0.0000       1.203892        32.7596 
  24   0.0000       1.203892        32.7596 
  25   0.0000       1.331862        36.2418 
  26   0.0000       1.331862        36.2418 
  27   0.0000       1.331862        36.2418 
  28   0.0000       1.593475        43.3607 
  29   0.0000       1.593475        43.3607 
  30   0.0000       1.632502        44.4226 
  31   0.0000       1.632502        44.4226 
  32   0.0000       1.632502        44.4226 
  33   0.0000       1.718504        46.7629 
  34   0.0000       2.537854        69.0585 
  35   0.0000       2.537854        69.0585 
  36   0.0000       2.537854        69.0585 
  37   0.0000       2.656835        72.2961 
  38   0.0000       3.272930        89.0610 
  39   0.0000       3.272930        89.0610 
  40   0.0000       3.272930        89.0610 
  41   0.0000       3.453628        93.9780 
  42   0.0000       3.453628        93.9780 
  43   0.0000       3.453628        93.9780 
  44   0.0000       3.585427        97.5644 
  45   0.0000       3.585427        97.5644 
  46   0.0000       3.665890        99.7539 
  47   0.0000       3.665890        99.7539 
  48   0.0000       3.665890        99.7539 
  49   0.0000       4.234796       115.2347 
  50   0.0000       4.234796       115.2347 
  51   0.0000       4.234796       115.2347 
  52   0.0000       4.269773       116.1864 
  53   0.0000       4.464953       121.4975 
  54   0.0000       4.464953       121.4975 
  55   0.0000       4.556712       123.9944 
  56   0.0000       4.556712       123.9944 
  57   0.0000       4.556712       123.9944 
  58   0.0000       4.806825       130.8004 
  59   0.0000       4.806825       130.8004 
  60   0.0000       4.806825       130.8004 
  61   0.0000       5.227232       142.2402 
  62   0.0000       6.058169       164.8512 
  63   0.0000       6.058169       164.8512 
  64   0.0000       6.058169       164.8512 
  65   0.0000      25.493993       693.7268 

                 SPIN DOWN ORBITALS
  NO   OCC          E(Eh)            E(eV) 
   0   1.0000     -11.202615      -304.8387 
   1   1.0000      -0.944713       -25.7069 
   2   1.0000      -0.546062       -14.8591 
   3   1.0000      -0.546062       -14.8591 
   4   1.0000      -0.546062       -14.8591 
   5   0.0000       0.148983         4.0540 
   6   0.0000       0.229287         6.2392 
   7   0.0000       0.229287         6.2392 
   8   0.0000       0.229287         6.2392 
   9   0.0000       0.419349        11.4111 
  10   0.0000       0.419349        11.4111 
  11   0.0000       0.419349        11.4111 
  12   0.0000       0.670041        18.2327 
  13   0.0000       0.672973        18.3125 
  14   0.0000       0.672973        18.3125 
  15   0.0000       0.682862        18.5816 
  16   0.0000       0.682862        18.5816 
  17   0.0000       0.682862        18.5816 
  18   0.0000       0.815528        22.1916 
  19   0.0000       1.062160        28.9028 
  20   0.0000       1.062160        28.9028 
  21   0.0000       1.062160        28.9028 
  22   0.0000       1.203892        32.7596 
  23   0.0000       1.203892        32.7596 
  24   0.0000       1.203892        32.7596 
  25   0.0000       1.331862        36.2418 
  26   0.0000       1.331862        36.2418 
  27   0.0000       1.331862        36.2418 
  28   0.0000       1.593475        43.3607 
  29   0.0000       1.593475        43.3607 
  30   0.0000       1.632502        44.4226 
  31   0.0000       1.632502        44.4226 
  32   0.0000       1.632502        44.4226 
  33   0.0000       1.718504        46.7629 
  34   0.0000       2.537854        69.0585 
  35   0.0000       2.537854        69.0585 
  36   0.0000       2.537854        69.0585 
  37   0.0000       2.656835        72.2961 
  38   0.0000       3.272930        89.0610 
  39   0.0000       3.272930        89.0610 
  40   0.0000       3.272930        89.0610 
  41   0.0000       3.453628        93.9780 
  42   0.0000       3.453628        93.9780 
  43   0.0000       3.453628        93.9780 
  44   0.0000       3.585427        97.5644 
  45   0.0000       3.585427        97.5644 
  46   0.0000       3.665890        99.7539 
  47   0.0000       3.665890        99.7539 
  48   0.0000       3.665890        99.7539 
  49   0.0000       4.234796       115.2347 
  50   0.0000       4.234796       115.2347 
  51   0.0000       4.234796       115.2347 
  52   0.0000       4.269773       116.1864 
  53   0.0000       4.464953       121.4975 
  54   0.0000       4.464953       121.4975 
  55   0.0000       4.556712       123.9944 
  56   0.0000       4.556712       123.9944 
  57   0.0000       4.556712       123.9944 
  58   0.0000       4.806825       130.8004 
  59   0.0000       4.806825       130.8004 
  60   0.0000       4.806825       130.8004 
  61   0.0000       5.227232       142.2402 
  62   0.0000       6.058169       164.8512 
  63   0.0000       6.058169       164.8512 
  64   0.0000       6.058169       164.8512 
  65   0.0000      25.493993       693.7268 
------------------
MOLECULAR ORBITALS
------------------
                      0         1         2         3         4         5   
                 -11.20262  -0.94471  -0.54606  -0.54606  -0.54606   0.14898
                   1.00000   1.00000   1.00000   1.00000   1.00000   0.00000
                  --------  --------  --------  --------  --------  --------
  0C   1s        -0.563299  0.102918  0.000000 -0.000000  0.000000  0.045850
  0C   2s        -0.466434  0.170803  0.000000  0.000000  0.000000  0.082645
  0C   1pz        0.000000 -0.000000 -0.011044 -0.123601 -0.146440  0.000000
  0C   1px        0.000000  0.000000  0.184526  0.032708 -0.041524  0.000000
  0C   1py        0.000000 -0.000000 -0.051692  0.143167 -0.116940 -0.000000
  0C   3s        -0.005048 -0.421982 -0.000000 -0.000000 -0.000000 -0.176342
  0C   2pz       -0.000000 -0.000000 -0.016612 -0.185913 -0.220267  0.000000
  0C   2px       -0.000000 -0.000000  0.277553  0.049198 -0.062457 -0.000000
  0C   2py       -0.000000  0.000000 -0.077752  0.215344 -0.175894 -0.000000
  0C   4s        -0.002389 -0.232542 -0.000000 -0.000000 -0.000000 -3.511583
  0C   3pz       -0.000000 -0.000000 -0.010223 -0.114414 -0.135556  0.000000
  0C   3px       -0.000000 -0.000000  0.170811  0.030277 -0.038437 -0.000000
  0C   3py       -0.000000  0.000000 -0.047850  0.132526 -0.108248 -0.000000
  0C   1dz2       0.000000 -0.000000 -0.000000 -0.000000 -0.000000 -0.000000
  0C   1dxz       0.000000 -0.000000 -0.005064  0.014025 -0.011456  0.000000
  0C   1dyz      -0.000000  0.000000  0.018077  0.003204 -0.004068  0.000000
  0C   1dx2y2     0.000000 -0.000000  0.000000 -0.000000  0.000000 -0.000000
  0C   1dxy      -0.000000  0.000000 -0.001082 -0.012108 -0.014346 -0.000000
  0C   2dz2      -0.000000  0.000000  0.000000 -0.000000 -0.000000  0.000000
  0C   2dxz      -0.000000  0.000000 -0.005055  0.014002 -0.011437 -0.000000
  0C   2dyz      -0.000000 -0.000000  0.018047  0.003199 -0.004061 -0.000000
  0C   2dx2y2    -0.000000  0.000000  0.000000  0.000000  0.000000  0.000000
  0C   2dxy      -0.000000 -0.000000 -0.001080 -0.012088 -0.014322  0.000000
  0C   1f0        0.000000  0.000000 -0.000005 -0.000054 -0.000064 -0.000000
  0C   1f+1      -0.000000 -0.000000 -0.000050 -0.000009  0.000011 -0.000000
  0C   1f-1      -0.000000  0.000000  0.000014 -0.000039  0.000031 -0.000000
  0C   1f+2       0.000000 -0.000000 -0.000000  0.000000  0.000000 -0.000000
  0C   1f-2      -0.000607 -0.007145 -0.000000 -0.000000 -0.000000 -0.024258
  0C   1f+3      -0.000000 -0.000000 -0.000064 -0.000011  0.000014 -0.000000
  0C   1f-3       0.000000 -0.000000 -0.000018  0.000050 -0.000041  0.000000
  1H   1s        -0.000266 -0.082032 -0.076198 -0.158603  0.006367 -0.007963
  1H   2s         0.000772 -0.113525 -0.120889 -0.251625  0.010102  0.268957
  1H   3s         0.000175 -0.014417 -0.056813 -0.118254  0.004748  0.962389
  1H   1pz       -0.000034  0.004182  0.004091  0.006168 -0.003778  0.006649
  1H   1px        0.000034 -0.004182 -0.000046 -0.008288 -0.000605 -0.006649
  1H   1py        0.000034 -0.004182 -0.005553 -0.005712 -0.002363 -0.006649
  1H   2pz       -0.000219  0.009117  0.007124  0.009030 -0.009089 -0.098795
  1H   2px        0.000219 -0.009117  0.002875 -0.014268 -0.001745  0.098795
  1H   2py        0.000219 -0.009117 -0.010740 -0.007902 -0.006091  0.098795
  2H   1s        -0.000266 -0.082032  0.130950  0.006960  0.117495 -0.007963
  2H   2s         0.000772 -0.113525  0.207754  0.011042  0.186408  0.268957
  2H   3s         0.000175 -0.014417  0.097637  0.005189  0.087605  0.962389
  2H   1pz        0.000034 -0.004182  0.007215 -0.002485  0.003290 -0.006649
  2H   1px       -0.000034  0.004182 -0.003170  0.000365 -0.007673  0.006649
  2H   1py        0.000034 -0.004182  0.006267  0.003735  0.003978 -0.006649
  2H   2pz        0.000219 -0.009117  0.012701 -0.006415  0.003527  0.098795
  2H   2px       -0.000219  0.009117 -0.002702  0.001176 -0.014360 -0.098795
  2H   2py        0.000219 -0.009117  0.010358  0.008960  0.005227  0.098795
  3H   1s        -0.000266 -0.082032 -0.119252  0.123958  0.037615 -0.007963
  3H   2s         0.000772 -0.113525 -0.189195  0.196661  0.059676  0.268957
  3H   3s         0.000175 -0.014417 -0.088915  0.092423  0.028045  0.962389
  3H   1pz        0.000034 -0.004182 -0.007062  0.004192 -0.001268 -0.006649
  3H   1px        0.000034 -0.004182 -0.002502  0.007836  0.001178 -0.006649
  3H   1py       -0.000034  0.004182  0.005600 -0.003735 -0.004873  0.006649
  3H   2pz        0.000219 -0.009117 -0.012782  0.005501 -0.004609  0.098795
  3H   2px        0.000219 -0.009117 -0.001510  0.014510  0.001438  0.098795
  3H   2py       -0.000219  0.009117  0.009166 -0.004373 -0.010571 -0.098795
  4H   1s        -0.000266 -0.082032  0.064500  0.027685 -0.161477 -0.007963
  4H   2s         0.000772 -0.113525  0.102330  0.043923 -0.256185  0.268957
  4H   3s         0.000175 -0.014417  0.048091  0.020642 -0.120398  0.962389
  4H   1pz       -0.000034  0.004182 -0.003938 -0.004462  0.005800  0.006649
  4H   1px       -0.000034  0.004182  0.000622 -0.000817  0.008246  0.006649
  4H   1py       -0.000034  0.004182 -0.004886  0.001758  0.006488  0.006649
  4H   2pz       -0.000219  0.009117 -0.007206 -0.009944  0.008006 -0.098795
  4H   2px       -0.000219  0.009117  0.004066 -0.000934  0.014053 -0.098795
  4H   2py       -0.000219  0.009117 -0.009549  0.005432  0.009706 -0.098795
                      6         7         8         9        10        11   
                   0.22929   0.22929   0.22929   0.41935   0.41935   0.41935
                   0.00000   0.00000   0.00000   0.00000   0.00000   0.00000
                  --------  --------  --------  --------  --------  --------
  0C   1s        -0.000000  0.000000  0.000000  0.000000  0.000000  0.000000
  0C   2s        -0.000000  0.000000  0.000000  0.000000  0.000000  0.000000
  0C   1pz        0.012487 -0.066912 -0.082613  0.014688  0.005535  0.022361
  0C   1px        0.065298  0.070468 -0.047206  0.005147 -0.026638  0.003213
  0C   1py       -0.083894  0.044889 -0.049038 -0.022454 -0.002485  0.015364
  0C   3s         0.000000 -0.000000 -0.000000 -0.000000 -0.000000 -0.000000
  0C   2pz        0.034226 -0.183406 -0.226440 -0.075671 -0.028518 -0.115205
  0C   2px        0.178982  0.193152 -0.129391 -0.026516  0.137238 -0.016555
  0C   2py       -0.229953  0.123040 -0.134414  0.115682  0.012803 -0.079154
  0C   4s        -0.000000  0.000000 -0.000000  0.000000  0.000000  0.000000
  0C   3pz        0.198373 -1.062998 -1.312422 -1.102529 -0.415503 -1.678545
  0C   3px        1.037358  1.119489 -0.749935 -0.386343  1.999571 -0.241205
  0C   3py       -1.332781  0.713126 -0.779047  1.685495  0.186543 -1.153271
  0C   1dz2      -0.000000 -0.000000 -0.000000  0.000000  0.000000 -0.000000
  0C   1dxz       0.005568 -0.002979  0.003255 -0.025569 -0.002830  0.017495
  0C   1dyz      -0.004334 -0.004677  0.003133  0.005861 -0.030334  0.003659
  0C   1dx2y2    -0.000000  0.000000 -0.000000  0.000000  0.000000 -0.000000
  0C   1dxy      -0.000829  0.004441  0.005483  0.016725  0.006303  0.025464
  0C   2dz2       0.000000  0.000000  0.000000 -0.000000 -0.000000  0.000000
  0C   2dxz      -0.143732  0.076906 -0.084015  0.273276  0.030245 -0.186984
  0C   2dyz       0.111872  0.120730 -0.080876 -0.062639  0.324198 -0.039107
  0C   2dx2y2     0.000000 -0.000000  0.000000 -0.000000 -0.000000 -0.000000
  0C   2dxy       0.021393 -0.114638 -0.141536 -0.178757 -0.067367 -0.272149
  0C   1f0       -0.000463  0.002481  0.003063  0.020433  0.007700  0.031108
  0C   1f+1       0.001483  0.001600 -0.001072 -0.004385  0.022693 -0.002737
  0C   1f-1      -0.001905  0.001019 -0.001114  0.019129  0.002117 -0.013088
  0C   1f+2      -0.000000  0.000000 -0.000000  0.000000 -0.000000  0.000000
  0C   1f-2      -0.000000  0.000000  0.000000  0.000000  0.000000  0.000000
  0C   1f+3       0.001914  0.002066 -0.001384 -0.005661  0.029297 -0.003534
  0C   1f-3       0.002459 -0.001316  0.001438 -0.024695 -0.002733  0.016897
  1H   1s        -0.000534  0.003134 -0.000234  0.042608  0.046155  0.005040
  1H   2s        -0.052225  0.306246 -0.022904  1.241090  1.344409  0.146796
  1H   3s        -0.451773  2.649189 -0.198130  0.135519  0.146801  0.016029
  1H   1pz       -0.001990  0.012297 -0.009657 -0.013233 -0.008616 -0.012933
  1H   1px        0.009747 -0.011943 -0.003289  0.002301  0.020248 -0.001163
  1H   1py       -0.005131 -0.014493 -0.003471  0.017514  0.006935 -0.007860
  1H   2pz        0.023693 -0.141612  0.047737 -0.082431 -0.089360 -0.009617
  1H   2px       -0.056671  0.140104  0.007301  0.082559  0.089224  0.009782
  1H   2py        0.006581  0.150949  0.008078  0.082381  0.089379  0.009860
  2H   1s        -0.002351 -0.001590 -0.001452  0.017197 -0.039536 -0.045960
  2H   2s        -0.229690 -0.155403 -0.141883  0.500900 -1.151614 -1.338722
  2H   3s        -1.986943 -1.344315 -1.227366  0.054695 -0.125749 -0.146180
  2H   1pz        0.015473  0.002954  0.000550 -0.006022 -0.007818 -0.017867
  2H   1px       -0.007716 -0.002599 -0.013496 -0.004910  0.019450  0.003771
  2H   1py        0.005862  0.014102  0.003898  0.014450 -0.003398 -0.014010
  2H   2pz       -0.132782 -0.057887 -0.043727  0.033402 -0.076540 -0.088873
  2H   2px        0.099805  0.056380  0.098765 -0.033274  0.076404  0.089038
  2H   2py       -0.091921 -0.105287 -0.057961  0.033162 -0.076592 -0.088918
  3H   1s         0.002780 -0.000711 -0.001389 -0.056317  0.024794 -0.013598
  3H   2s         0.271651 -0.069447 -0.135725 -1.640383  0.722184 -0.396085
  3H   3s         2.349925 -0.600754 -1.174097 -0.179120  0.078858 -0.043250
  3H   1pz       -0.015582 -0.002371  0.000169 -0.014886 -0.000061 -0.013965
  3H   1px       -0.010315  0.011329  0.003700 -0.009627  0.017672 -0.003411
  3H   1py        0.008461  0.000175 -0.013297  0.019167 -0.001620 -0.006828
  3H   2pz        0.145485 -0.010178 -0.040309 -0.108981  0.048057 -0.026193
  3H   2px        0.123095 -0.068422 -0.055320 -0.109043  0.047849 -0.026317
  3H   2py       -0.115211  0.019515  0.096124  0.108931 -0.048037  0.026436
  4H   1s         0.000105 -0.000833  0.003076 -0.003488 -0.031412  0.054519
  4H   2s         0.010264 -0.081396  0.300513 -0.101607 -0.914979  1.588011
  4H   3s         0.088792 -0.704120  2.599593 -0.011095 -0.099910  0.173401
  4H   1pz        0.001881 -0.011714  0.010376 -0.007675  0.000737 -0.018899
  4H   1px        0.007147  0.001985  0.013907 -0.002416  0.018470 -0.008345
  4H   1py       -0.007730 -0.000566  0.013724  0.012797  0.005157 -0.015042
  4H   2pz       -0.010991  0.073547 -0.131773  0.006851  0.060877 -0.105449
  4H   2px       -0.033381  0.015303 -0.146785  0.006789  0.060669 -0.105573
  4H   2py        0.029871  0.026147 -0.146008  0.006612  0.060825 -0.105495
                     12        13        14        15        16        17   
                   0.67004   0.67297   0.67297   0.68286   0.68286   0.68286
                   0.00000   0.00000   0.00000   0.00000   0.00000   0.00000
                  --------  --------  --------  --------  --------  --------
  0C   1s        -0.088584 -0.000000  0.000000  0.000000 -0.000000 -0.000000
  0C   2s        -0.151303 -0.000000  0.000000  0.000000 -0.000000 -0.000000
  0C   1pz       -0.000000  0.000000  0.000000 -0.033866  0.064250  0.262974
  0C   1px        0.000000 -0.000000  0.000000 -0.127813 -0.237420  0.041546
  0C   1py        0.000000 -0.000000  0.000000  0.238637 -0.118043  0.059572
  0C   3s         0.533969  0.000000 -0.000000 -0.000000  0.000000  0.000000
  0C   2pz        0.000000 -0.000000  0.000000 -0.001570  0.002979  0.012194
  0C   2px       -0.000000 -0.000000 -0.000000 -0.005926 -0.011009  0.001926
  0C   2py       -0.000000 -0.000000 -0.000000  0.011065 -0.005473  0.002762
  0C   4s        -4.981718 -0.000000  0.000000  0.000000 -0.000000 -0.000000
  0C   3pz        0.000000 -0.000000 -0.000000  0.397852 -0.754790 -3.089365
  0C   3px       -0.000000  0.000000 -0.000000  1.501515  2.789159 -0.488077
  0C   3py       -0.000000  0.000000 -0.000000 -2.803451  1.386744 -0.699839
  0C   1dz2      -0.000000 -0.009559 -0.022278  0.000000 -0.000000  0.000000
  0C   1dxz      -0.000000  0.000000 -0.000000 -0.007752  0.003835 -0.001935
  0C   1dyz      -0.000000  0.000000 -0.000000  0.004152  0.007713 -0.001350
  0C   1dx2y2    -0.000000  0.022278 -0.009559  0.000000 -0.000000 -0.000000
  0C   1dxy       0.000000 -0.000000 -0.000000  0.001100 -0.002087 -0.008543
  0C   2dz2      -0.000000 -0.033458 -0.077974  0.000000 -0.000000  0.000000
  0C   2dxz      -0.000000  0.000000 -0.000000 -0.815239  0.403263 -0.203512
  0C   2dyz      -0.000000  0.000000 -0.000000  0.436638  0.811082 -0.141932
  0C   2dx2y2    -0.000000  0.077974 -0.033458  0.000000 -0.000000 -0.000000
  0C   2dxy       0.000000 -0.000000 -0.000000  0.115695 -0.219492 -0.898382
  0C   1f0       -0.000000  0.000000  0.000000 -0.004897  0.009291  0.038028
  0C   1f+1      -0.000000  0.000000 -0.000000  0.011318  0.021024 -0.003679
  0C   1f-1      -0.000000  0.000000 -0.000000 -0.021132  0.010453 -0.005275
  0C   1f+2      -0.000000  0.000000 -0.000000 -0.000000  0.000000  0.000000
  0C   1f-2      -0.050351 -0.000000  0.000000  0.000000 -0.000000 -0.000000
  0C   1f+3      -0.000000  0.000000 -0.000000  0.014612  0.027142 -0.004750
  0C   1f-3       0.000000 -0.000000  0.000000  0.027282 -0.013495  0.006810
  1H   1s        -0.079584 -0.000000  0.000000  0.032510 -0.094303 -0.036367
  1H   2s         0.369894  0.000000 -0.000000 -0.420764  1.220540  0.470683
  1H   3s         0.920886  0.000000 -0.000000 -0.766042  2.222110  0.856924
  1H   1pz        0.006740  0.008635  0.020124 -0.001577  0.006501 -0.010999
  1H   1px       -0.006740  0.021745  0.002584  0.010744  0.003318 -0.006268
  1H   1py       -0.006740 -0.013110  0.017540 -0.010034 -0.003451 -0.007290
  1H   2pz       -0.362537 -0.142487 -0.332069  0.187710 -0.569898 -0.041805
  1H   2px        0.362537 -0.358824 -0.042637 -0.308508  0.440515  0.269326
  1H   2py        0.362537  0.216336 -0.289432 -0.034717  0.529707  0.282794
  2H   1s        -0.079584 -0.000000  0.000000  0.074726  0.041258  0.063137
  2H   2s         0.369894 -0.000000 -0.000000 -0.967164 -0.533993 -0.817159
  2H   3s         0.920886  0.000000 -0.000000 -1.760815 -0.972185 -1.487716
  2H   1pz       -0.006740 -0.008635 -0.020124  0.009959  0.000795 -0.008120
  2H   1px        0.006740 -0.021745 -0.002584 -0.000791  0.009024 -0.009147
  2H   1py       -0.006740 -0.013110  0.017540 -0.005493  0.011131  0.003414
  2H   2pz        0.362537  0.142487  0.332069 -0.514932 -0.222332 -0.217209
  2H   2px       -0.362537  0.358824  0.042637  0.394135  0.092948  0.444730
  2H   2py        0.362537  0.216336 -0.289432 -0.311333 -0.358531 -0.369180
  3H   1s        -0.079584 -0.000000  0.000000 -0.089945 -0.012386  0.055036
  3H   2s         0.369894  0.000000 -0.000000  1.164132  0.160313 -0.712320
  3H   3s         0.920886  0.000000 -0.000000  2.119414  0.291865 -1.296847
  3H   1pz       -0.006740 -0.008635 -0.020124 -0.007755 -0.004976 -0.008991
  3H   1px       -0.006740  0.021745  0.002584 -0.002428  0.012130  0.003565
  3H   1py        0.006740  0.013110 -0.017540 -0.003856  0.008026 -0.009298
  3H   2pz        0.362537  0.142487  0.332069  0.564042  0.129162 -0.164134
  3H   2px        0.362537 -0.358824 -0.042637  0.493851 -0.096228 -0.329573
  3H   2py       -0.362537 -0.216336  0.289432 -0.411049 -0.169354  0.405123
  4H   1s        -0.079584 -0.000000  0.000000 -0.017291  0.065431 -0.081806
  4H   2s         0.369894  0.000000 -0.000000  0.223796 -0.846860  1.058795
  4H   3s         0.920886  0.000000 -0.000000  0.407443 -1.541789  1.927638
  4H   1pz        0.006740  0.008635  0.020124  0.003780 -0.010682 -0.006111
  4H   1px        0.006740 -0.021745 -0.002584  0.009107  0.006424  0.006444
  4H   1py        0.006740  0.013110 -0.017540 -0.011671 -0.000345  0.005422
  4H   2pz       -0.362537 -0.142487 -0.332069 -0.138600  0.476729 -0.339538
  4H   2px       -0.362537  0.358824  0.042637 -0.208792  0.251338 -0.504977
  4H   2py       -0.362537 -0.216336  0.289432  0.064999  0.340530 -0.491509
                     18        19        20        21        22        23   
                   0.81553   1.06216   1.06216   1.06216   1.20389   1.20389
                   0.00000   0.00000   0.00000   0.00000   0.00000   0.00000
                  --------  --------  --------  --------  --------  --------
  0C   1s         0.022902 -0.000000  0.000000 -0.000000  0.000000 -0.000000
  0C   2s         0.044027 -0.000000  0.000000 -0.000000  0.000000 -0.000000
  0C   1pz       -0.000000 -0.000000 -0.000000 -0.000000 -0.006536 -0.027971
  0C   1px       -0.000000 -0.000000 -0.000000 -0.000000 -0.023927 -0.026010
  0C   1py        0.000000 -0.000000 -0.000000  0.000000 -0.036480  0.022071
  0C   3s        -0.738020  0.000000 -0.000000  0.000000 -0.000000  0.000000
  0C   2pz       -0.000000 -0.000000 -0.000000 -0.000000 -0.057673 -0.246812
  0C   2px        0.000000 -0.000000  0.000000 -0.000000 -0.211126 -0.229507
  0C   2py        0.000000 -0.000000 -0.000000  0.000000 -0.321896  0.194750
  0C   4s         7.916543 -0.000000  0.000000 -0.000000  0.000000 -0.000000
  0C   3pz        0.000000 -0.000000  0.000000 -0.000000 -0.249714 -1.068658
  0C   3px        0.000000 -0.000000 -0.000000 -0.000000 -0.914139 -0.993730
  0C   3py       -0.000000 -0.000000 -0.000000 -0.000000 -1.393759  0.843235
  0C   1dz2       0.000000 -0.000000 -0.000000 -0.000000 -0.000000  0.000000
  0C   1dxz      -0.000000 -0.000000  0.000000 -0.000000  0.008131 -0.004919
  0C   1dyz      -0.000000  0.000000 -0.000000  0.000000  0.005333  0.005797
  0C   1dx2y2    -0.000000 -0.000000  0.000000  0.000000 -0.000000 -0.000000
  0C   1dxy       0.000000  0.000000  0.000000 -0.000000  0.001457  0.006234
  0C   2dz2      -0.000000  0.000000 -0.000000 -0.000000  0.000000 -0.000000
  0C   2dxz      -0.000000  0.000000 -0.000000  0.000000 -1.541845  0.932827
  0C   2dyz       0.000000 -0.000000  0.000000 -0.000000 -1.011266 -1.099312
  0C   2dx2y2    -0.000000  0.000000 -0.000000 -0.000000  0.000000  0.000000
  0C   2dxy       0.000000 -0.000000 -0.000000  0.000000 -0.276246 -1.182202
  0C   1f0       -0.000000  0.000000  0.000000 -0.000000  0.009463  0.040495
  0C   1f+1       0.000000  0.025134 -0.013904 -0.028469 -0.021213 -0.023060
  0C   1f-1       0.000000  0.019774  0.035277  0.000228 -0.032342  0.019567
  0C   1f+2       0.000000  0.031313 -0.017787  0.036332 -0.000000 -0.000000
  0C   1f-2       0.114430 -0.000000  0.000000 -0.000000  0.000000  0.000000
  0C   1f+3       0.000000 -0.019469  0.010770  0.022052 -0.027385 -0.029770
  0C   1f-3      -0.000000  0.015317  0.027326  0.000177  0.041754 -0.025261
  1H   1s        -0.018716 -0.000000 -0.000000  0.000000  0.055656 -0.024828
  1H   2s        -1.854290  0.000000 -0.000000  0.000000 -1.800124  0.803041
  1H   3s        -0.723695  0.000000 -0.000000  0.000000  0.052231 -0.023300
  1H   1pz        0.012983 -0.029541 -0.014059  0.018577  0.028619 -0.017918
  1H   1px       -0.012983 -0.029292 -0.013956 -0.019045 -0.033699  0.008916
  1H   1py       -0.012983 -0.000250 -0.000103  0.037622 -0.035793  0.016934
  1H   2pz        0.222317  0.531895  0.253139 -0.334481 -0.093915  0.035831
  1H   2px       -0.222317  0.527398  0.251277  0.342900  0.087933 -0.046430
  1H   2py       -0.222317  0.004497  0.001863 -0.677382  0.085468 -0.036989
  2H   1s        -0.018716 -0.000000 -0.000000  0.000000  0.019722 -0.020776
  2H   2s        -1.854290  0.000000 -0.000000  0.000000 -0.637888  0.671974
  2H   3s        -0.723695  0.000000 -0.000000  0.000000  0.018508 -0.019497
  2H   1pz       -0.012983 -0.003526  0.032352  0.018877 -0.011618  0.006425
  2H   1px        0.012983 -0.003276  0.032456 -0.018744  0.006537 -0.015428
  2H   1py       -0.012983  0.000250  0.000103 -0.037622 -0.016612  0.014771
  2H   2pz       -0.222317  0.063488 -0.582507 -0.339889  0.031541 -0.040071
  2H   2px        0.222317  0.058992 -0.584370  0.337493 -0.037523  0.029471
  2H   2py       -0.222317 -0.004497 -0.001863  0.677382  0.025661 -0.030245
  3H   1s        -0.018716  0.000000 -0.000000  0.000000 -0.006217  0.078572
  3H   2s        -1.854290 -0.000000 -0.000000 -0.000000  0.201080 -2.541307
  3H   3s        -0.723695  0.000000 -0.000000  0.000000 -0.005834  0.073737
  3H   1pz       -0.012983  0.003526 -0.032352 -0.018877  0.002229 -0.046606
  3H   1px       -0.012983  0.029292  0.013956  0.019045 -0.000672 -0.046279
  3H   1py        0.012983  0.032818 -0.018397  0.000167 -0.009402  0.045622
  3H   2pz       -0.222317 -0.063488  0.582507  0.339889 -0.011631  0.125279
  3H   2px       -0.222317 -0.527398 -0.251277 -0.342900 -0.015045  0.125664
  3H   2py        0.222317 -0.590886  0.331230 -0.003012  0.003184 -0.126437
  4H   1s        -0.018716 -0.000000 -0.000000 -0.000000 -0.069161 -0.032967
  4H   2s        -1.854290  0.000000  0.000000  0.000000  2.236932  1.066292
  4H   3s        -0.723695 -0.000000 -0.000000  0.000000 -0.064905 -0.030939
  4H   1pz        0.012983  0.029541  0.014059 -0.018577 -0.038008 -0.022263
  4H   1px        0.012983  0.003276 -0.032456  0.018744 -0.040908 -0.021936
  4H   1py        0.012983 -0.032818  0.018397 -0.000167 -0.043002 -0.013917
  4H   2pz        0.222317 -0.531895 -0.253139  0.334481  0.113825  0.049377
  4H   2px        0.222317 -0.058992  0.584370 -0.337493  0.110410  0.049762
  4H   2py        0.222317  0.590886 -0.331230  0.003012  0.107945  0.059203
                     24        25        26        27        28        29   
                   1.20389   1.33186   1.33186   1.33186   1.59348   1.59348
                   0.00000   0.00000   0.00000   0.00000   0.00000   0.00000
                  --------  --------  --------  --------  --------  --------
  0C   1s        -0.000000 -0.000000 -0.000000 -0.000000  0.000000  0.000000
  0C   2s        -0.000000  0.000000 -0.000000 -0.000000  0.000000  0.000000
  0C   1pz       -0.033480  0.006135 -0.068411 -0.070915  0.000000 -0.000000
  0C   1px        0.026401 -0.008260  0.070446 -0.068672 -0.000000 -0.000000
  0C   1py       -0.011317 -0.098187 -0.010201  0.001346 -0.000000 -0.000000
  0C   3s         0.000000 -0.000000  0.000000  0.000000 -0.000000 -0.000000
  0C   2pz       -0.295423  0.005933 -0.066154 -0.068576  0.000000 -0.000000
  0C   2px        0.232959 -0.007987  0.068122 -0.066407 -0.000000 -0.000000
  0C   2py       -0.099863 -0.094948 -0.009864  0.001301 -0.000000 -0.000000
  0C   4s        -0.000000 -0.000000  0.000000 -0.000000 -0.000000  0.000000
  0C   3pz       -1.279135  0.128303 -1.430612 -1.482992  0.000000  0.000000
  0C   3px        1.008674 -0.172729  1.473167 -1.436078 -0.000000 -0.000000
  0C   3py       -0.432392 -2.053310 -0.213319  0.028140 -0.000000 -0.000000
  0C   1dz2      -0.000000 -0.000000 -0.000000  0.000000  0.004833  0.001880
  0C   1dxz       0.002522 -0.028600 -0.002971  0.000392  0.000000  0.000000
  0C   1dyz      -0.005884 -0.002406  0.020519 -0.020003  0.000000  0.000000
  0C   1dx2y2     0.000000 -0.000000  0.000000 -0.000000  0.001880 -0.004833
  0C   1dxy       0.007462  0.001787 -0.019926 -0.020656 -0.000000  0.000000
  0C   2dz2      -0.000000  0.000000 -0.000000 -0.000000  2.472349  0.961431
  0C   2dxz      -0.478334  1.010368  0.104968 -0.013847 -0.000000 -0.000000
  0C   2dyz       1.115845  0.084995 -0.724899  0.706648 -0.000000 -0.000000
  0C   2dx2y2    -0.000000  0.000000 -0.000000  0.000000  0.961431 -2.472349
  0C   2dxy      -1.415042 -0.063134  0.703958  0.729733  0.000000 -0.000000
  0C   1f0        0.048471  0.002575 -0.028717 -0.029768 -0.000000  0.000000
  0C   1f+1       0.023406  0.002123 -0.018108  0.017652 -0.000000 -0.000000
  0C   1f-1      -0.010034  0.025240  0.002622 -0.000346 -0.000000 -0.000000
  0C   1f+2       0.000000 -0.000000 -0.000000 -0.000000 -0.000000 -0.000000
  0C   1f-2      -0.000000 -0.000000  0.000000  0.000000  0.000000  0.000000
  0C   1f+3       0.030217  0.002741 -0.023378  0.022789 -0.000000 -0.000000
  0C   1f-3       0.012953 -0.032584 -0.003385  0.000447  0.000000  0.000000
  1H   1s        -0.050173  0.020148 -0.023024 -0.000642 -0.000000 -0.000000
  1H   2s         1.622779 -0.060308  0.068918  0.001923 -0.000000 -0.000000
  1H   3s        -0.047085 -0.424235  0.484801  0.013524 -0.000000 -0.000000
  1H   1pz       -0.032366 -0.028237 -0.006194 -0.043401  0.050787  0.019750
  1H   1px        0.031185  0.026907  0.007469 -0.044041  0.008290  0.053858
  1H   1py        0.024895 -0.029428 -0.043051 -0.000180  0.042497 -0.034108
  1H   2pz        0.076931  0.302736  0.450698  0.907935 -0.920814 -0.358080
  1H   2px       -0.078321 -0.275171 -0.477101  0.903204 -0.150300 -0.976489
  1H   2py       -0.085728  0.891636  0.569280 -0.005271 -0.770514  0.618408
  2H   1s         0.073558  0.014995  0.026675  0.000161  0.000000  0.000000
  2H   2s        -2.379135 -0.044886 -0.079846 -0.000481  0.000000  0.000000
  2H   3s         0.069031 -0.315747 -0.561678 -0.003383  0.000000  0.000000
  2H   1pz       -0.044849  0.027720 -0.000381 -0.044168 -0.050787 -0.019750
  2H   1px        0.043668 -0.029051  0.001656 -0.043275 -0.008290 -0.053858
  2H   1py       -0.041153 -0.037631  0.036084  0.001099  0.042497 -0.034108
  2H   2pz        0.115852 -0.364172  0.381412  0.917074  0.920814  0.358080
  2H   2px       -0.117242  0.391737 -0.407816  0.894064  0.150300  0.976489
  2H   2py        0.120204  0.989410 -0.373857 -0.020509 -0.770514  0.618408
  3H   1s        -0.004379 -0.017191 -0.002190  0.025221  0.000000 -0.000000
  3H   2s         0.141628  0.051459  0.006554 -0.075495  0.000000 -0.000000
  3H   3s        -0.004109  0.361985  0.046107 -0.531065  0.000000 -0.000000
  3H   1pz       -0.003246 -0.023530 -0.046342 -0.004265 -0.050787 -0.019750
  3H   1px        0.006740 -0.032548  0.040643 -0.002859  0.008290  0.053858
  3H   1py       -0.004225 -0.034135 -0.002904 -0.039316 -0.042497  0.034108
  3H   2pz       -0.013862  0.246634  0.929177  0.441501  0.920814  0.358080
  3H   2px       -0.002104  0.433409 -0.872474  0.412393 -0.150300 -0.976489
  3H   2py        0.005066  0.947738  0.090800  0.461162  0.770514 -0.618408
  4H   1s        -0.019006 -0.017952 -0.001461 -0.024740  0.000000  0.000000
  4H   2s         0.614728  0.053735  0.004374  0.074053  0.000000  0.000000
  4H   3s        -0.017836  0.377996  0.030770  0.520924  0.000000  0.000000
  4H   1pz       -0.015729  0.032428 -0.040528 -0.005032  0.050787  0.019750
  4H   1px       -0.005742  0.023410  0.046457 -0.003626 -0.008290 -0.053858
  4H   1py       -0.012033 -0.032924 -0.004063  0.040235 -0.042497  0.034108
  4H   2pz        0.025059 -0.420274  0.859892  0.450641 -0.920814 -0.358080
  4H   2px        0.036817 -0.233499 -0.941759  0.421533  0.150300  0.976489
  4H   2py        0.029411  0.933308  0.104622 -0.486942  0.770514 -0.618408
                     30        31        32        33        34        35   
                   1.63250   1.63250   1.63250   1.71850   2.53785   2.53785
                   0.00000   0.00000   0.00000   0.00000   0.00000   0.00000
                  --------  --------  --------  --------  --------  --------
  0C   1s        -0.000000  0.000000  0.000000  0.115650  0.000000 -0.000000
  0C   2s        -0.000000  0.000000  0.000000  0.284290  0.000000 -0.000000
  0C   1pz       -0.137484  0.172180  0.153573 -0.000000 -0.002103  0.002345
  0C   1px       -0.213746 -0.027756 -0.160234  0.000000 -0.002984 -0.000664
  0C   1py       -0.086853 -0.204245  0.151238 -0.000000 -0.001016 -0.002901
  0C   3s         0.000000 -0.000000 -0.000000 -2.714058 -0.000000  0.000000
  0C   2pz       -1.242295  1.555807  1.387674 -0.000000  0.499045 -0.556592
  0C   2px       -1.931390 -0.250800 -1.447861  0.000000  0.708210  0.157669
  0C   2py       -0.784797 -1.845544  1.366576  0.000000  0.241224  0.688580
  0C   4s         0.000000 -0.000000 -0.000000 -5.187188 -0.000000  0.000000
  0C   3pz       -1.387259  1.737356  1.549603 -0.000000  0.404527 -0.451175
  0C   3px       -2.156766 -0.280066 -1.616813  0.000000  0.574076  0.127807
  0C   3py       -0.876376 -2.060902  1.526043  0.000000  0.195537  0.558164
  0C   1dz2      -0.000000 -0.000000 -0.000000 -0.000000  0.000000  0.000000
  0C   1dxz       0.005581  0.013124 -0.009718  0.000000  0.063825  0.182191
  0C   1dyz       0.013735  0.001784  0.010296 -0.000000  0.187385  0.041718
  0C   1dx2y2     0.000000  0.000000  0.000000  0.000000 -0.000000 -0.000000
  0C   1dxy       0.008834 -0.011064 -0.009868  0.000000  0.132042 -0.147269
  0C   2dz2      -0.000000 -0.000000 -0.000000 -0.000000  0.000000  0.000000
  0C   2dxz      -0.597059 -1.404054  1.039664  0.000000  0.084307  0.240657
  0C   2dyz      -1.469364 -0.190804 -1.101505  0.000000  0.247518  0.055105
  0C   2dx2y2     0.000000 -0.000000  0.000000 -0.000000 -0.000000  0.000000
  0C   2dxy      -0.945113  1.183628  1.055715 -0.000000  0.174415 -0.194528
  0C   1f0        0.023264 -0.029135 -0.025987  0.000000 -0.252619  0.281750
  0C   1f+1      -0.022149 -0.002876 -0.016604  0.000000  0.219535  0.048875
  0C   1f-1      -0.009000 -0.021164  0.015672  0.000000  0.074776  0.213450
  0C   1f+2       0.000000 -0.000000 -0.000000 -0.000000 -0.000000  0.000000
  0C   1f-2      -0.000000  0.000000  0.000000  0.095160 -0.000000  0.000000
  0C   1f+3      -0.028594 -0.003713 -0.021435  0.000000  0.283419  0.063097
  0C   1f-3       0.011619  0.027323 -0.020232 -0.000000 -0.096536 -0.275563
  1H   1s        -0.034787 -0.086199 -0.034671  0.134610 -0.309669 -0.964538
  1H   2s        -1.442464 -3.574274 -1.437635  1.412448  0.763588  2.378372
  1H   3s        -0.594684 -1.473563 -0.592693  0.655206 -0.049018 -0.152680
  1H   1pz       -0.020627 -0.028655 -0.007834  0.059332 -0.032265 -0.021089
  1H   1px        0.005248  0.034979  0.007542 -0.059332 -0.013147  0.036095
  1H   1py        0.010804  0.027251  0.021180 -0.059332  0.004419  0.016124
  1H   2pz        0.552874  1.300995  0.511944 -0.687722 -0.096029 -0.473843
  1H   2px       -0.505641 -1.320418 -0.511048  0.687722  0.195960  0.440822
  1H   2py       -0.522705 -1.296683 -0.552935  0.687722  0.157305  0.484768
  2H   1s        -0.002259 -0.000919  0.099179  0.134610 -0.022043  0.017657
  2H   2s        -0.093661 -0.038107  4.112506  1.412448  0.054353 -0.043539
  2H   3s        -0.038613 -0.015710  1.695460  0.655206 -0.003489  0.002795
  2H   1pz       -0.005071  0.007925 -0.034920 -0.059332 -0.017812  0.020167
  2H   1px       -0.010307 -0.001601  0.034629  0.059332 -0.027601 -0.005162
  2H   1py       -0.002854 -0.008557 -0.035023 -0.059332 -0.008113 -0.026671
  2H   2pz       -0.016209 -0.037272  1.502895  0.687722  0.051084 -0.053903
  2H   2px        0.063443  0.017850 -1.501999 -0.687722  0.048846  0.020882
  2H   2py       -0.023018  0.013350  1.503209  0.687722  0.029743  0.049166
  3H   1s        -0.056383  0.074360 -0.033675  0.134610 -0.664205  0.747724
  3H   2s        -2.337947  3.083370 -1.396339  1.412448  1.637806 -1.843750
  3H   3s        -0.963864  1.271179 -0.575668  0.655206 -0.105139  0.118359
  3H   1pz        0.017655 -0.023684  0.020864 -0.059332  0.010168 -0.011642
  3H   1px        0.014316 -0.032439  0.007124 -0.059332  0.002300 -0.038510
  3H   1py       -0.027478  0.022280 -0.007518  0.059332 -0.038014  0.006678
  3H   2pz       -0.847643  1.119132 -0.537950  0.687722  0.335882 -0.377686
  3H   2px       -0.837387  1.146019 -0.495749  0.687722  0.353196 -0.318563
  3H   2py        0.877812 -1.114820  0.496959 -0.687722 -0.274606  0.388612
  4H   1s         0.093429  0.012758 -0.030834  0.134610  0.995917  0.199156
  4H   2s         3.874073  0.529011 -1.278532  1.412448 -2.455748 -0.491083
  4H   3s         1.597161  0.218095 -0.527099  0.655206  0.157647  0.031525
  4H   1pz        0.033210  0.012896 -0.006223  0.059332  0.024621  0.029614
  4H   1px        0.029871  0.004142 -0.019963  0.059332  0.016753  0.002747
  4H   1py        0.035427 -0.003586 -0.006325  0.059332  0.034319 -0.017224
  4H   2pz       -1.416727 -0.219136  0.453001 -0.687722  0.482996  0.042254
  4H   2px       -1.406471 -0.192248  0.495202 -0.687722  0.500310  0.101377
  4H   2py       -1.423536 -0.168514  0.453315 -0.687722  0.461655  0.145323
                     36        37        38        39        40        41   
                   2.53785   2.65683   3.27293   3.27293   3.27293   3.45363
                   0.00000   0.00000   0.00000   0.00000   0.00000   0.00000
                  --------  --------  --------  --------  --------  --------
  0C   1s        -0.000000  0.057078  0.000000 -0.000000 -0.000000  0.000000
  0C   2s        -0.000000  0.165768  0.000000 -0.000000 -0.000000  0.000000
  0C   1pz       -0.002106 -0.000000  0.000000 -0.000000 -0.000000  0.254906
  0C   1px        0.002239 -0.000000  0.000000  0.000000  0.000000  0.018821
  0C   1py       -0.002215  0.000000 -0.000000  0.000000  0.000000 -0.104597
  0C   3s         0.000000 -1.672067 -0.000000  0.000000  0.000000 -0.000000
  0C   2pz        0.499956 -0.000000  0.000000  0.000000  0.000000 -0.950848
  0C   2px       -0.531390 -0.000000 -0.000000 -0.000000 -0.000000 -0.070204
  0C   2py        0.525799  0.000000  0.000000 -0.000000 -0.000000  0.390168
  0C   4s         0.000000 -7.356529 -0.000000  0.000000  0.000000 -0.000000
  0C   3pz        0.405265 -0.000000  0.000000  0.000000  0.000000 -1.023909
  0C   3px       -0.430746 -0.000000 -0.000000 -0.000000  0.000000 -0.075599
  0C   3py        0.426214  0.000000  0.000000 -0.000000 -0.000000  0.420147
  0C   1dz2      -0.000000 -0.000000 -0.000000 -0.000000 -0.000000 -0.000000
  0C   1dxz       0.139121  0.000000 -0.000000  0.000000  0.000000 -0.304633
  0C   1dyz      -0.140601  0.000000  0.000000  0.000000 -0.000000  0.054814
  0C   1dx2y2     0.000000  0.000000 -0.000000  0.000000 -0.000000  0.000000
  0C   1dxy       0.132283 -0.000000 -0.000000 -0.000000 -0.000000  0.742398
  0C   2dz2      -0.000000 -0.000000  0.000000  0.000000  0.000000  0.000000
  0C   2dxz       0.183766  0.000000  0.000000 -0.000000 -0.000000  0.439040
  0C   2dyz      -0.185720 -0.000000 -0.000000 -0.000000  0.000000 -0.078998
  0C   2dx2y2    -0.000000  0.000000  0.000000 -0.000000  0.000000 -0.000000
  0C   2dxy       0.174733 -0.000000  0.000000  0.000000  0.000000 -1.069951
  0C   1f0       -0.253080  0.000000  0.000000 -0.000000  0.000000  0.090086
  0C   1f+1      -0.164724  0.000000 -0.569892 -0.162151 -0.412331 -0.004073
  0C   1f-1       0.162990  0.000000 -0.119909  0.703160 -0.110791  0.022637
  0C   1f+2       0.000000 -0.000000  0.539527 -0.024000 -0.736256 -0.000000
  0C   1f-2       0.000000 -0.647843 -0.000000  0.000000  0.000000 -0.000000
  0C   1f+3      -0.212657 -0.000000  0.441437  0.125601  0.319390 -0.005258
  0C   1f-3      -0.210420 -0.000000 -0.092881  0.544665 -0.085818 -0.029224
  1H   1s         0.347594 -0.573715 -0.000000  0.000000  0.000000 -0.217471
  1H   2s        -0.857102  2.734073  0.000000 -0.000000 -0.000000  1.437692
  1H   3s         0.055022  0.524272 -0.000000 -0.000000 -0.000000  0.015518
  1H   1pz       -0.003661 -0.050162  0.158447 -0.124270  0.120161 -0.301207
  1H   1px        0.004844  0.050162 -0.070432 -0.157157  0.159148  0.168422
  1H   1py       -0.034924  0.050162  0.228879  0.032888 -0.038987  0.228292
  1H   2pz        0.195541 -0.498501 -0.273762  0.214710 -0.207611  0.066211
  1H   2px       -0.198143  0.498501  0.121690  0.271533 -0.274972  0.105354
  1H   2py       -0.110634  0.498501 -0.395452 -0.056823  0.067361  0.027999
  2H   1s        -1.070631 -0.573715 -0.000000 -0.000000 -0.000000  0.083934
  2H   2s         2.639980  2.734073  0.000000  0.000000  0.000000 -0.554884
  2H   3s        -0.169473  0.524272  0.000000 -0.000000 -0.000000 -0.005989
  2H   1pz        0.027842  0.050162  0.103361  0.198762  0.069264 -0.192182
  2H   1px       -0.026660 -0.050162 -0.125518  0.165874  0.108251  0.059397
  2H   1py        0.026870  0.050162 -0.228879 -0.032888  0.038987 -0.017787
  2H   2pz        0.516207  0.498501 -0.178585 -0.343416 -0.119672  0.123660
  2H   2px       -0.518809 -0.498501  0.216867 -0.286593 -0.187033  0.047905
  2H   2py        0.518346  0.498501  0.395452  0.056823 -0.067361 -0.101668
  3H   1s         0.383132 -0.573715 -0.000000  0.000000 -0.000000  0.241498
  3H   2s        -0.944734  2.734073  0.000000 -0.000000  0.000000 -1.596539
  3H   3s         0.060647  0.524272  0.000000 -0.000000  0.000000 -0.017232
  3H   1pz       -0.035500  0.050162 -0.103361 -0.198762 -0.069264 -0.320824
  3H   1px        0.003295  0.050162  0.070432  0.157157 -0.159148 -0.206299
  3H   1py       -0.003085 -0.050162 -0.032929 -0.041604 -0.228412  0.247910
  3H   2pz       -0.128535  0.498501  0.178585  0.343416  0.119672  0.055874
  3H   2px       -0.213904  0.498501 -0.121690 -0.271533  0.274972 -0.092098
  3H   2py        0.213442 -0.498501  0.056895  0.071883  0.394644  0.038336
  4H   1s         0.339906 -0.573715 -0.000000 -0.000000  0.000000 -0.107962
  4H   2s        -0.838145  2.734073  0.000000  0.000000 -0.000000  0.713731
  4H   3s         0.053805  0.524272  0.000000 -0.000000 -0.000000  0.007704
  4H   1pz       -0.003996 -0.050162 -0.158447  0.124270 -0.120161 -0.211799
  4H   1px        0.034799 -0.050162  0.125518 -0.165874 -0.108251 -0.097274
  4H   1py       -0.004968 -0.050162  0.032929  0.041604  0.228412 -0.037404
  4H   2pz        0.192131 -0.498501  0.273762 -0.214710  0.207611  0.113323
  4H   2px        0.106762 -0.498501 -0.216867  0.286593  0.187033 -0.034650
  4H   2py        0.194271 -0.498501 -0.056895 -0.071883 -0.394644 -0.112005
                     42        43        44        45        46        47   
                   3.45363   3.45363   3.58543   3.58543   3.66589   3.66589
                   0.00000   0.00000   0.00000   0.00000   0.00000   0.00000
                  --------  --------  --------  --------  --------  --------
  0C   1s        -0.000000 -0.000000  0.000000  0.000000  0.000000 -0.000000
  0C   2s         0.000000  0.000000  0.000000  0.000000  0.000000 -0.000000
  0C   1pz        0.003993  0.106202 -0.000000  0.000000  0.473486 -0.569360
  0C   1px       -0.273313 -0.034896  0.000000  0.000000  0.669892  0.282039
  0C   1py       -0.039446  0.252538  0.000000 -0.000000  0.149365  0.539942
  0C   3s        -0.000000 -0.000000 -0.000000 -0.000000 -0.000000  0.000000
  0C   2pz       -0.014896 -0.396154  0.000000 -0.000000 -1.198068  1.440660
  0C   2px        1.019509  0.130170 -0.000000 -0.000000 -1.695038 -0.713646
  0C   2py        0.147143 -0.942014 -0.000000 -0.000000 -0.377941 -1.366224
  0C   4s        -0.000000  0.000000 -0.000000 -0.000000 -0.000000  0.000000
  0C   3pz       -0.016040 -0.426593  0.000000 -0.000000 -0.835197  1.004312
  0C   3px        1.097845  0.140172 -0.000000 -0.000000 -1.181644 -0.497497
  0C   3py        0.158449 -1.014395  0.000000 -0.000000 -0.263470 -0.952421
  0C   1dz2       0.000000 -0.000000 -0.835749  0.412639 -0.000000 -0.000000
  0C   1dxz      -0.114885  0.735500 -0.000000  0.000000 -0.053954 -0.195040
  0C   1dyz      -0.796007 -0.101633 -0.000000 -0.000000 -0.241981 -0.101879
  0C   1dx2y2     0.000000  0.000000 -0.412639 -0.835749  0.000000  0.000000
  0C   1dxy       0.011630  0.309307 -0.000000  0.000000 -0.171034  0.205666
  0C   2dz2       0.000000  0.000000  1.071103 -0.528842 -0.000000 -0.000000
  0C   2dxz       0.165574 -1.060010  0.000000 -0.000000 -0.003838 -0.013873
  0C   2dyz       1.147213  0.146475  0.000000  0.000000 -0.017212 -0.007247
  0C   2dx2y2    -0.000000 -0.000000  0.528842  1.071103 -0.000000 -0.000000
  0C   2dxy      -0.016762 -0.445776  0.000000 -0.000000 -0.012166  0.014629
  0C   1f0        0.001411  0.037533  0.000000  0.000000 -0.408790  0.491564
  0C   1f+1       0.059149  0.007552  0.000000  0.000000  0.354172  0.149114
  0C   1f-1       0.008537 -0.054653 -0.000000  0.000000  0.078969  0.285467
  0C   1f+2      -0.000000  0.000000  0.000000  0.000000 -0.000000  0.000000
  0C   1f-2      -0.000000  0.000000 -0.000000 -0.000000 -0.000000  0.000000
  0C   1f+3       0.076362  0.009750  0.000000  0.000000  0.457234  0.192505
  0C   1f-3      -0.011021  0.070557  0.000000  0.000000 -0.101949 -0.368536
  1H   1s        -0.202195  0.071136  0.000000  0.000000  0.163900  0.659513
  1H   2s         1.336706 -0.470278 -0.000000 -0.000000 -0.594493 -2.392165
  1H   3s         0.014428 -0.005076 -0.000000 -0.000000 -0.124732 -0.501905
  1H   1pz       -0.167018  0.006560 -0.244236  0.120588 -0.170236 -0.067639
  1H   1px        0.297665 -0.041150 -0.017686  0.271809 -0.115016  0.139321
  1H   1py        0.184216 -0.180585 -0.226551 -0.151221  0.014846  0.074979
  1H   2pz       -0.084483  0.097168 -0.151000  0.074554  0.591812  0.636935
  1H   2px       -0.084320 -0.052475 -0.010934  0.168047  0.214198 -0.839478
  1H   2py        0.062262  0.127681 -0.140066 -0.093493 -0.152741 -0.657672
  2H   1s         0.151835  0.251273 -0.000000 -0.000000 -0.022298 -0.147634
  2H   2s        -1.003776 -1.661156  0.000000  0.000000  0.080879  0.535494
  2H   3s        -0.010834 -0.017930  0.000000  0.000000  0.016969  0.112353
  2H   1pz       -0.125902 -0.256668  0.244236 -0.120588 -0.125216  0.095107
  2H   1px        0.256549  0.222078  0.017686 -0.271809 -0.160037 -0.023425
  2H   1py       -0.104829 -0.327656 -0.226551 -0.151221 -0.044353 -0.181645
  2H   2pz       -0.062818 -0.041535  0.151000 -0.074554  0.368883 -0.168937
  2H   2px       -0.105985  0.086227  0.010934 -0.168047  0.437127 -0.033607
  2H   2py       -0.090045  0.050185 -0.140066 -0.093493  0.140398  0.613052
  3H   1s        -0.146737 -0.115687  0.000000  0.000000  0.471175 -0.392133
  3H   2s         0.970072  0.764805 -0.000000 -0.000000 -1.709030  1.422334
  3H   3s         0.010471  0.008255 -0.000000 -0.000000 -0.358575  0.298423
  3H   1pz        0.117865  0.042933  0.244236 -0.120588  0.031678  0.017371
  3H   1px        0.252386  0.111380 -0.017686  0.271809 -0.017322 -0.195038
  3H   1py       -0.100667 -0.216958  0.226551  0.151221 -0.187068 -0.010032
  3H   2pz        0.065630  0.116334  0.151000 -0.074554 -0.408011  0.215988
  3H   2px       -0.108178  0.027898 -0.010934  0.168047 -0.269557  0.816171
  3H   2py       -0.087851  0.108515  0.140066  0.093493  0.847082 -0.236726
  4H   1s         0.197097 -0.206721 -0.000000 -0.000000 -0.612776 -0.119745
  4H   2s        -1.303002  1.366630  0.000000  0.000000  2.222643  0.434337
  4H   3s        -0.014064  0.014751  0.000000  0.000000  0.466337  0.091129
  4H   1pz        0.158981 -0.220295 -0.244236  0.120588  0.076699  0.180117
  4H   1px        0.293502 -0.151848  0.017686 -0.271809  0.027699 -0.032292
  4H   1py        0.180054 -0.291282  0.226551  0.151221  0.157561 -0.096634
  4H   2pz        0.087296 -0.022369 -0.151000  0.074554 -0.630941 -0.589883
  4H   2px       -0.086513 -0.110805  0.010934 -0.168047 -0.492486  0.010300
  4H   2py        0.060069  0.069351  0.140066  0.093493 -0.859426  0.192106
                     48        49        50        51        52        53   
                   3.66589   4.23480   4.23480   4.23480   4.26977   4.46495
                   0.00000   0.00000   0.00000   0.00000   0.00000   0.00000
                  --------  --------  --------  --------  --------  --------
  0C   1s         0.000000  0.000000  0.000000 -0.000000 -0.033800 -0.000000
  0C   2s         0.000000 -0.000000 -0.000000 -0.000000 -0.075189  0.000000
  0C   1pz        0.383268 -0.884021 -0.723414 -0.230718  0.000000 -0.000000
  0C   1px       -0.408599 -0.739944  0.741266  0.510940 -0.000000  0.000000
  0C   1py        0.617581 -0.170418  0.534086 -1.021646  0.000000  0.000000
  0C   3s        -0.000000  0.000000  0.000000  0.000000  0.624058 -0.000000
  0C   2pz       -0.969789  2.037594  1.667410  0.531787 -0.000000  0.000000
  0C   2px        1.033884  1.705509 -1.708557 -1.177674  0.000000 -0.000000
  0C   2py       -1.562675  0.392799 -1.231025  2.354810 -0.000000 -0.000000
  0C   4s        -0.000000  0.000000  0.000000  0.000000  0.429058 -0.000000
  0C   3pz       -0.676059  0.769602  0.629783  0.200857  0.000000  0.000000
  0C   3px        0.720740  0.644173 -0.645324 -0.444809  0.000000  0.000000
  0C   3py       -1.089371  0.148361 -0.464960  0.889415 -0.000000 -0.000000
  0C   1dz2      -0.000000  0.000000 -0.000000  0.000000  0.000000  0.387705
  0C   1dxz      -0.223085 -0.043440  0.136139 -0.260419  0.000000  0.000000
  0C   1dyz       0.147596 -0.188613  0.188950  0.130239 -0.000000  0.000000
  0C   1dx2y2    -0.000000  0.000000  0.000000 -0.000000 -0.000000 -0.644400
  0C   1dxy      -0.138446 -0.225338 -0.184399 -0.058810  0.000000 -0.000000
  0C   2dz2       0.000000  0.000000 -0.000000 -0.000000 -0.000000 -0.422259
  0C   2dxz      -0.015868  0.250897 -0.786306  1.504114 -0.000000 -0.000000
  0C   2dyz       0.010498  1.089378 -1.091325 -0.752229  0.000000 -0.000000
  0C   2dx2y2     0.000000 -0.000000 -0.000000  0.000000  0.000000  0.701832
  0C   2dxy      -0.009848  1.301495  1.065043  0.339674 -0.000000  0.000000
  0C   1f0       -0.330899 -0.461310 -0.377500 -0.120396  0.000000  0.000000
  0C   1f+1      -0.216026  0.236453 -0.236875 -0.163273  0.000000  0.000000
  0C   1f-1       0.326515  0.054458 -0.170670  0.326472 -0.000000 -0.000000
  0C   1f+2       0.000000  0.000000  0.000000 -0.000000 -0.000000 -0.000000
  0C   1f-2       0.000000  0.000000 -0.000000 -0.000000 -0.690609  0.000000
  0C   1f+3      -0.278888  0.305259 -0.305805 -0.210785  0.000000  0.000000
  0C   1f-3      -0.421529 -0.070305  0.220334 -0.421474  0.000000  0.000000
  1H   1s        -0.082614  0.006515 -0.494337  0.069247  0.492534 -0.000000
  1H   2s         0.299653  0.034050 -2.583693  0.361925 -0.682239 -0.000000
  1H   3s         0.062871  0.008309 -0.630527  0.088324  0.103205 -0.000000
  1H   1pz       -0.069353 -0.124939 -0.142878 -0.027114  0.194405 -0.217123
  1H   1px        0.075672 -0.105550  0.145412  0.066886 -0.194405 -0.421091
  1H   1py       -0.180342 -0.024717  0.116007 -0.150634 -0.194405  0.203968
  1H   2pz        0.140118  0.177153  0.827281 -0.046002  0.003716  0.212202
  1H   2px       -0.157975  0.164623 -0.831038 -0.012972 -0.003716  0.411547
  1H   2py        0.565418  0.044762 -0.787435  0.309572 -0.003716 -0.199345
  2H   1s         0.668096  0.077781  0.230156  0.436103  0.492534 -0.000000
  2H   2s        -2.423297  0.406530  1.202926  2.279324 -0.682239  0.000000
  2H   3s        -0.508437  0.099210  0.293563  0.556248  0.103205 -0.000000
  2H   1pz        0.116795 -0.131795 -0.121393 -0.068214 -0.194405  0.217123
  2H   1px       -0.110475 -0.098694  0.123926  0.107986  0.194405  0.421091
  2H   1py        0.058338 -0.030513  0.057084 -0.180470 -0.194405  0.203968
  2H   2pz       -0.781631  0.292262  0.466532  0.644068 -0.003716 -0.212202
  2H   2px        0.763774  0.049514 -0.470290 -0.703043  0.003716 -0.411547
  2H   2py       -0.616455  0.142078  0.201882  0.810525 -0.003716 -0.199345
  3H   1s        -0.304748  0.359493  0.127676 -0.321980  0.492534  0.000000
  3H   2s         1.105373  1.878917  0.667307 -1.682851 -0.682239  0.000000
  3H   3s         0.231921  0.458533  0.162850 -0.410685  0.103205  0.000000
  3H   1pz       -0.192510 -0.154706 -0.113058 -0.006559 -0.194405  0.217123
  3H   1px        0.005047 -0.134258  0.094824  0.098704 -0.194405 -0.421091
  3H   1py       -0.057184  0.005050  0.086187 -0.171189  0.194405 -0.203968
  3H   2pz        0.749958  0.676947  0.326593 -0.391116 -0.003716 -0.212202
  3H   2px        0.191741  0.646625  0.018340 -0.547204 -0.003716  0.411547
  3H   2py       -0.044421 -0.455033 -0.286748  0.654686  0.003716  0.199345
  4H   1s        -0.280734 -0.443789  0.136506 -0.183370  0.492534  0.000000
  4H   2s         1.018271 -2.319497  0.713459 -0.958398 -0.682239  0.000000
  4H   3s         0.213645 -0.566052  0.174113 -0.233888  0.103205  0.000000
  4H   1pz       -0.006362 -0.161562 -0.091572 -0.047659  0.194405 -0.217123
  4H   1px        0.191194 -0.141113  0.116310  0.057604  0.194405  0.421091
  4H   1py       -0.064819 -0.060281  0.086905 -0.159916  0.194405 -0.203968
  4H   2pz       -0.171791  0.792056 -0.034155  0.298954  0.003716  0.212202
  4H   2px       -0.730008  0.761734 -0.342408  0.142866  0.003716 -0.411547
  4H   2py       -0.006615  0.641873 -0.298806  0.465411  0.003716  0.199345
                     54        55        56        57        58        59   
                   4.46495   4.55671   4.55671   4.55671   4.80683   4.80683
                   0.00000   0.00000   0.00000   0.00000   0.00000   0.00000
                  --------  --------  --------  --------  --------  --------
  0C   1s         0.000000 -0.000000  0.000000  0.000000  0.000000  0.000000
  0C   2s         0.000000 -0.000000  0.000000  0.000000  0.000000  0.000000
  0C   1pz       -0.000000 -0.024211 -0.155352  0.013036 -0.000000 -0.000000
  0C   1px       -0.000000  0.132321 -0.013502  0.084847  0.000000 -0.000000
  0C   1py       -0.000000 -0.082433  0.023954  0.132368 -0.000000 -0.000000
  0C   3s        -0.000000 -0.000000 -0.000000 -0.000000  0.000000  0.000000
  0C   2pz        0.000000  0.069967  0.448951 -0.037674  0.000000  0.000000
  0C   2px        0.000000 -0.382395  0.039019 -0.245200 -0.000000  0.000000
  0C   2py        0.000000  0.238223 -0.069226 -0.382530  0.000000  0.000000
  0C   4s        -0.000000 -0.000000 -0.000000 -0.000000  0.000000  0.000000
  0C   3pz        0.000000 -0.158189 -1.015041  0.085177 -0.000000  0.000000
  0C   3px        0.000000  0.864564 -0.088218  0.554377 -0.000000  0.000000
  0C   3py       -0.000000 -0.538602  0.156514  0.864869  0.000000  0.000000
  0C   1dz2      -0.644400 -0.000000 -0.000000 -0.000000  0.000000  0.000000
  0C   1dxz       0.000000  0.083701 -0.024323 -0.134404 -0.000000 -0.000000
  0C   1dyz       0.000000 -0.134357  0.013709 -0.086153  0.000000 -0.000000
  0C   1dx2y2    -0.387705  0.000000 -0.000000 -0.000000  0.000000 -0.000000
  0C   1dxy      -0.000000  0.024583  0.157742 -0.013237 -0.000000 -0.000000
[...]
   25. RY (16) C  1             0.00017
   26. RY (17) C  1             0.00014
   27. RY (18) C  1             0.00014
   28. RY (19) C  1             0.00014
   29. RY (20) C  1             0.00011
   30. RY (21) C  1             0.00009
   31. RY (22) C  1             0.00009
   32. RY (23) C  1             0.00005
   33. RY (24) C  1             0.00005
   34. RY (25) C  1             0.00005
   35. RY ( 1) H  2             0.00133
   36. RY ( 2) H  2             0.00055
   37. RY ( 3) H  2             0.00055
   38. RY ( 4) H  2             0.00025
   39. RY ( 5) H  2             0.00010
   40. RY ( 6) H  2             0.00007
   41. RY ( 7) H  2             0.00007
   42. RY ( 8) H  2             0.00003
   43. RY ( 1) H  3             0.00133
   44. RY ( 2) H  3             0.00055
   45. RY ( 3) H  3             0.00055
   46. RY ( 4) H  3             0.00025
   47. RY ( 5) H  3             0.00010
   48. RY ( 6) H  3             0.00007
   49. RY ( 7) H  3             0.00007
   50. RY ( 8) H  3             0.00003
   51. RY ( 1) H  4             0.00133
   52. RY ( 2) H  4             0.00055
   53. RY ( 3) H  4             0.00055
   54. RY ( 4) H  4             0.00025
   55. RY ( 5) H  4             0.00010
   56. RY ( 6) H  4             0.00007
   57. RY ( 7) H  4             0.00007
   58. RY ( 8) H  4             0.00003
   59. RY ( 1) H  5             0.00133
   60. RY ( 2) H  5             0.00055
   61. RY ( 3) H  5             0.00055
   62. RY ( 4) H  5             0.00025
   63. RY ( 5) H  5             0.00010
   64. RY ( 6) H  5             0.00007
   65. RY ( 7) H  5             0.00007
   66. RY ( 8) H  5             0.00003
          -------------------------------
                 Total Lewis    4.93791  ( 98.7581%)
           Valence non-Lewis    0.02783  (  0.5565%)
           Rydberg non-Lewis    0.03427  (  0.6854%)
          -------------------------------
               Total unit  1    5.00000  (100.0000%)
              Charge unit  1    0.00000

 $CHOOSE
  ALPHA
   BOND S 1 2 S 1 3 S 1 4 S 1 5 END
  END
  BETA
   BOND S 1 2 S 1 3 S 1 4 S 1 5 END
  END
 $END

 NBO analysis completed in 0.11 CPU seconds (1 wall second)
 Maximum scratch memory used by NBO was 432109 words (3.30 MB)
Stopping NBO...Storing NBOs: methane.pmp2re.nbo

                                *** returned from   NBO  program ***


----------------------------------
MP2 DERIVATIVE INTEGRAL GENERATION
----------------------------------


Input Wavefunction Amplitudes       ... methane.mp2tbb.tmp
Input Correlated Electron Density   ... methane.pmp2re
Input Energy Weighted Density       ... methane.wmp2.tmp
Input SCF Electron Density          ... methane.scfp

One-Electron Terms    ...
                        ... One-Electron Terms done
Prescreening matrices              ... done

Batch handling in the gradient evaluation:
Memory available                      ... 3000.0 MB
Memory per occupied orbital in Q2     ...    0.3 MB
Memory per occupied orbital in Q3     ...    0.0 MB
Total memory requirement per |i>      ...    0.4 MB
Max. Number of orbitals possible      ...   8403
Number of orbitals treated per batch  ...     10
Number of batches to be done          ...      1
Batch   0: i=    0 ...     9

---------------------------------------
MP2 TOTAL ENERGY:      -40.425037470 Eh
---------------------------------------

-----------------------------------
NORM OF THE MP2 GRADIENT:  0.000000
-----------------------------------

-------------------------   --------------------
FINAL SINGLE POINT ENERGY       -40.425037470094
-------------------------   --------------------

                                *** OPTIMIZATION RUN DONE ***

                            ***************************************
                            *     ORCA property calculations      *
                            ***************************************

                                    ---------------------
                                    Active property flags
                                    ---------------------
   (+) Dipole Moment


------------------------------------------------------------------------------
                       ORCA ELECTRIC PROPERTIES CALCULATION
------------------------------------------------------------------------------

Dipole Moment Calculation                       ... on
Quadrupole Moment Calculation                   ... off
Polarizability Calculation                      ... off
GBWName                                         ... methane.gbw
Electron density file                           ... methane.scfp
The origin for moment calculation is the CENTER OF MASS  = (-0.000000, -0.000000  0.000000)

-------------
DIPOLE MOMENT
-------------
                                X             Y             Z
Electronic contribution:     -0.00000       0.00000       0.00000
Nuclear contribution   :      0.00000       0.00000      -0.00000
                        -----------------------------------------
Total Dipole Moment    :      0.00000       0.00000      -0.00000
                        -----------------------------------------
Magnitude (a.u.)       :      0.00000
Magnitude (Debye)      :      0.00000



--------------------
Rotational spectrum 
--------------------
 
Rotational constants in cm-1:     5.342550     5.342550     5.342550 
Rotational constants in MHz : 160165.615654 160165.615651 160165.615647 

 Dipole components along the rotational axes: 
x,y,z [a.u.] :     0.000000     0.000000    -0.000000 
x,y,z [Debye]:     0.000000     0.000000    -0.000000 

 

                         *** MP2 UNRELAXED DENSITY ***

------------------------------------------------------------------------------
                       ORCA ELECTRIC PROPERTIES CALCULATION
------------------------------------------------------------------------------

Dipole Moment Calculation                       ... on
Quadrupole Moment Calculation                   ... off
Polarizability Calculation                      ... off
GBWName                                         ... methane.gbw
Electron density file                           ... methane.pmp2ur
The origin for moment calculation is the CENTER OF MASS  = (-0.000000, -0.000000  0.000000)

-------------
DIPOLE MOMENT
-------------
                                X             Y             Z
Electronic contribution:     -0.00000       0.00000       0.00000
Nuclear contribution   :      0.00000       0.00000      -0.00000
                        -----------------------------------------
Total Dipole Moment    :      0.00000       0.00000      -0.00000
                        -----------------------------------------
Magnitude (a.u.)       :      0.00000
Magnitude (Debye)      :      0.00000



--------------------
Rotational spectrum 
--------------------
 
Rotational constants in cm-1:     5.342550     5.342550     5.342550 
Rotational constants in MHz : 160165.615654 160165.615651 160165.615647 

 Dipole components along the rotational axes: 
x,y,z [a.u.] :     0.000000     0.000000    -0.000000 
x,y,z [Debye]:     0.000000     0.000000    -0.000000 

 

                           *** MP2 RELAXED DENSITY ***

------------------------------------------------------------------------------
                       ORCA ELECTRIC PROPERTIES CALCULATION
------------------------------------------------------------------------------

Dipole Moment Calculation                       ... on
Quadrupole Moment Calculation                   ... off
Polarizability Calculation                      ... off
GBWName                                         ... methane.gbw
Electron density file                           ... methane.pmp2re
The origin for moment calculation is the CENTER OF MASS  = (-0.000000, -0.000000  0.000000)

-------------
DIPOLE MOMENT
-------------
                                X             Y             Z
Electronic contribution:     -0.00000       0.00000       0.00000
Nuclear contribution   :      0.00000       0.00000      -0.00000
                        -----------------------------------------
Total Dipole Moment    :      0.00000       0.00000      -0.00000
                        -----------------------------------------
Magnitude (a.u.)       :      0.00000
Magnitude (Debye)      :      0.00000



--------------------
Rotational spectrum 
--------------------
 
Rotational constants in cm-1:     5.342550     5.342550     5.342550 
Rotational constants in MHz : 160165.615654 160165.615651 160165.615647 

 Dipole components along the rotational axes: 
x,y,z [a.u.] :     0.000000     0.000000    -0.000000 
x,y,z [Debye]:     0.000000     0.000000    -0.000000 

 
------------------------------------------------------------------------------
                         ORCA MP2 H E S S I A N CALCULATION
------------------------------------------------------------------------------

Calculating analytic MP2 second derivatives ... (>methane.last_mp2) done

-----------------------
VIBRATIONAL FREQUENCIES
-----------------------

Scaling factor for frequencies =  1.000000000  (already applied!)

   0:         0.00 cm**-1
   1:         0.00 cm**-1
   2:         0.00 cm**-1
   3:         0.00 cm**-1
   4:         0.00 cm**-1
   5:         0.00 cm**-1
   6:      1359.23 cm**-1
   7:      1359.23 cm**-1
   8:      1359.23 cm**-1
   9:      1591.23 cm**-1
  10:      1591.23 cm**-1
  11:      3096.29 cm**-1
  12:      3231.56 cm**-1
  13:      3231.56 cm**-1
  14:      3231.56 cm**-1


------------
NORMAL MODES
------------

These modes are the Cartesian displacements weighted by the diagonal matrix
M(i,i)=1/sqrt(m[i]) where m[i] is the mass of the displaced atom
Thus, these vectors are normalized but *not* orthogonal

                  0          1          2          3          4          5    
      0       0.000000   0.000000   0.000000   0.000000   0.000000   0.000000
      1       0.000000   0.000000   0.000000   0.000000   0.000000   0.000000
      2       0.000000   0.000000   0.000000   0.000000   0.000000   0.000000
      3       0.000000   0.000000   0.000000   0.000000   0.000000   0.000000
      4       0.000000   0.000000   0.000000   0.000000   0.000000   0.000000
      5       0.000000   0.000000   0.000000   0.000000   0.000000   0.000000
      6       0.000000   0.000000   0.000000   0.000000   0.000000   0.000000
      7       0.000000   0.000000   0.000000   0.000000   0.000000   0.000000
      8       0.000000   0.000000   0.000000   0.000000   0.000000   0.000000
      9       0.000000   0.000000   0.000000   0.000000   0.000000   0.000000
     10       0.000000   0.000000   0.000000   0.000000   0.000000   0.000000
     11       0.000000   0.000000   0.000000   0.000000   0.000000   0.000000
     12       0.000000   0.000000   0.000000   0.000000   0.000000   0.000000
     13       0.000000   0.000000   0.000000   0.000000   0.000000   0.000000
     14       0.000000   0.000000   0.000000   0.000000   0.000000   0.000000
                  6          7          8          9         10         11    
      0      -0.009182   0.006076  -0.124284   0.000000   0.000000   0.000000
      1      -0.031960  -0.120556  -0.003533  -0.000000  -0.000000  -0.000000
      2      -0.120258   0.031575   0.010428  -0.000000   0.000000  -0.000000
      3       0.191772  -0.301388   0.344234   0.002027   0.408243  -0.288675
      4       0.302043   0.311644  -0.240324  -0.354563  -0.202366  -0.288675
      5       0.434849   0.119113   0.206946  -0.352535   0.205877   0.288675
      6       0.310799   0.147591   0.357392  -0.002027  -0.408243   0.288675
      7      -0.111630   0.406609   0.261373  -0.354563  -0.202366  -0.288675
      8       0.315822  -0.329865   0.193788   0.352535  -0.205877  -0.288675
      9      -0.137069   0.265185   0.396228   0.002027   0.408243  -0.288675
     10       0.336238   0.289014   0.222537   0.354563   0.202366   0.288675
     11       0.400654   0.141743  -0.255916   0.352535  -0.205877  -0.288675
     12      -0.256096  -0.183793   0.383070  -0.002027  -0.408243   0.288675
     13      -0.145824   0.429239  -0.201488   0.354563   0.202366   0.288675
     14       0.281627  -0.307235  -0.269074  -0.352535   0.205877   0.288675
                  12         13         14    
      0       0.088566  -0.009265  -0.024056
      1       0.002176  -0.083085   0.040009
      2       0.025686   0.038982   0.079556
      3      -0.189007   0.416094   0.197523
      4      -0.206606   0.401055   0.210575
      5       0.212282  -0.410040  -0.186217
      6      -0.175156  -0.112763   0.452192
      7       0.193641   0.093950  -0.448942
      8       0.198431   0.118817  -0.440886
      9      -0.338657  -0.360897  -0.054201
     10       0.357143   0.342084   0.057451
     11      -0.351467  -0.351068  -0.033093
     12      -0.352508   0.167959  -0.308870
     13      -0.370107   0.152921  -0.295819
     14      -0.365318   0.177788  -0.287762


-----------
IR SPECTRUM
-----------

 Mode    freq (cm**-1)   T**2         TX         TY         TZ
-------------------------------------------------------------------
   6:      1359.23   12.018697  (  0.255115   0.888026   3.341410)
   7:      1359.23   12.018694  ( -0.168835   3.349697  -0.877337)
   8:      1359.23   12.018697  (  3.453275   0.098166  -0.289744)
   9:      1591.23    0.000000  ( -0.000000   0.000000   0.000000)
  10:      1591.23    0.000000  ( -0.000000   0.000000  -0.000000)
  11:      3096.29    0.000000  ( -0.000001  -0.000002   0.000001)
  12:      3231.56   16.538955  (  3.904771   0.095938   1.132483)
  13:      3231.56   16.538943  ( -0.408461  -3.663090   1.718685)
  14:      3231.56   16.538951  ( -1.060603   1.763950   3.507500)

The first frequency considered to be a vibration is 6
The total number of vibrations considered is 9


--------------------------
THERMOCHEMISTRY AT 298.15K
--------------------------

Temperature         ... 298.15 K
Pressure            ... 1.00 atm
Total Mass          ... 16.04 AMU

Throughout the following assumptions are being made:
  (1) The electronic state is orbitally nondegenerate
  (2) There are no thermally accessible electronically excited states
  (3) Hindered rotations indicated by low frequency modes are not
      treated as such but are treated as vibrations and this may
      cause some error
  (4) All equations used are the standard statistical mechanics
      equations for an ideal gas
  (5) All vibrations are strictly harmonic

freq.    1359.23  E(vib)   ...       0.01 
freq.    1359.23  E(vib)   ...       0.01 
freq.    1359.23  E(vib)   ...       0.01 
freq.    1591.23  E(vib)   ...       0.00 
freq.    1591.23  E(vib)   ...       0.00 
freq.    3096.29  E(vib)   ...       0.00 
freq.    3231.56  E(vib)   ...       0.00 
freq.    3231.56  E(vib)   ...       0.00 
freq.    3231.56  E(vib)   ...       0.00 

------------
INNER ENERGY
------------

The inner energy is: U= E(el) + E(ZPE) + E(vib) + E(rot) + E(trans)
    E(el)   - is the total energy from the electronic structure calculation
              = E(kin-el) + E(nuc-el) + E(el-el) + E(nuc-nuc)
    E(ZPE)  - the the zero temperature vibrational energy from the frequency calculation
    E(vib)  - the the finite temperature correction to E(ZPE) due to population
              of excited vibrational states
    E(rot)  - is the rotational thermal energy
    E(trans)- is the translational thermal energy

Summary of contributions to the inner energy U:
Electronic energy                ...    -40.42503747 Eh
Zero point energy                ...      0.04567981 Eh      28.66 kcal/mol
Thermal vibrational correction   ...      0.00003309 Eh       0.02 kcal/mol
Thermal rotational correction    ...      0.00141627 Eh       0.89 kcal/mol
Thermal translational correction ...      0.00141627 Eh       0.89 kcal/mol
-----------------------------------------------------------------------
Total thermal energy                    -40.37649202 Eh


Summary of corrections to the electronic energy:
(perhaps to be used in another calculation)
Total thermal correction                  0.00286563 Eh       1.80 kcal/mol
Non-thermal (ZPE) correction              0.04567981 Eh      28.66 kcal/mol
-----------------------------------------------------------------------
Total correction                          0.04854545 Eh      30.46 kcal/mol


--------
ENTHALPY
--------

The enthalpy is H = U + kB*T
                kB is Boltzmann's constant
Total free energy                 ...    -40.37649202 Eh 
Thermal Enthalpy correction       ...      0.00094421 Eh       0.59 kcal/mol
-----------------------------------------------------------------------
Total Enthalpy                    ...    -40.37554781 Eh


Note: Rotational entropy computed according to Herzberg 
Infrared and Raman Spectra, Chapter V,1, Van Nostrand Reinhold, 1945 
Point Group:  Td, Symmetry Number:  12  
Rotational constants in cm-1:     5.342550     5.342550     5.342550 

Vibrational entropy computed according to the QRRHO of S. Grimme
Chem.Eur.J. 2012 18 9955


-------
ENTROPY
-------

The entropy contributions are T*S = T*(S(el)+S(vib)+S(rot)+S(trans))
     S(el)   - electronic entropy
     S(vib)  - vibrational entropy
     S(rot)  - rotational entropy
     S(trans)- translational entropy
The entropies will be listed as mutliplied by the temperature to get
units of energy

Electronic entropy                ...      0.00000000 Eh      0.00 kcal/mol
Vibrational entropy               ...      0.00003799 Eh      0.02 kcal/mol
Rotational entropy                ...      0.00479136 Eh      3.01 kcal/mol
Translational entropy             ...      0.01627961 Eh     10.22 kcal/mol
-----------------------------------------------------------------------
Final entropy term                ...      0.02110896 Eh     13.25 kcal/mol

In case the symmetry of your molecule has not been determined correctly
or in case you have a reason to use a different symmetry number we print 
out the resulting rotational entropy values for sn=1,12 :
 --------------------------------------------------------
|  sn= 1 | S(rot)=       0.00713756 Eh      4.48 kcal/mol|
|  sn= 2 | S(rot)=       0.00648310 Eh      4.07 kcal/mol|
|  sn= 3 | S(rot)=       0.00610027 Eh      3.83 kcal/mol|
|  sn= 4 | S(rot)=       0.00582865 Eh      3.66 kcal/mol|
|  sn= 5 | S(rot)=       0.00561796 Eh      3.53 kcal/mol|
|  sn= 6 | S(rot)=       0.00544581 Eh      3.42 kcal/mol|
|  sn= 7 | S(rot)=       0.00530027 Eh      3.33 kcal/mol|
|  sn= 8 | S(rot)=       0.00517419 Eh      3.25 kcal/mol|
|  sn= 9 | S(rot)=       0.00506298 Eh      3.18 kcal/mol|
|  sn=10 | S(rot)=       0.00496350 Eh      3.11 kcal/mol|
|  sn=11 | S(rot)=       0.00487351 Eh      3.06 kcal/mol|
|  sn=12 | S(rot)=       0.00479136 Eh      3.01 kcal/mol|
 --------------------------------------------------------


-------------------
GIBBS FREE ENERGY
-------------------

The Gibbs free energy is G = H - T*S

Total enthalpy                    ...    -40.37554781 Eh 
Total entropy correction          ...     -0.02110896 Eh    -13.25 kcal/mol
-----------------------------------------------------------------------
Final Gibbs free energy         ...    -40.39665677 Eh

For completeness - the Gibbs free energy minus the electronic energy
G-E(el)                           ...      0.02838070 Eh     17.81 kcal/mol


Timings for individual modules:

Sum of individual times         ...       97.462 sec (=   1.624 min)
GTO integral calculation        ...        3.944 sec (=   0.066 min)   4.0 %
SCF iterations                  ...       12.259 sec (=   0.204 min)  12.6 %
MP2 module                      ...       20.046 sec (=   0.334 min)  20.6 %
Geometry relaxation             ...        0.054 sec (=   0.001 min)   0.1 %
Analytical frequency calculation...       61.159 sec (=   1.019 min)  62.8 %
                             ****ORCA TERMINATED NORMALLY****
TOTAL RUN TIME: 0 days 0 hours 1 minutes 38 seconds 500 msec
