
                                 *****************
                                 * O   R   C   A *
                                 *****************

           --- An Ab Initio, DFT and Semiempirical electronic structure package ---

                  #######################################################
                  #                        -***-                        #
                  #          Department of theory and spectroscopy      #
                  #               Directorship: Frank Neese             #
                  #        Max Planck Institute fuer Kohlenforschung    #
                  #                Kaiser Wilhelm Platz 1               #
                  #                 D-45470 Muelheim/Ruhr               #
                  #                      Germany                        #
                  #                                                     #
                  #                  All rights reserved                #
                  #                        -***-                        #
                  #######################################################


                         Program Version 4.2.1 -  RELEASE  -


 With contributions from (in alphabetic order):
   Daniel Aravena         : Magnetic Suceptibility
   Michael Atanasov       : Ab Initio Ligand Field Theory (pilot matlab implementation)
   Alexander A. Auer      : GIAO ZORA, VPT2
   Ute Becker             : Parallelization
   Giovanni Bistoni       : ED, misc. LED, open-shell LED, HFLD
   Martin Brehm           : Molecular dynamics
   Dmytro Bykov           : SCF Hessian
   Vijay G. Chilkuri      : MRCI spin determinant printing, contributions to CSF-ICE
   Dipayan Datta          : RHF DLPNO-CCSD density
   Achintya Kumar Dutta   : EOM-CC, STEOM-CC
   Dmitry Ganyushin       : Spin-Orbit,Spin-Spin,Magnetic field MRCI
   Miquel Garcia          : C-PCM Hessian, Gaussian charge scheme
   Yang Guo               : DLPNO-NEVPT2, CIM, IAO-localization
   Andreas Hansen         : Spin unrestricted coupled pair/coupled cluster methods
   Benjamin Helmich-Paris : CASSCF linear response (MC-RPA)
   Lee Huntington         : MR-EOM, pCC
   Robert Izsak           : Overlap fitted RIJCOSX, COSX-SCS-MP3, EOM
   Christian Kollmar      : KDIIS, OOCD, Brueckner-CCSD(T), CCSD density
   Simone Kossmann        : Meta GGA functionals, TD-DFT gradient, OOMP2, MP2 Hessian
   Martin Krupicka        : AUTO-CI
   Lucas Lang             : DCDCAS
   Dagmar Lenk            : GEPOL surface, SMD
   Dimitrios Liakos       : Extrapolation schemes; Compound Job, initial MDCI parallelization
   Dimitrios Manganas     : Further ROCIS development; embedding schemes
   Dimitrios Pantazis     : SARC Basis sets
   Taras Petrenko         : DFT Hessian,TD-DFT gradient, ASA, ECA, R-Raman, ABS, FL, XAS/XES, NRVS
   Peter Pinski           : DLPNO-MP2, DLPNO-MP2 Gradient
   Christoph Reimann      : Effective Core Potentials
   Marius Retegan         : Local ZFS, SOC
   Christoph Riplinger    : Optimizer, TS searches, QM/MM, DLPNO-CCSD(T), (RO)-DLPNO pert. Triples
   Tobias Risthaus        : Range-separated hybrids, TD-DFT gradient, RPA, STAB
   Michael Roemelt        : Original ROCIS implementation
   Masaaki Saitow         : Open-shell DLPNO-CCSD energy and density
   Barbara Sandhoefer     : DKH picture change effects
   Avijit Sen             : IP-ROCIS
   Kantharuban Sivalingam : CASSCF convergence, NEVPT2, FIC-MRCI
   Bernardo de Souza      : ESD, SOC TD-DFT
   Georgi Stoychev        : AutoAux, RI-MP2 NMR
   Willem Van den Heuvel  : Paramagnetic NMR
   Boris Wezisla          : Elementary symmetry handling
   Frank Wennmohs         : Technical directorship


 We gratefully acknowledge several colleagues who have allowed us to
 interface, adapt or use parts of their codes:
   Stefan Grimme, W. Hujo, H. Kruse,             : VdW corrections, initial TS optimization,
                  C. Bannwarth                     DFT functionals, gCP, sTDA/sTD-DF
   Ed Valeev, F. Pavosevic, A. Kumar             : LibInt (2-el integral package), F12 methods
   Garnet Chan, S. Sharma, J. Yang, R. Olivares  : DMRG
   Ulf Ekstrom                                   : XCFun DFT Library
   Mihaly Kallay                                 : mrcc  (arbitrary order and MRCC methods)
   Andreas Klamt, Michael Diedenhofen            : otool_cosmo (COSMO solvation model)
   Jiri Pittner, Ondrej Demel                    : Mk-CCSD
   Frank Weinhold                                : gennbo (NPA and NBO analysis)
   Christopher J. Cramer and Donald G. Truhlar   : smd solvation model
   Lars Goerigk                                  : TD-DFT with DH, B97 family of functionals
   V. Asgeirsson, H. Jonsson                     : NEB implementation
   FAccTs GmbH                                   : IRC, NEB, NEB-TS, Multilevel, MM, QM/MM, CI optimization
   S Lehtola, MJT Oliveira, MAL Marques          : LibXC Library


 Your calculation uses the libint2 library for the computation of 2-el integrals
 For citations please refer to: http://libint.valeyev.net

 Your ORCA version has been built with support for libXC version: 4.2.3
 For citations please refer to: https://tddft.org/programs/libxc/

 This ORCA versions uses:
   CBLAS   interface :  Fast vector & matrix operations
   LAPACKE interface :  Fast linear algebra routines
   SCALAPACK package :  Parallel linear algebra routines




***************************************
The coordinates will be read from file: init.xyz
***************************************


Your calculation utilizes the atom-pairwise dispersion correction
based on tight binding partial charges (D4)
Cite in your paper:
E.Caldeweyher, C.Bannwarth, S.Grimme, J.Chem.Phys., (2017), 147, 034112.
E.Caldeweyher, S.Ehlert, A.Hansen, H.Neugebauer, S.Grimme, J.Chem.Phys., (2018), in progress.
   

Your calculation utilizes the SMD solvation module
Please cite in your paper:
A.V. Marenich, C.J. Cramer, D.G. Truhlar J. Phys. Chem. B, 113, (2009), 6378 

----- Orbital basis set information -----
Your calculation utilizes the basis: def2-TZVP
   F. Weigend and R. Ahlrichs, Phys. Chem. Chem. Phys. 7, 3297 (2005).

----- AuxJ basis set information -----
Your calculation utilizes the auxiliary basis: def2/J
   F. Weigend, Phys. Chem. Chem. Phys. 8, 1057 (2006).

================================================================================
                                        WARNINGS
                       Please study these warnings very carefully!
================================================================================


WARNING: Geometry Optimization
  ===> : Switching off AutoStart
         For restart on a previous wavefunction, please use MOREAD

INFO   : the flag for use of LIBINT has been found!

================================================================================
                                       INPUT FILE
================================================================================
NAME = dihydrogen@water.inp
|  1> ! BLYP D4 def2-TZVP RI def2/J Opt TightOpt Freq TightSCF Grid4 FinalGrid5 PrintBasis PrintMOs
|  2> %maxcore 1150
|  3> 
|  4> * xyzfile 0 1 init.xyz
|  5> 
|  6> %cpcm
|  7>  smd true
|  8>  smdsolvent "water"
|  9> end
| 10> 
| 11>                          ****END OF INPUT****
================================================================================

                       *****************************
                       * Geometry Optimization Run *
                       *****************************

Geometry optimization settings:
Update method            Update   .... BFGS
Choice of coordinates    CoordSys .... Z-matrix Internals
Initial Hessian          InHess   .... Almoef's Model

Convergence Tolerances:
Energy Change            TolE     ....  1.0000e-06 Eh
Max. Gradient            TolMAXG  ....  1.0000e-04 Eh/bohr
RMS Gradient             TolRMSG  ....  3.0000e-05 Eh/bohr
Max. Displacement        TolMAXD  ....  1.0000e-03 bohr
RMS Displacement         TolRMSD  ....  6.0000e-04 bohr
Strict Convergence                ....  False
------------------------------------------------------------------------------
                        ORCA OPTIMIZATION COORDINATE SETUP
------------------------------------------------------------------------------

The optimization will be done in new redundant internal coordinates
Making redundant internal coordinates   ...  (new redundants) done
Evaluating the initial hessian          ...  (Almloef) done
Evaluating the coordinates              ...  done
Calculating the B-matrix                .... done
Calculating the G-matrix                .... done
Diagonalizing the G-matrix              .... done
The first mode is                       ....    0
The number of degrees of freedom        ....    1

    -----------------------------------------------------------------
                    Redundant Internal Coordinates


    -----------------------------------------------------------------
         Definition                    Initial Value    Approx d2E/dq
    -----------------------------------------------------------------
      1. B(H   1,H   0)                  1.0000         0.095955   
    -----------------------------------------------------------------

Number of atoms                         .... 2
Number of degrees of freedom            .... 1

         *************************************************************
         *                GEOMETRY OPTIMIZATION CYCLE   1            *
         *************************************************************
---------------------------------
CARTESIAN COORDINATES (ANGSTROEM)
---------------------------------
  H      0.000000    0.000000    0.000000
  H      0.000000    0.000000    1.000000

----------------------------
CARTESIAN COORDINATES (A.U.)
----------------------------
  NO LB      ZA    FRAG     MASS         X           Y           Z
   0 H     1.0000    0     1.008    0.000000    0.000000    0.000000
   1 H     1.0000    0     1.008    0.000000    0.000000    1.889726

--------------------------------
INTERNAL COORDINATES (ANGSTROEM)
--------------------------------
 H      0   0   0     0.000000000000     0.00000000     0.00000000
 H      1   0   0     1.000000000000     0.00000000     0.00000000

---------------------------
INTERNAL COORDINATES (A.U.)
---------------------------
 H      0   0   0     0.000000000000     0.00000000     0.00000000
 H      1   0   0     1.889726133921     0.00000000     0.00000000

---------------------
BASIS SET INFORMATION
---------------------
There are 1 groups of distinct atoms

 Group   1 Type H   : 5s1p contracted to 3s1p pattern {311/1}

Atom   0H    basis set group =>   1
Atom   1H    basis set group =>   1

-------------------------
BASIS SET IN INPUT FORMAT
-------------------------

 # Basis set for element : H 
 NewGTO H 
 S 3 
   1      34.0613410000      0.0254393072
   2       5.1235746000      0.1900859489
   3       1.1646626000      0.8524411301
 S 1 
   1       0.3272304100      1.0000000000
 S 1 
   1       0.1030724100      1.0000000000
 P 1 
   1       0.8000000000      1.0000000000
  end;

---------------------------------
AUXILIARY/J BASIS SET INFORMATION
---------------------------------
There are 1 groups of distinct atoms

 Group   1 Type H   : 5s2p1d contracted to 3s1p1d pattern {311/2/1}

Atom   0H    basis set group =>   1
Atom   1H    basis set group =>   1

-------------------------------------
AUXILIARY/J BASIS SET IN INPUT FORMAT
-------------------------------------

 # Auxiliary/J basis set for element : H 
 NewAuxJGTO H 
 S 3 
   1      15.6752927000      0.1007184237
   2       3.6063578000      0.3404257499
   3       1.2080016000      0.6491996172
 S 1 
   1       0.4726794000      1.0000000000
 S 1 
   1       0.2018100000      1.0000000000
 P 2 
   1       2.0281365000      0.5596620919
   2       0.5358730000      0.5596620919
 D 1 
   1       2.2165124000      1.0000000000
  end;

------------------------------------------------------------------------------
                           ORCA GTO INTEGRAL CALCULATION
                           -- RI-GTO INTEGRALS CHOSEN --
------------------------------------------------------------------------------

                         BASIS SET STATISTICS AND STARTUP INFO

Gaussian basis set:
 # of primitive gaussian shells          ...   12
 # of primitive gaussian functions       ...   16
 # of contracted shells                  ...    8
 # of contracted basis functions         ...   12
 Highest angular momentum                ...    1
 Maximum contraction depth               ...    3
Auxiliary gaussian basis set:
 # of primitive gaussian shells          ...   16
 # of primitive gaussian functions       ...   32
 # of contracted shells                  ...   10
 # of contracted aux-basis functions     ...   22
 Highest angular momentum                ...    2
 Maximum contraction depth               ...    3
Ratio of auxiliary to basis functions    ...  1.83
Integral package used                  ... LIBINT
 One Electron integrals                  ... done
 Ordering auxiliary basis shells         ... done
 Integral threshhold             Thresh  ...  2.500e-11
 Primitive cut-off               TCut    ...  2.500e-12
 Pre-screening matrix                    ... done
 Shell pair data                         ... 
 Ordering of the shell pairs             ... done (   0.000 sec) 36 of 36 pairs
 Determination of significant pairs      ... done (   0.000 sec)
 Creation of shell pair data             ... done (   0.000 sec)
 Storage of shell pair data              ... done (   0.000 sec)
 Shell pair data done in (   0.000 sec)
 Computing two index integrals           ... done
 Cholesky decomposition of the V-matrix  ... done


Timings:
 Total evaluation time                   ...   0.061 sec (  0.001 min)
 One electron matrix time                ...   0.002 sec (  0.000 min) =  3.9%
 Schwartz matrix evaluation time         ...   0.047 sec (  0.001 min) = 77.8%
 Two index repulsion integral time       ...   0.000 sec (  0.000 min) =  0.1%
 Cholesky decomposition of V             ...   0.000 sec (  0.000 min) =  0.3%
 Three index repulsion integral time     ...   0.000 sec (  0.000 min) =  0.0%

-------------------------------------------------------------------------------
                                 ORCA SCF
-------------------------------------------------------------------------------

------------
SCF SETTINGS
------------
Hamiltonian:
 Density Functional     Method          .... DFT(GTOs)
 Exchange Functional    Exchange        .... B88
   X-Alpha parameter    XAlpha          ....  0.666667
   Becke's b parameter  XBeta           ....  0.004200
 Correlation Functional Correlation     .... LYP
 Gradients option       PostSCFGGA      .... off
   Density functional embedding theory  .... OFF
   NL short-range parameter             ....  4.000000
 RI-approximation to the Coulomb term is turned on
   Number of auxiliary basis functions  .... 22


General Settings:
 Integral files         IntName         .... dihydrogen@water
 Hartree-Fock type      HFTyp           .... RHF
 Total Charge           Charge          ....    0
 Multiplicity           Mult            ....    1
 Number of Electrons    NEL             ....    2
 Basis Dimension        Dim             ....   12
 Nuclear Repulsion      ENuc            ....      0.5291772083 Eh

Convergence Acceleration:
 DIIS                   CNVDIIS         .... on
   Start iteration      DIISMaxIt       ....    12
   Startup error        DIISStart       ....  0.200000
   # of expansion vecs  DIISMaxEq       ....     5
   Bias factor          DIISBfac        ....   1.050
   Max. coefficient     DIISMaxC        ....  10.000
 Newton-Raphson         CNVNR           .... off
 SOSCF                  CNVSOSCF        .... on
   Start iteration      SOSCFMaxIt      ....   150
   Startup grad/error   SOSCFStart      ....  0.003300
 Level Shifting         CNVShift        .... on
   Level shift para.    LevelShift      ....    0.2500
   Turn off err/grad.   ShiftErr        ....    0.0010
 Zerner damping         CNVZerner       .... off
 Static damping         CNVDamp         .... on
   Fraction old density DampFac         ....    0.7000
   Max. Damping (<1)    DampMax         ....    0.9800
   Min. Damping (>=0)   DampMin         ....    0.0000
   Turn off err/grad.   DampErr         ....    0.1000
 Fernandez-Rico         CNVRico         .... off

SCF Procedure:
 Maximum # iterations   MaxIter         ....   125
 SCF integral mode      SCFMode         .... Direct
   Integral package                     .... LIBINT
 Reset frequency        DirectResetFreq ....    20
 Integral Threshold     Thresh          ....  2.500e-11 Eh
 Primitive CutOff       TCut            ....  2.500e-12 Eh

Convergence Tolerance:
 Convergence Check Mode ConvCheckMode   .... Total+1el-Energy
 Convergence forced     ConvForced      .... 0
 Energy Change          TolE            ....  1.000e-08 Eh
 1-El. energy change                    ....  1.000e-05 Eh
 Orbital Gradient       TolG            ....  1.000e-05
 Orbital Rotation angle TolX            ....  1.000e-05
 DIIS Error             TolErr          ....  5.000e-07


Diagonalization of the overlap matrix:
Smallest eigenvalue                        ... 3.909e-02
Time for diagonalization                   ...    0.000 sec
Threshold for overlap eigenvalues          ... 1.000e-08
Number of eigenvalues below threshold      ... 0
Time for construction of square roots      ...    0.000 sec
Total time needed                          ...    0.000 sec

-------------------
DFT GRID GENERATION
-------------------

General Integration Accuracy     IntAcc      ...  4.670
Radial Grid Type                 RadialGrid  ... Gauss-Chebyshev
Angular Grid (max. acc.)         AngularGrid ... Lebedev-302
Angular grid pruning method      GridPruning ... 3 (G Style)
Weight generation scheme         WeightScheme... Becke
Basis function cutoff            BFCut       ...    1.0000e-11
Integration weight cutoff        WCut        ...    1.0000e-14
Grids for H and He will be reduced by one unit

# of grid points (after initial pruning)     ...   6788 (   0.0 sec)
# of grid points (after weights+screening)   ...   6762 (   0.0 sec)
nearest neighbour list constructed           ...    0.0 sec
Grid point re-assignment to atoms done       ...    0.0 sec
Grid point division into batches done        ...    0.0 sec
Reduced shell lists constructed in    0.0 sec

Total number of grid points                  ...     6762
Total number of batches                      ...      106
Average number of points per batch           ...       63
Average number of grid points per atom       ...     3381
Average number of shells per batch           ...     7.33 (91.59%)
Average number of basis functions per batch  ...    10.84 (90.34%)
Average number of large shells per batch     ...     7.04 (96.05%)
Average number of large basis fcns per batch ...    10.27 (94.74%)
Maximum spatial batch extension              ...  15.43, 15.43, 13.36 au
Average spatial batch extension              ...   3.69,  3.69,  3.41 au

Time for grid setup =    0.027 sec

------------------------------
INITIAL GUESS: MODEL POTENTIAL
------------------------------
Loading Hartree-Fock densities                     ... done
Calculating cut-offs                               ... done
Setting up the integral package                    ... done
Initializing the effective Hamiltonian             ... done
Starting the Coulomb interaction                   ... done (   0.0 sec)
Reading the grid                                   ... done
Mapping shells                                     ... done
Starting the XC term evaluation                    ... done (   0.0 sec)
  promolecular density results
     # of electrons  =      1.999022859
     EX              =     -0.547485866
     EC              =     -0.034737924
     EX+EC           =     -0.582223790
Transforming the Hamiltonian                       ... done (   0.0 sec)
Diagonalizing the Hamiltonian                      ... done (   0.0 sec)
Back transforming the eigenvectors                 ... done (   0.0 sec)
Now organizing SCF variables                       ... done
                      ------------------
                      INITIAL GUESS DONE (   0.1 sec)
                      ------------------

--------------------
CPCM SOLVATION MODEL
--------------------
CPCM parameters:
  Epsilon                                         ...      78.3550
  Refrac                                          ...       1.0000
  Rsolv                                           ...       1.3000
  Surface type                                    ...    GEPOL SES
  Epsilon function type                           ...         CPCM
Solvent:                                     ... WATER
SMD-CDS solvent descriptors:
  Soln                                       ...    1.3328
  Soln25                                     ...    1.3323
  Sola                                       ...    0.0000
  Solb                                       ...    0.0000
  Solg                                       ...    0.0000
  Solc                                       ...    0.0000
  Solh                                       ...    0.0000
Radii:
 Radius for H  used is    2.2677 Bohr (=   1.2000 Ang.)
Calculating surface                               ...        done! (  0.0s)
GEPOL surface points                              ...          100
GEPOL Volume                                      ...      77.7861
GEPOL Surface-area                                ...      91.5457
Calculating surface distance matrix               ...        done! (  0.0s)
Performing Cholesky decomposition & store         ...        done! (  0.0s)
Overall time for CPCM initialization              ...                 0.0s
--------------
SCF ITERATIONS
--------------
ITER       Energy         Delta-E        Max-DP      RMS-DP      [F,P]     Damp
               ***  Starting incremental Fock matrix formation  ***
  0     -1.1434412882   0.000000000000 0.00450589  0.00106706  0.0309972 0.7000
  1     -1.1439321754  -0.000490887228 0.00484104  0.00106939  0.0220552 0.7000
                               ***Turning on DIIS***
  2     -1.1442630166  -0.000330841244 0.01225921  0.00263511  0.0141266 0.0000
  3     -1.1448586258  -0.000595609176 0.00143036  0.00034289  0.0043142 0.0000
                      *** Initiating the SOSCF procedure ***
                           *** Shutting down DIIS ***
                      *** Re-Reading the Fockian *** 
                      *** Removing any level shift *** 
ITER      Energy       Delta-E        Grad      Rot      Max-DP    RMS-DP
  4     -1.14488480  -0.0000261773  0.000738  0.000738  0.000666  0.000139
               *** Restarting incremental Fock matrix formation ***
  5     -1.14488719  -0.0000023916  0.000274  0.000511  0.000405  0.000081
  6     -1.14488740  -0.0000002008  0.000078  0.000109  0.000064  0.000015
                  ***Gradient check signals convergence***
              ***Rediagonalizing the Fockian in SOSCF/NRSCF***

               *****************************************************
               *                     SUCCESS                       *
               *           SCF CONVERGED AFTER   7 CYCLES          *
               *****************************************************

Setting up the final grid:

General Integration Accuracy     IntAcc      ...  5.010
Radial Grid Type                 RadialGrid  ... Gauss-Chebyshev
Angular Grid (max. acc.)         AngularGrid ... Lebedev-434
Angular grid pruning method      GridPruning ... 3 (G Style)
Weight generation scheme         WeightScheme... Becke
Basis function cutoff            BFCut       ...    1.0000e-11
Integration weight cutoff        WCut        ...    1.0000e-14
Grids for H and He will be reduced by one unit

# of grid points (after initial pruning)     ...  13384 (   0.0 sec)
# of grid points (after weights+screening)   ...  13354 (   0.0 sec)
nearest neighbour list constructed           ...    0.0 sec
Grid point re-assignment to atoms done       ...    0.0 sec
Grid point division into batches done        ...    0.1 sec
Reduced shell lists constructed in    0.1 sec

Total number of grid points                  ...    13354
Total number of batches                      ...      210
Average number of points per batch           ...       63
Average number of grid points per atom       ...     6677
Average number of shells per batch           ...     7.19 (89.93%)
Average number of basis functions per batch  ...    10.63 (88.55%)
Average number of large shells per batch     ...     6.89 (95.72%)
Average number of large basis fcns per batch ...    10.19 (95.94%)
Maximum spatial batch extension              ...  17.72, 17.72, 13.12 au
Average spatial batch extension              ...   3.25,  3.26,  2.70 au

Final grid set up in    0.1 sec
Final integration                            ... done (   0.0 sec)
Change in XC energy                          ...    -0.000000051
Integrated number of electrons               ...     2.000000049
Previous integrated no of electrons          ...     1.999999861

SMD CDS free energy correction energy :                 2.05584     Kcal/mol
Total Energy after SMD CDS correction =                -1.141611280 Eh

----------------
TOTAL SCF ENERGY
----------------

Total Energy       :           -1.14161128 Eh             -31.06482 eV

Components:
Nuclear Repulsion  :            0.52917721 Eh              14.39964 eV
Electronic Energy  :           -1.67078849 Eh             -45.46447 eV
One Electron Energy:           -2.20976958 Eh             -60.13089 eV
Two Electron Energy:            0.53898109 Eh              14.66642 eV
CPCM Dielectric    :           -0.00085938 Eh              -0.02339 eV
SMD CDS (Gcds)     :            0.00327619 Eh               0.08915 eV

Virial components:
Potential Energy   :           -2.10283282 Eh             -57.22099 eV
Kinetic Energy     :            0.96122154 Eh              26.15617 eV
Virial Ratio       :            2.18766718


DFT components:
N(Alpha)           :        1.000000024329 electrons
N(Beta)            :        1.000000024329 electrons
N(Total)           :        2.000000048657 electrons
E(X)               :       -0.588903073126 Eh       
E(C)               :       -0.036165585841 Eh       
E(XC)              :       -0.625068658967 Eh       
DFET-embed. en.    :        0.000000000000 Eh       
CPCM Solvation Model Properties:
Surface-charge          :           -0.03761801
Charge-correction       :            0.00046475 Eh               0.01265 eV
Free-energy (cav+disp)  :            0.00238148 Eh               0.06480 eV
Corrected G(solv)       :           -1.13876506 Eh             -30.98737 eV

---------------
SCF CONVERGENCE
---------------

  Last Energy change         ...   -2.0434e-08  Tolerance :   1.0000e-08
  Last MAX-Density change    ...    6.3271e-08  Tolerance :   1.0000e-07
  Last RMS-Density change    ...    1.4272e-08  Tolerance :   5.0000e-09
  Last Orbital Gradient      ...    2.0113e-07  Tolerance :   1.0000e-05
  Last Orbital Rotation      ...    7.5581e-08  Tolerance :   1.0000e-05

             **** THE GBW FILE WAS UPDATED (dihydrogen@water.gbw) ****
             **** DENSITY FILE WAS UPDATED (dihydrogen@water.scfp) ****
             **** ENERGY FILE WAS UPDATED (dihydrogen@water.en.tmp) ****
             **** THE GBW FILE WAS UPDATED (dihydrogen@water.gbw) ****
             **** DENSITY FILE WAS UPDATED (dihydrogen@water.scfp) ****
----------------
ORBITAL ENERGIES
----------------

  NO   OCC          E(Eh)            E(eV) 
   0   2.0000      -0.332250        -9.0410 
   1   0.0000      -0.005910        -0.1608 
   2   0.0000       0.204256         5.5581 
   3   0.0000       0.369800        10.0628 
   4   0.0000       1.143061        31.1043 
   5   0.0000       1.143061        31.1043 
   6   0.0000       1.400551        38.1109 
   7   0.0000       1.716778        46.7159 
   8   0.0000       1.716778        46.7159 
   9   0.0000       2.159896        58.7737 
  10   0.0000       2.308555        62.8190 
  11   0.0000       2.687533        73.1315 
------------------
MOLECULAR ORBITALS
------------------
                      0         1         2         3         4         5   
                  -0.33225  -0.00591   0.20426   0.36980   1.14306   1.14306
                   2.00000   0.00000   0.00000   0.00000   0.00000   0.00000
                  --------  --------  --------  --------  --------  --------
  0H   1s        -0.179876  0.141125  0.079449 -0.134080  0.000000 -0.000000
  0H   2s        -0.276404  0.224065  0.776888 -1.238692 -0.000000  0.000000
  0H   3s        -0.181237  1.262518 -0.868300  2.033364 -0.000000 -0.000000
  0H   1pz       -0.017238 -0.027871  0.016245 -0.007967  0.000000  0.000000
  0H   1px       -0.000000 -0.000000 -0.000000 -0.000000  0.635077 -0.002342
  0H   1py       -0.000000  0.000000 -0.000000  0.000000  0.002342  0.635077
  1H   1s        -0.179876 -0.141125  0.079449  0.134080  0.000000 -0.000000
  1H   2s        -0.276404 -0.224065  0.776888  1.238692 -0.000000 -0.000000
  1H   3s        -0.181237 -1.262518 -0.868300 -2.033364  0.000000  0.000000
  1H   1pz        0.017238 -0.027871 -0.016245 -0.007967 -0.000000 -0.000000
  1H   1px       -0.000000  0.000000 -0.000000  0.000000  0.635077 -0.002342
  1H   1py        0.000000  0.000000  0.000000  0.000000  0.002342  0.635077
                      6         7         8         9        10        11   
                   1.40055   1.71678   1.71678   2.15990   2.30855   2.68753
                   0.00000   0.00000   0.00000   0.00000   0.00000   0.00000
                  --------  --------  --------  --------  --------  --------
  0H   1s        -0.154193  0.000000  0.000000  1.083146  1.118004  0.103133
  0H   2s         0.525909 -0.000000 -0.000000 -1.771718 -1.170140 -1.499403
  0H   3s        -0.280962  0.000000  0.000000  1.143121  0.450049  0.401149
  0H   1pz       -0.610626 -0.000000 -0.000000 -0.058821 -0.110556 -1.454417
  0H   1px        0.000000 -0.810879 -0.009879  0.000000 -0.000000  0.000000
  0H   1py       -0.000000  0.009879 -0.810879  0.000000  0.000000  0.000000
  1H   1s        -0.154193 -0.000000 -0.000000 -1.083146  1.118004 -0.103133
  1H   2s         0.525909  0.000000  0.000000  1.771718 -1.170140  1.499403
  1H   3s        -0.280962 -0.000000 -0.000000 -1.143121  0.450049 -0.401149
  1H   1pz        0.610626 -0.000000 -0.000000 -0.058821  0.110556 -1.454417
  1H   1px        0.000000  0.810879  0.009879 -0.000000  0.000000 -0.000000
  1H   1py        0.000000 -0.009879  0.810879 -0.000000 -0.000000 -0.000000



                    ********************************
                    * MULLIKEN POPULATION ANALYSIS *
                    ********************************

-----------------------
MULLIKEN ATOMIC CHARGES
-----------------------
   0 H :    0.000000
   1 H :   -0.000000
Sum of atomic charges:    0.0000000

--------------------------------
MULLIKEN REDUCED ORBITAL CHARGES
--------------------------------
  0 H s       :     0.992662  s :     0.992662
      pz      :     0.007338  p :     0.007338
      px      :     0.000000
      py      :     0.000000
  1 H s       :     0.992662  s :     0.992662
      pz      :     0.007338  p :     0.007338
      px      :     0.000000
      py      :     0.000000


                     *******************************
                     * LOEWDIN POPULATION ANALYSIS *
                     *******************************

----------------------
LOEWDIN ATOMIC CHARGES
----------------------
   0 H :    0.000000
   1 H :   -0.000000

-------------------------------
LOEWDIN REDUCED ORBITAL CHARGES
-------------------------------
  0 H s       :     0.985676  s :     0.985676
      pz      :     0.014324  p :     0.014324
      px      :     0.000000
      py      :     0.000000
  1 H s       :     0.985676  s :     0.985676
      pz      :     0.014324  p :     0.014324
      px      :     0.000000
      py      :     0.000000


                      *****************************
                      * MAYER POPULATION ANALYSIS *
                      *****************************

  NA   - Mulliken gross atomic population
  ZA   - Total nuclear charge
  QA   - Mulliken gross atomic charge
  VA   - Mayer's total valence
  BVA  - Mayer's bonded valence
  FA   - Mayer's free valence

  ATOM       NA         ZA         QA         VA         BVA        FA
  0 H      1.0000     1.0000     0.0000     1.0000     1.0000     0.0000
  1 H      1.0000     1.0000    -0.0000     1.0000     1.0000     0.0000

  Mayer bond orders larger than 0.100000
B(  0-H ,  1-H ) :   1.0000 

-------
TIMINGS
-------

Total SCF time: 0 days 0 hours 0 min 1 sec 

Total time                  ....       1.723 sec
Sum of individual times     ....       1.655 sec  ( 96.1%)

Fock matrix formation       ....       1.475 sec  ( 85.6%)
  Split-RI-J                ....       0.466 sec  ( 31.6% of F)
  XC integration            ....       0.091 sec  (  6.2% of F)
    Basis function eval.    ....       0.028 sec  ( 30.5% of XC)
    Density eval.           ....       0.017 sec  ( 19.2% of XC)
    XC-Functional eval.     ....       0.029 sec  ( 32.4% of XC)
    XC-Potential eval.      ....       0.007 sec  (  7.5% of XC)
Diagonalization             ....       0.000 sec  (  0.0%)
Density matrix formation    ....       0.000 sec  (  0.0%)
Population analysis         ....       0.000 sec  (  0.0%)
Initial guess               ....       0.072 sec  (  4.2%)
Orbital Transformation      ....       0.000 sec  (  0.0%)
Orbital Orthonormalization  ....       0.000 sec  (  0.0%)
DIIS solution               ....       0.000 sec  (  0.0%)
SOSCF solution              ....       0.000 sec  (  0.0%)
Grid generation             ....       0.108 sec  (  6.2%)


-------------------------------------------------------------------------------
                          DFT DISPERSION CORRECTION                            
                                                                               
                                 DFTD4 V2.0                                    
-------------------------------------------------------------------------------
The BLYP functional is recognized
Active option DFTDOPT                   ...         5   

-------------------------   ----------------
Dispersion correction           -0.000446536
-------------------------   ----------------


-------------------------   --------------------
FINAL SINGLE POINT ENERGY        -1.142057815802
-------------------------   --------------------

------------------------------------------------------------------------------
                         ORCA SCF GRADIENT CALCULATION
------------------------------------------------------------------------------

Gradient of the Kohn-Sham DFT energy:
Kohn-Sham wavefunction type      ... RKS
Hartree-Fock exchange scaling    ...    0.000
Number of operators              ...    1
Number of atoms                  ...    2
Basis set dimensions             ...   12
Integral neglect threshold       ... 2.5e-11
Integral primitive cutoff        ... 2.5e-12

Nuclear repulsion gradient       ... done
One Electron Gradient            ... done
Pre-screening matrix             ... done
RI-J gradient                    ... done
Exchange-correlation gradient    ... done
Dispersion correction            ... 

------------------- 
Dispersion Gradient 
------------------- 
   1  :    0.000000000    0.000000000   -0.000001201
   2  :    0.000000000    0.000000000    0.000001201

  |G| =    0.000002402

done

------------------
CARTESIAN GRADIENT
------------------

   1   H   :   -0.000000000    0.000000000   -0.082656569
   2   H   :    0.000000000   -0.000000000    0.082656569

Difference to translation invariance:
           :    0.0000000000   -0.0000000000    0.0000000000

Norm of the cartesian gradient     ...    0.1168940416
RMS gradient                       ...    0.0477217926
MAX gradient                       ...    0.0826565695

-------
TIMINGS
-------

Total SCF gradient time            ...        0.241 sec

One electron gradient       ....       0.000 sec  (  0.1%)
Prescreening matrices       ....       0.000 sec  (  0.0%)
RI-J Coulomb gradient       ....       0.054 sec  ( 22.2%)
XC gradient                 ....       0.045 sec  ( 18.5%)
CPCM gradient               ....       0.051 sec  ( 21.0%)
   A-Matrix (El+Nuc)        ....       0.000 sec  (  0.1%)
   Potential                ....       0.050 sec  ( 20.9%)
------------------------------------------------------------------------------
                         ORCA GEOMETRY RELAXATION STEP
------------------------------------------------------------------------------

Reading the OPT-File                    .... done
Getting information on internals        .... done
Copying old internal coords+grads       .... done
Making the new internal coordinates     .... (new redundants).... done
Validating the new internal coordinates .... (new redundants).... done
Calculating the B-matrix                .... done
Calculating the G,G- and P matrices     .... done
Transforming gradient to internals      .... done
Projecting the internal gradient        .... done
Number of atoms                         ....   2
Number of internal coordinates          ....   1
Current Energy                          ....    -1.142057816 Eh
Current gradient norm                   ....     0.116894042 Eh/bohr
Maximum allowed component of the step   ....  0.300
Current trust radius                    ....  0.300
Evaluating the initial hessian          ....  (Almloef) done
Projecting the Hessian                  .... done
Forming the augmented Hessian           .... done
Diagonalizing the augmented Hessian     .... done
Last element of RFO vector              ....  0.866603719
Lowest eigenvalues of augmented Hessian:
 -0.047594279
Length of the computed step             ....  0.575807578
Warning: the length of the step is outside the trust region - taking restricted step instead
The input lambda is                     ....    -0.047594
   iter:   1  x=   -0.099886  g=    4.619391 f(x)=     0.241554
   iter:   2  x=   -0.148333  g=    1.819191 f(x)=     0.088136
   iter:   3  x=   -0.174457  g=    0.937300 f(x)=     0.024486
   iter:   4  x=   -0.179426  g=    0.691050 f(x)=     0.003434
   iter:   5  x=   -0.179567  g=    0.654312 f(x)=     0.000092
   iter:   6  x=   -0.179567  g=    0.653306 f(x)=     0.000000
   iter:   7  x=   -0.179567  g=    0.653306 f(x)=     0.000000
   iter:   8  x=   -0.179567  g=    0.653306 f(x)=     0.000000
The output lambda is                    ....    -0.179567 (8 iterations)
The final length of the internal step   ....  0.300000000
Converting the step to cartesian space:
 Initial RMS(Int)=    0.3000000000
Transforming coordinates:
 Iter   0:  RMS(Cart)=    0.0866025404 RMS(Int)=    0.3000000000
 Iter   1:  RMS(Cart)=    0.0000000000 RMS(Int)=    0.0000000000
done
Storing new coordinates                 .... done

                                .--------------------.
          ----------------------|Geometry convergence|-------------------------
          Item                value                   Tolerance       Converged
          ---------------------------------------------------------------------
          RMS gradient        0.0826565695            0.0000300000      NO
          MAX gradient        0.0826565695            0.0001000000      NO
          RMS step            0.3000000000            0.0006000000      NO
          MAX step            0.3000000000            0.0010000000      NO
          ........................................................
          Max(Bonds)      0.1588      Max(Angles)    0.00
          Max(Dihed)        0.00      Max(Improp)    0.00
          ---------------------------------------------------------------------

The optimization has not yet converged - more geometry cycles are needed


    ---------------------------------------------------------------------------
                         Redundant Internal Coordinates
                            (Angstroem and degrees)

        Definition                    Value    dE/dq     Step     New-Value
    ----------------------------------------------------------------------------
     1. B(H   1,H   0)                1.0000  0.082657 -0.1588    0.8412   
    ----------------------------------------------------------------------------

         *************************************************************
         *                GEOMETRY OPTIMIZATION CYCLE   2            *
         *************************************************************
---------------------------------
CARTESIAN COORDINATES (ANGSTROEM)
---------------------------------
  H      0.000000    0.000000    0.079377
  H      0.000000    0.000000    0.920623

----------------------------
CARTESIAN COORDINATES (A.U.)
----------------------------
  NO LB      ZA    FRAG     MASS         X           Y           Z
   0 H     1.0000    0     1.008    0.000000    0.000000    0.150000
   1 H     1.0000    0     1.008    0.000000    0.000000    1.739726

--------------------------------
INTERNAL COORDINATES (ANGSTROEM)
--------------------------------
 H      0   0   0     0.000000000000     0.00000000     0.00000000
 H      1   0   0     0.841246837510     0.00000000     0.00000000

---------------------------
INTERNAL COORDINATES (A.U.)
---------------------------
 H      0   0   0     0.000000000000     0.00000000     0.00000000
 H      1   0   0     1.589726133921     0.00000000     0.00000000

 One Electron integrals                  ... done
 Pre-screening matrix                    ... done

Diagonalization of the overlap matrix:
Smallest eigenvalue                        ... 2.580e-02
Time for diagonalization                   ...    0.000 sec
Threshold for overlap eigenvalues          ... 1.000e-08
Number of eigenvalues below threshold      ... 0
Time for construction of square roots      ...    0.000 sec
Total time needed                          ...    0.000 sec

-------------------
DFT GRID GENERATION
-------------------

General Integration Accuracy     IntAcc      ...  4.670
Radial Grid Type                 RadialGrid  ... Gauss-Chebyshev
Angular Grid (max. acc.)         AngularGrid ... Lebedev-302
Angular grid pruning method      GridPruning ... 3 (G Style)
Weight generation scheme         WeightScheme... Becke
Basis function cutoff            BFCut       ...    1.0000e-11
Integration weight cutoff        WCut        ...    1.0000e-14
Grids for H and He will be reduced by one unit

# of grid points (after initial pruning)     ...   6788 (   0.0 sec)
# of grid points (after weights+screening)   ...   6760 (   0.0 sec)
nearest neighbour list constructed           ...    0.0 sec
Grid point re-assignment to atoms done       ...    0.0 sec
Grid point division into batches done        ...    0.0 sec
Reduced shell lists constructed in    0.0 sec

Total number of grid points                  ...     6760
Total number of batches                      ...      106
Average number of points per batch           ...       63
Average number of grid points per atom       ...     3380
Average number of shells per batch           ...     7.35 (91.82%)
Average number of basis functions per batch  ...    10.88 (90.65%)
Average number of large shells per batch     ...     7.08 (96.44%)
Average number of large basis fcns per batch ...    10.34 (95.02%)
Maximum spatial batch extension              ...  15.43, 15.43, 13.36 au
Average spatial batch extension              ...   3.78,  3.72,  3.26 au

Time for grid setup =    0.025 sec


--------------------
CPCM SOLVATION MODEL
--------------------
CPCM parameters:
  Epsilon                                         ...      78.3550
  Refrac                                          ...       1.0000
  Rsolv                                           ...       1.3000
  Surface type                                    ...    GEPOL SES
  Epsilon function type                           ...         CPCM
Solvent:                                     ... WATER
SMD-CDS solvent descriptors:
  Soln                                       ...    1.3328
  Soln25                                     ...    1.3323
  Sola                                       ...    0.0000
  Solb                                       ...    0.0000
  Solg                                       ...    0.0000
  Solc                                       ...    0.0000
  Solh                                       ...    0.0000
Radii:
 Radius for H  used is    2.2677 Bohr (=   1.2000 Ang.)
Calculating surface                               ...        done! (  0.0s)
GEPOL surface points                              ...          100
GEPOL Volume                                      ...      73.6220
GEPOL Surface-area                                ...      87.2545
Calculating surface distance matrix               ...        done! (  0.0s)
Performing Cholesky decomposition & store         ...        done! (  0.0s)
Overall time for CPCM initialization              ...                 0.0s
--------------
SCF ITERATIONS
--------------
ITER       Energy         Delta-E        Max-DP      RMS-DP      [F,P]     Damp
               ***  Starting incremental Fock matrix formation  ***
  0     -1.1633244127   0.000000000000 0.00353484  0.00085541  0.0464677 0.7000
  1     -1.1640023267  -0.000677913914 0.00288662  0.00078063  0.0326083 0.7000
                               ***Turning on DIIS***
  2     -1.1644441683  -0.000441841651 0.00682373  0.00182427  0.0209587 0.0000
  3     -1.1652610649  -0.000816896610 0.00146662  0.00038591  0.0055315 0.0000
                      *** Initiating the SOSCF procedure ***
                           *** Shutting down DIIS ***
                      *** Re-Reading the Fockian *** 
                      *** Removing any level shift *** 
ITER      Energy       Delta-E        Grad      Rot      Max-DP    RMS-DP
  4     -1.16529853  -0.0000374684  0.000802  0.000802  0.000695  0.000143
               *** Restarting incremental Fock matrix formation ***
  5     -1.16530114  -0.0000026117  0.000263  0.000479  0.000361  0.000072
  6     -1.16530132  -0.0000001771  0.000077  0.000104  0.000048  0.000012
                  ***Gradient check signals convergence***
              ***Rediagonalizing the Fockian in SOSCF/NRSCF***

               *****************************************************
               *                     SUCCESS                       *
               *           SCF CONVERGED AFTER   7 CYCLES          *
               *****************************************************

Setting up the final grid:

General Integration Accuracy     IntAcc      ...  5.010
Radial Grid Type                 RadialGrid  ... Gauss-Chebyshev
Angular Grid (max. acc.)         AngularGrid ... Lebedev-434
Angular grid pruning method      GridPruning ... 3 (G Style)
Weight generation scheme         WeightScheme... Becke
Basis function cutoff            BFCut       ...    1.0000e-11
Integration weight cutoff        WCut        ...    1.0000e-14
Grids for H and He will be reduced by one unit

# of grid points (after initial pruning)     ...  13384 (   0.0 sec)
# of grid points (after weights+screening)   ...  13352 (   0.0 sec)
nearest neighbour list constructed           ...    0.0 sec
Grid point re-assignment to atoms done       ...    0.0 sec
Grid point division into batches done        ...    0.1 sec
Reduced shell lists constructed in    0.1 sec

Total number of grid points                  ...    13352
Total number of batches                      ...      210
Average number of points per batch           ...       63
Average number of grid points per atom       ...     6676
Average number of shells per batch           ...     7.20 (89.99%)
Average number of basis functions per batch  ...    10.63 (88.59%)
Average number of large shells per batch     ...     6.89 (95.72%)
Average number of large basis fcns per batch ...    10.19 (95.85%)
Maximum spatial batch extension              ...  15.94, 15.83, 13.12 au
Average spatial batch extension              ...   3.19,  3.23,  2.62 au

Final grid set up in    0.1 sec
Final integration                            ... done (   0.0 sec)
Change in XC energy                          ...     0.000000069
Integrated number of electrons               ...     1.999999953
Previous integrated no of electrons          ...     1.999999834

SMD CDS free energy correction energy :                 1.97813     Kcal/mol
Total Energy after SMD CDS correction =                -1.162148921 Eh
Total Energy       :           -1.16214892 Eh             -31.62368 eV
  Last Energy change         ...   -1.9862e-08  Tolerance :   1.0000e-08
  Last MAX-Density change    ...    6.6300e-07  Tolerance :   1.0000e-07
             **** THE GBW FILE WAS UPDATED (dihydrogen@water.gbw) ****
             **** DENSITY FILE WAS UPDATED (dihydrogen@water.scfp) ****
             **** ENERGY FILE WAS UPDATED (dihydrogen@water.en.tmp) ****
             **** THE GBW FILE WAS UPDATED (dihydrogen@water.gbw) ****
             **** DENSITY FILE WAS UPDATED (dihydrogen@water.scfp) ****
Total SCF time: 0 days 0 hours 0 min 1 sec 


-------------------------------------------------------------------------------
                          DFT DISPERSION CORRECTION                            
                                                                               
                                 DFTD4 V2.0                                    
-------------------------------------------------------------------------------
-------------------------   ----------------
Dispersion correction           -0.000241397
-------------------------   ----------------


-------------------------   --------------------
FINAL SINGLE POINT ENERGY        -1.162390318397
-------------------------   --------------------

------------------------------------------------------------------------------
                         ORCA SCF GRADIENT CALCULATION
------------------------------------------------------------------------------

Gradient of the Kohn-Sham DFT energy:
Kohn-Sham wavefunction type      ... RKS
Hartree-Fock exchange scaling    ...    0.000
Number of operators              ...    1
Number of atoms                  ...    2
Basis set dimensions             ...   12
Integral neglect threshold       ... 2.5e-11
Integral primitive cutoff        ... 2.5e-12

Nuclear repulsion gradient       ... done
One Electron Gradient            ... done
Pre-screening matrix             ... done
RI-J gradient                    ... done
Exchange-correlation gradient    ... done
Dispersion correction            ... 

------------------- 
Dispersion Gradient 
------------------- 
   1  :    0.000000000    0.000000000   -0.000000264
   2  :    0.000000000    0.000000000    0.000000264

  |G| =    0.000000529

done

------------------
CARTESIAN GRADIENT
------------------

   1   H   :   -0.000000000    0.000000000   -0.047532694
   2   H   :    0.000000000   -0.000000000    0.047532694

Difference to translation invariance:
           :   -0.0000000000   -0.0000000000    0.0000000000

Norm of the cartesian gradient     ...    0.0672213805
RMS gradient                       ...    0.0274430137
MAX gradient                       ...    0.0475326940

-------
TIMINGS
-------

Total SCF gradient time            ...        0.250 sec

One electron gradient       ....       0.000 sec  (  0.1%)
Prescreening matrices       ....       0.000 sec  (  0.0%)
RI-J Coulomb gradient       ....       0.054 sec  ( 21.5%)
XC gradient                 ....       0.044 sec  ( 17.7%)
CPCM gradient               ....       0.053 sec  ( 21.0%)
   A-Matrix (El+Nuc)        ....       0.000 sec  (  0.2%)
   Potential                ....       0.052 sec  ( 20.9%)
------------------------------------------------------------------------------
                         ORCA GEOMETRY RELAXATION STEP
------------------------------------------------------------------------------

Reading the OPT-File                    .... done
Getting information on internals        .... done
Copying old internal coords+grads       .... done
Making the new internal coordinates     .... (new redundants).... done
Validating the new internal coordinates .... (new redundants).... done
Calculating the B-matrix                .... done
Calculating the G,G- and P matrices     .... done
Transforming gradient to internals      .... done
Projecting the internal gradient        .... done
Number of atoms                         ....   2
Number of internal coordinates          ....   1
Current Energy                          ....    -1.162390318 Eh
Current gradient norm                   ....     0.067221380 Eh/bohr
Maximum allowed component of the step   ....  0.300
Current trust radius                    ....  0.300
Updating the Hessian (BFGS)             .... done
Forming the augmented Hessian           .... done
Diagonalizing the augmented Hessian     .... done
Last element of RFO vector              ....  0.942420932
Lowest eigenvalues of augmented Hessian:
 -0.016867530
Length of the computed step             ....  0.354861648
Warning: the length of the step is outside the trust region - taking restricted step instead
The input lambda is                     ....    -0.016868
   iter:   1  x=   -0.035975  g=    1.880246 f(x)=     0.035927
   iter:   2  x=   -0.041091  g=    1.260305 f(x)=     0.006448
   iter:   3  x=   -0.041362  g=    1.141925 f(x)=     0.000309
   iter:   4  x=   -0.041363  g=    1.136075 f(x)=     0.000001
   iter:   5  x=   -0.041363  g=    1.136060 f(x)=     0.000000
   iter:   6  x=   -0.041363  g=    1.136060 f(x)=    -0.000000
The output lambda is                    ....    -0.041363 (6 iterations)
The final length of the internal step   ....  0.300000000
Converting the step to cartesian space:
 Initial RMS(Int)=    0.3000000000
Transforming coordinates:
 Iter   0:  RMS(Cart)=    0.0866025404 RMS(Int)=    0.3000000000
 Iter   1:  RMS(Cart)=    0.0000000000 RMS(Int)=    0.0000000000
done
Storing new coordinates                 .... done

                                .--------------------.
          ----------------------|Geometry convergence|-------------------------
          Item                value                   Tolerance       Converged
          ---------------------------------------------------------------------
          Energy change      -0.0203325026            0.0000010000      NO
          RMS gradient        0.0475326940            0.0000300000      NO
          MAX gradient        0.0475326940            0.0001000000      NO
          RMS step            0.3000000000            0.0006000000      NO
          MAX step            0.3000000000            0.0010000000      NO
          ........................................................
          Max(Bonds)      0.1588      Max(Angles)    0.00
          Max(Dihed)        0.00      Max(Improp)    0.00
          ---------------------------------------------------------------------

The optimization has not yet converged - more geometry cycles are needed


    ---------------------------------------------------------------------------
                         Redundant Internal Coordinates
                            (Angstroem and degrees)

        Definition                    Value    dE/dq     Step     New-Value
    ----------------------------------------------------------------------------
     1. B(H   1,H   0)                0.8412  0.047533 -0.1588    0.6825   
    ----------------------------------------------------------------------------

         *************************************************************
         *                GEOMETRY OPTIMIZATION CYCLE   3            *
         *************************************************************
---------------------------------
CARTESIAN COORDINATES (ANGSTROEM)
---------------------------------
  H      0.000000    0.000000    0.158753
  H      0.000000    0.000000    0.841247

----------------------------
CARTESIAN COORDINATES (A.U.)
----------------------------
  NO LB      ZA    FRAG     MASS         X           Y           Z
   0 H     1.0000    0     1.008    0.000000    0.000000    0.300000
   1 H     1.0000    0     1.008    0.000000    0.000000    1.589726

--------------------------------
INTERNAL COORDINATES (ANGSTROEM)
--------------------------------
 H      0   0   0     0.000000000000     0.00000000     0.00000000
 H      1   0   0     0.682493675020     0.00000000     0.00000000

---------------------------
INTERNAL COORDINATES (A.U.)
---------------------------
 H      0   0   0     0.000000000000     0.00000000     0.00000000
 H      1   0   0     1.289726133921     0.00000000     0.00000000

 One Electron integrals                  ... done
 Pre-screening matrix                    ... done

Diagonalization of the overlap matrix:
Smallest eigenvalue                        ... 1.468e-02
Time for diagonalization                   ...    0.000 sec
Threshold for overlap eigenvalues          ... 1.000e-08
Number of eigenvalues below threshold      ... 0
Time for construction of square roots      ...    0.000 sec
Total time needed                          ...    0.001 sec

-------------------
DFT GRID GENERATION
-------------------

General Integration Accuracy     IntAcc      ...  4.670
Radial Grid Type                 RadialGrid  ... Gauss-Chebyshev
Angular Grid (max. acc.)         AngularGrid ... Lebedev-302
Angular grid pruning method      GridPruning ... 3 (G Style)
Weight generation scheme         WeightScheme... Becke
Basis function cutoff            BFCut       ...    1.0000e-11
Integration weight cutoff        WCut        ...    1.0000e-14
Grids for H and He will be reduced by one unit

# of grid points (after initial pruning)     ...   6788 (   0.0 sec)
# of grid points (after weights+screening)   ...   6758 (   0.0 sec)
nearest neighbour list constructed           ...    0.0 sec
Grid point re-assignment to atoms done       ...    0.0 sec
Grid point division into batches done        ...    0.0 sec
Reduced shell lists constructed in    0.0 sec

Total number of grid points                  ...     6758
Total number of batches                      ...      106
Average number of points per batch           ...       63
Average number of grid points per atom       ...     3379
Average number of shells per batch           ...     7.35 (91.82%)
Average number of basis functions per batch  ...    10.86 (90.50%)
Average number of large shells per batch     ...     7.09 (96.56%)
Average number of large basis fcns per batch ...    10.36 (95.44%)
Maximum spatial batch extension              ...  15.43, 15.43, 13.36 au
Average spatial batch extension              ...   3.82,  3.73,  3.14 au

Time for grid setup =    0.027 sec


--------------------
CPCM SOLVATION MODEL
--------------------
CPCM parameters:
  Epsilon                                         ...      78.3550
  Refrac                                          ...       1.0000
  Rsolv                                           ...       1.3000
  Surface type                                    ...    GEPOL SES
  Epsilon function type                           ...         CPCM
Solvent:                                     ... WATER
SMD-CDS solvent descriptors:
  Soln                                       ...    1.3328
  Soln25                                     ...    1.3323
  Sola                                       ...    0.0000
  Solb                                       ...    0.0000
  Solg                                       ...    0.0000
  Solc                                       ...    0.0000
  Solh                                       ...    0.0000
Radii:
 Radius for H  used is    2.2677 Bohr (=   1.2000 Ang.)
Calculating surface                               ...        done! (  0.0s)
GEPOL surface points                              ...          100
GEPOL Volume                                      ...      69.1703
GEPOL Surface-area                                ...      82.8791
Calculating surface distance matrix               ...        done! (  0.0s)
Performing Cholesky decomposition & store         ...        done! (  0.0s)
Overall time for CPCM initialization              ...                 0.0s
--------------
SCF ITERATIONS
--------------
ITER       Energy         Delta-E        Max-DP      RMS-DP      [F,P]     Damp
               ***  Starting incremental Fock matrix formation  ***
  0     -1.1633704814   0.000000000000 0.00501225  0.00104393  0.0634274 0.7000
  1     -1.1645009121  -0.001130430795 0.00390761  0.00089816  0.0437546 0.7000
                               ***Turning on DIIS***
  2     -1.1652193426  -0.000718430428 0.00865500  0.00203862  0.0274636 0.0000
  3     -1.1665196164  -0.001300273838 0.00156582  0.00045439  0.0087634 0.0000
                      *** Initiating the SOSCF procedure ***
                           *** Shutting down DIIS ***
                      *** Re-Reading the Fockian *** 
                      *** Removing any level shift *** 
ITER      Energy       Delta-E        Grad      Rot      Max-DP    RMS-DP
  4     -1.16659081  -0.0000711893  0.001077  0.001077  0.000760  0.000168
               *** Restarting incremental Fock matrix formation ***
  5     -1.16659549  -0.0000046871  0.000350  0.000617  0.000400  0.000084
  6     -1.16659579  -0.0000002978  0.000107  0.000137  0.000051  0.000015
                  ***Gradient check signals convergence***
              ***Rediagonalizing the Fockian in SOSCF/NRSCF***

               *****************************************************
               *                     SUCCESS                       *
               *           SCF CONVERGED AFTER   7 CYCLES          *
               *****************************************************

Setting up the final grid:

General Integration Accuracy     IntAcc      ...  5.010
Radial Grid Type                 RadialGrid  ... Gauss-Chebyshev
Angular Grid (max. acc.)         AngularGrid ... Lebedev-434
Angular grid pruning method      GridPruning ... 3 (G Style)
Weight generation scheme         WeightScheme... Becke
Basis function cutoff            BFCut       ...    1.0000e-11
Integration weight cutoff        WCut        ...    1.0000e-14
Grids for H and He will be reduced by one unit

# of grid points (after initial pruning)     ...  13384 (   0.0 sec)
# of grid points (after weights+screening)   ...  13350 (   0.0 sec)
nearest neighbour list constructed           ...    0.0 sec
Grid point re-assignment to atoms done       ...    0.0 sec
Grid point division into batches done        ...    0.1 sec
Reduced shell lists constructed in    0.1 sec

Total number of grid points                  ...    13350
Total number of batches                      ...      210
Average number of points per batch           ...       63
Average number of grid points per atom       ...     6675
Average number of shells per batch           ...     7.22 (90.23%)
Average number of basis functions per batch  ...    10.68 (88.98%)
Average number of large shells per batch     ...     6.91 (95.80%)
Average number of large basis fcns per batch ...    10.26 (96.09%)
Maximum spatial batch extension              ...  15.01, 15.01, 15.40 au
Average spatial batch extension              ...   3.26,  3.27,  2.67 au

Final grid set up in    0.1 sec
Final integration                            ... done (   0.0 sec)
Change in XC energy                          ...    -0.000000223
Integrated number of electrons               ...     1.999999949
Previous integrated no of electrons          ...     1.999999612

SMD CDS free energy correction energy :                 1.90042     Kcal/mol
Total Energy after SMD CDS correction =                -1.163567534 Eh
Total Energy       :           -1.16356753 Eh             -31.66228 eV
  Last Energy change         ...   -3.7922e-08  Tolerance :   1.0000e-08
  Last MAX-Density change    ...    1.5223e-06  Tolerance :   1.0000e-07
             **** THE GBW FILE WAS UPDATED (dihydrogen@water.gbw) ****
             **** DENSITY FILE WAS UPDATED (dihydrogen@water.scfp) ****
             **** ENERGY FILE WAS UPDATED (dihydrogen@water.en.tmp) ****
             **** THE GBW FILE WAS UPDATED (dihydrogen@water.gbw) ****
             **** DENSITY FILE WAS UPDATED (dihydrogen@water.scfp) ****
Total SCF time: 0 days 0 hours 0 min 1 sec 


-------------------------------------------------------------------------------
                          DFT DISPERSION CORRECTION                            
                                                                               
                                 DFTD4 V2.0                                    
-------------------------------------------------------------------------------
-------------------------   ----------------
Dispersion correction           -0.000179064
-------------------------   ----------------


-------------------------   --------------------
FINAL SINGLE POINT ENERGY        -1.163746598433
-------------------------   --------------------

------------------------------------------------------------------------------
                         ORCA SCF GRADIENT CALCULATION
------------------------------------------------------------------------------

Gradient of the Kohn-Sham DFT energy:
Kohn-Sham wavefunction type      ... RKS
Hartree-Fock exchange scaling    ...    0.000
Number of operators              ...    1
Number of atoms                  ...    2
Basis set dimensions             ...   12
Integral neglect threshold       ... 2.5e-11
Integral primitive cutoff        ... 2.5e-12

Nuclear repulsion gradient       ... done
One Electron Gradient            ... done
Pre-screening matrix             ... done
RI-J gradient                    ... done
Exchange-correlation gradient    ... done
Dispersion correction            ... 

------------------- 
Dispersion Gradient 
------------------- 
   1  :    0.000000000    0.000000000   -0.000000067
   2  :    0.000000000    0.000000000    0.000000067

  |G| =    0.000000134

done

------------------
CARTESIAN GRADIENT
------------------

   1   H   :    0.000000000    0.000000000    0.055367298
   2   H   :   -0.000000000   -0.000000000   -0.055367298

Difference to translation invariance:
           :   -0.0000000000    0.0000000000    0.0000000000

Norm of the cartesian gradient     ...    0.0783011838
RMS gradient                       ...    0.0319663244
MAX gradient                       ...    0.0553672980

-------
TIMINGS
-------

Total SCF gradient time            ...        0.250 sec

One electron gradient       ....       0.000 sec  (  0.1%)
Prescreening matrices       ....       0.000 sec  (  0.0%)
RI-J Coulomb gradient       ....       0.053 sec  ( 21.3%)
XC gradient                 ....       0.045 sec  ( 17.8%)
CPCM gradient               ....       0.053 sec  ( 21.3%)
   A-Matrix (El+Nuc)        ....       0.000 sec  (  0.2%)
   Potential                ....       0.053 sec  ( 21.2%)
------------------------------------------------------------------------------
                         ORCA GEOMETRY RELAXATION STEP
------------------------------------------------------------------------------

Reading the OPT-File                    .... done
Getting information on internals        .... done
Copying old internal coords+grads       .... done
Making the new internal coordinates     .... (new redundants).... done
Validating the new internal coordinates .... (new redundants).... done
Calculating the B-matrix                .... done
Calculating the G,G- and P matrices     .... done
Transforming gradient to internals      .... done
Projecting the internal gradient        .... done
Number of atoms                         ....   2
Number of internal coordinates          ....   1
Current Energy                          ....    -1.163746598 Eh
Current gradient norm                   ....     0.078301184 Eh/bohr
Maximum allowed component of the step   ....  0.300
Current trust radius                    ....  0.300
Updating the Hessian (BFGS)             .... done
Forming the augmented Hessian           .... done
Diagonalizing the augmented Hessian     .... done
Last element of RFO vector              ....  0.987835028
Lowest eigenvalues of augmented Hessian:
 -0.008715948
Length of the computed step             ....  0.157420505
The final length of the internal step   ....  0.157420505
Converting the step to cartesian space:
 Initial RMS(Int)=    0.1574205052
Transforming coordinates:
 Iter   0:  RMS(Cart)=    0.0454433855 RMS(Int)=    0.1574205052
 Iter   1:  RMS(Cart)=    0.0000000000 RMS(Int)=    0.0000000000
done
Storing new coordinates                 .... done

                                .--------------------.
          ----------------------|Geometry convergence|-------------------------
          Item                value                   Tolerance       Converged
          ---------------------------------------------------------------------
          Energy change      -0.0013562800            0.0000010000      NO
          RMS gradient        0.0553672980            0.0000300000      NO
          MAX gradient        0.0553672980            0.0001000000      NO
          RMS step            0.1574205052            0.0006000000      NO
          MAX step            0.1574205052            0.0010000000      NO
          ........................................................
          Max(Bonds)      0.0833      Max(Angles)    0.00
          Max(Dihed)        0.00      Max(Improp)    0.00
          ---------------------------------------------------------------------

The optimization has not yet converged - more geometry cycles are needed


    ---------------------------------------------------------------------------
                         Redundant Internal Coordinates
                            (Angstroem and degrees)

        Definition                    Value    dE/dq     Step     New-Value
    ----------------------------------------------------------------------------
     1. B(H   1,H   0)                0.6825 -0.055367  0.0833    0.7658   
    ----------------------------------------------------------------------------

         *************************************************************
         *                GEOMETRY OPTIMIZATION CYCLE   4            *
         *************************************************************
---------------------------------
CARTESIAN COORDINATES (ANGSTROEM)
---------------------------------
  H      0.000000    0.000000    0.117101
  H      0.000000    0.000000    0.882899

----------------------------
CARTESIAN COORDINATES (A.U.)
----------------------------
  NO LB      ZA    FRAG     MASS         X           Y           Z
   0 H     1.0000    0     1.008    0.000000    0.000000    0.221290
   1 H     1.0000    0     1.008    0.000000    0.000000    1.668436

--------------------------------
INTERNAL COORDINATES (ANGSTROEM)
--------------------------------
 H      0   0   0     0.000000000000     0.00000000     0.00000000
 H      1   0   0     0.765797018502     0.00000000     0.00000000

---------------------------
INTERNAL COORDINATES (A.U.)
---------------------------
 H      0   0   0     0.000000000000     0.00000000     0.00000000
 H      1   0   0     1.447146639142     0.00000000     0.00000000

 One Electron integrals                  ... done
 Pre-screening matrix                    ... done

Diagonalization of the overlap matrix:
Smallest eigenvalue                        ... 1.999e-02
Time for diagonalization                   ...    0.000 sec
Threshold for overlap eigenvalues          ... 1.000e-08
Number of eigenvalues below threshold      ... 0
Time for construction of square roots      ...    0.000 sec
Total time needed                          ...    0.001 sec

-------------------
DFT GRID GENERATION
-------------------

General Integration Accuracy     IntAcc      ...  4.670
Radial Grid Type                 RadialGrid  ... Gauss-Chebyshev
Angular Grid (max. acc.)         AngularGrid ... Lebedev-302
Angular grid pruning method      GridPruning ... 3 (G Style)
Weight generation scheme         WeightScheme... Becke
Basis function cutoff            BFCut       ...    1.0000e-11
Integration weight cutoff        WCut        ...    1.0000e-14
Grids for H and He will be reduced by one unit

# of grid points (after initial pruning)     ...   6788 (   0.0 sec)
# of grid points (after weights+screening)   ...   6758 (   0.0 sec)
nearest neighbour list constructed           ...    0.0 sec
Grid point re-assignment to atoms done       ...    0.0 sec
Grid point division into batches done        ...    0.0 sec
Reduced shell lists constructed in    0.0 sec

Total number of grid points                  ...     6758
Total number of batches                      ...      106
Average number of points per batch           ...       63
Average number of grid points per atom       ...     3379
Average number of shells per batch           ...     7.35 (91.82%)
Average number of basis functions per batch  ...    10.86 (90.50%)
Average number of large shells per batch     ...     7.09 (96.56%)
Average number of large basis fcns per batch ...    10.36 (95.44%)
Maximum spatial batch extension              ...  15.43, 15.43, 13.36 au
Average spatial batch extension              ...   3.77,  3.70,  3.24 au

Time for grid setup =    0.025 sec


--------------------
CPCM SOLVATION MODEL
--------------------
CPCM parameters:
  Epsilon                                         ...      78.3550
  Refrac                                          ...       1.0000
  Rsolv                                           ...       1.3000
  Surface type                                    ...    GEPOL SES
  Epsilon function type                           ...         CPCM
Solvent:                                     ... WATER
SMD-CDS solvent descriptors:
  Soln                                       ...    1.3328
  Soln25                                     ...    1.3323
  Sola                                       ...    0.0000
  Solb                                       ...    0.0000
  Solg                                       ...    0.0000
  Solc                                       ...    0.0000
  Solh                                       ...    0.0000
Radii:
 Radius for H  used is    2.2677 Bohr (=   1.2000 Ang.)
Calculating surface                               ...        done! (  0.0s)
GEPOL surface points                              ...          100
GEPOL Volume                                      ...      71.6304
GEPOL Surface-area                                ...      85.3192
Calculating surface distance matrix               ...        done! (  0.0s)
Performing Cholesky decomposition & store         ...        done! (  0.0s)
Overall time for CPCM initialization              ...                 0.0s
--------------
SCF ITERATIONS
--------------
ITER       Energy         Delta-E        Max-DP      RMS-DP      [F,P]     Damp
               ***  Starting incremental Fock matrix formation  ***
  0     -1.1686872914   0.000000000000 0.00293506  0.00059139  0.0332783 0.7000
                      *** Initiating the SOSCF procedure ***
                      *** Re-Reading the Fockian *** 
                      *** Removing any level shift *** 
ITER      Energy       Delta-E        Grad      Rot      Max-DP    RMS-DP
  1     -1.16901965  -0.0003323599  0.002861  0.002861  0.007588  0.001687
               *** Restarting incremental Fock matrix formation ***
  2     -1.16962824  -0.0006085853  0.002925  0.004920  0.002040  0.000548
  3     -1.16965135  -0.0000231112  0.001059  0.001400  0.000632  0.000163
  4     -1.16965497  -0.0000036174  0.000004  0.000003  0.000002  0.000001
                 **** Energy Check signals convergence ****
              ***Rediagonalizing the Fockian in SOSCF/NRSCF***

               *****************************************************
               *                     SUCCESS                       *
               *           SCF CONVERGED AFTER   5 CYCLES          *
               *****************************************************

Setting up the final grid:

General Integration Accuracy     IntAcc      ...  5.010
Radial Grid Type                 RadialGrid  ... Gauss-Chebyshev
Angular Grid (max. acc.)         AngularGrid ... Lebedev-434
Angular grid pruning method      GridPruning ... 3 (G Style)
Weight generation scheme         WeightScheme... Becke
Basis function cutoff            BFCut       ...    1.0000e-11
Integration weight cutoff        WCut        ...    1.0000e-14
Grids for H and He will be reduced by one unit

# of grid points (after initial pruning)     ...  13384 (   0.0 sec)
# of grid points (after weights+screening)   ...  13350 (   0.0 sec)
nearest neighbour list constructed           ...    0.0 sec
Grid point re-assignment to atoms done       ...    0.0 sec
Grid point division into batches done        ...    0.1 sec
Reduced shell lists constructed in    0.1 sec

Total number of grid points                  ...    13350
Total number of batches                      ...      210
Average number of points per batch           ...       63
Average number of grid points per atom       ...     6675
Average number of shells per batch           ...     7.21 (90.11%)
Average number of basis functions per batch  ...    10.64 (88.67%)
Average number of large shells per batch     ...     6.90 (95.73%)
Average number of large basis fcns per batch ...    10.23 (96.12%)
Maximum spatial batch extension              ...  16.81, 16.81, 13.12 au
Average spatial batch extension              ...   3.25,  3.25,  2.63 au

Final grid set up in    0.1 sec
Final integration                            ... done (   0.0 sec)
Change in XC energy                          ...    -0.000000026
Integrated number of electrons               ...     2.000000087
Previous integrated no of electrons          ...     1.999999889

SMD CDS free energy correction energy :                 1.94120     Kcal/mol
Total Energy after SMD CDS correction =                -1.166561493 Eh
Total Energy       :           -1.16656149 Eh             -31.74375 eV
  Last Energy change         ...   -3.1117e-11  Tolerance :   1.0000e-08
  Last MAX-Density change    ...    3.9111e-08  Tolerance :   1.0000e-07
             **** THE GBW FILE WAS UPDATED (dihydrogen@water.gbw) ****
             **** DENSITY FILE WAS UPDATED (dihydrogen@water.scfp) ****
             **** ENERGY FILE WAS UPDATED (dihydrogen@water.en.tmp) ****
             **** THE GBW FILE WAS UPDATED (dihydrogen@water.gbw) ****
             **** DENSITY FILE WAS UPDATED (dihydrogen@water.scfp) ****
Total SCF time: 0 days 0 hours 0 min 1 sec 


-------------------------------------------------------------------------------
                          DFT DISPERSION CORRECTION                            
                                                                               
                                 DFTD4 V2.0                                    
-------------------------------------------------------------------------------
-------------------------   ----------------
Dispersion correction           -0.000181096
-------------------------   ----------------


-------------------------   --------------------
FINAL SINGLE POINT ENERGY        -1.166742589655
-------------------------   --------------------

------------------------------------------------------------------------------
[...]
  0H   3s        -0.390609 -0.000000  0.000000 -1.628829  0.348022  0.313129
  0H   1pz       -0.561941 -0.000000 -0.000000  1.124180 -0.419823 -1.877011
  0H   1px       -0.000000  0.584017 -0.753290 -0.000000 -0.000000  0.000000
  0H   1py       -0.000000  0.753290  0.584017  0.000000 -0.000000 -0.000000
  1H   1s        -0.378988  0.000000 -0.000000  0.701006  1.067124  1.009894
  1H   2s         0.783869 -0.000000  0.000000 -3.150476 -0.971471  1.672020
  1H   3s        -0.390609 -0.000000 -0.000000  1.628829  0.348022 -0.313129
  1H   1pz        0.561941  0.000000 -0.000000  1.124180  0.419823 -1.877011
  1H   1px        0.000000 -0.584017  0.753290  0.000000  0.000000 -0.000000
  1H   1py        0.000000 -0.753290 -0.584017 -0.000000  0.000000  0.000000



                    ********************************
                    * MULLIKEN POPULATION ANALYSIS *
                    ********************************

-----------------------
MULLIKEN ATOMIC CHARGES
-----------------------
   0 H :   -0.000000
   1 H :    0.000000
Sum of atomic charges:   -0.0000000

--------------------------------
MULLIKEN REDUCED ORBITAL CHARGES
--------------------------------
  0 H s       :     0.990688  s :     0.990688
      pz      :     0.009312  p :     0.009312
      px      :     0.000000
      py      :     0.000000
  1 H s       :     0.990688  s :     0.990688
      pz      :     0.009312  p :     0.009312
      px      :     0.000000
      py      :     0.000000


                     *******************************
                     * LOEWDIN POPULATION ANALYSIS *
                     *******************************

----------------------
LOEWDIN ATOMIC CHARGES
----------------------
   0 H :   -0.000000
   1 H :    0.000000

-------------------------------
LOEWDIN REDUCED ORBITAL CHARGES
-------------------------------
  0 H s       :     0.979301  s :     0.979301
      pz      :     0.020699  p :     0.020699
      px      :     0.000000
      py      :     0.000000
  1 H s       :     0.979301  s :     0.979301
      pz      :     0.020699  p :     0.020699
      px      :     0.000000
      py      :     0.000000


                      *****************************
                      * MAYER POPULATION ANALYSIS *
                      *****************************

  NA   - Mulliken gross atomic population
  ZA   - Total nuclear charge
  QA   - Mulliken gross atomic charge
  VA   - Mayer's total valence
  BVA  - Mayer's bonded valence
  FA   - Mayer's free valence

  ATOM       NA         ZA         QA         VA         BVA        FA
  0 H      1.0000     1.0000    -0.0000     1.0000     1.0000    -0.0000
  1 H      1.0000     1.0000     0.0000     1.0000     1.0000    -0.0000

  Mayer bond orders larger than 0.100000
B(  0-H ,  1-H ) :   1.0000 

-------
TIMINGS
-------

Total SCF time: 0 days 0 hours 0 min 0 sec 

Total time                  ....       0.594 sec
Sum of individual times     ....       0.519 sec  ( 87.5%)

Fock matrix formation       ....       0.410 sec  ( 69.1%)
  Split-RI-J                ....       0.129 sec  ( 31.5% of F)
  XC integration            ....       0.034 sec  (  8.3% of F)
    Basis function eval.    ....       0.011 sec  ( 31.0% of XC)
    Density eval.           ....       0.006 sec  ( 18.3% of XC)
    XC-Functional eval.     ....       0.011 sec  ( 32.2% of XC)
    XC-Potential eval.      ....       0.003 sec  (  7.6% of XC)
Diagonalization             ....       0.000 sec  (  0.0%)
Density matrix formation    ....       0.000 sec  (  0.0%)
Population analysis         ....       0.000 sec  (  0.1%)
Initial guess               ....       0.000 sec  (  0.1%)
Orbital Transformation      ....       0.000 sec  (  0.0%)
Orbital Orthonormalization  ....       0.000 sec  (  0.0%)
DIIS solution               ....       0.000 sec  (  0.0%)
SOSCF solution              ....       0.000 sec  (  0.0%)
Grid generation             ....       0.108 sec  ( 18.2%)


-------------------------------------------------------------------------------
                          DFT DISPERSION CORRECTION                            
                                                                               
                                 DFTD4 V2.0                                    
-------------------------------------------------------------------------------
The BLYP functional is recognized
Active option DFTDOPT                   ...         5   

-------------------------   ----------------
Dispersion correction           -0.000180066
-------------------------   ----------------


-------------------------   --------------------
FINAL SINGLE POINT ENERGY        -1.166936494260
-------------------------   --------------------

                                *** OPTIMIZATION RUN DONE ***

                            ***************************************
                            *     ORCA property calculations      *
                            ***************************************

                                    ---------------------
                                    Active property flags
                                    ---------------------
   (+) Dipole Moment


------------------------------------------------------------------------------
                       ORCA ELECTRIC PROPERTIES CALCULATION
------------------------------------------------------------------------------

Dipole Moment Calculation                       ... on
Quadrupole Moment Calculation                   ... off
Polarizability Calculation                      ... off
GBWName                                         ... dihydrogen@water.gbw
Electron density file                           ... dihydrogen@water.scfp
The origin for moment calculation is the CENTER OF MASS  = ( 0.000000,  0.000000  0.944863)

-------------
DIPOLE MOMENT
-------------
                                X             Y             Z
Electronic contribution:      0.00000      -0.00000       0.00000
Nuclear contribution   :      0.00000       0.00000      -0.00000
                        -----------------------------------------
Total Dipole Moment    :      0.00000      -0.00000       0.00000
                        -----------------------------------------
Magnitude (a.u.)       :      0.00000
Magnitude (Debye)      :      0.00000



--------------------
Rotational spectrum 
--------------------
 
Rotational constants in cm-1:     0.000000    59.776230    59.776230 
Rotational constants in MHz :     0.000000 1792046.301852 1792046.301852 

 Dipole components along the rotational axes: 
x,y,z [a.u.] :     0.000000    -0.000000     0.000000 
x,y,z [Debye]:     0.000000    -0.000000     0.000000 

 

-------------------------------------------------------------------------------
                               ORCA SCF HESSIAN
-------------------------------------------------------------------------------

Hessian of the Kohn-Sham DFT energy:
Kohn-Sham wavefunction type                      ... RKS
Hartree-Fock exchange scaling                    ...    0.000
Number of operators                              ...    1
Number of atoms                                  ...    2
Basis set dimensions                             ...   12
Integral neglect threshold                       ... 2.5e-11
Integral primitive cutoff                        ... 2.5e-12

Setting up DFT Hessian calculations              ... 
Electron density on the grid                     ... found on disk
Electron density on the final grid               ... found on disk
Building xc-kernel on the grid                   ... done   (      0.0 sec)
Building xc-kernel on the final grid             ... done   (      0.0 sec)
                                                     done   (      0.0 sec)

Nuclear repulsion Hessian                        ... done   (      0.0 sec)

----------------------------------------------
Forming right-hand sides of CP-SCF equations     ...
----------------------------------------------
One electron integral derivatives                ... done   (      0.2 sec)
Transforming the overlap derivative matrices     ... done   (      0.0 sec)
Adding tr(S(x)F(y) C-PCM term to the hessian     ... done   (      0.1 sec)
Making the Q(x) pseudodensities                  ... done   (      0.0 sec)
Adding the E*S(x)*S(y) terms to the Hessian      ... done   (      0.0 sec)
Calculating energy weighted overlap derivatives  ... done   (      0.0 sec)
Two electron integral derivatives (RI)           ... done   (      0.1 sec)
Exchange-correlation integral derivatives        ... done   (      0.1 sec)
tr(F(y)Q(x)) contribution to the Hessian         ... done   (      0.0 sec)
Response fock operator R(S(x)) (RI)              ... done   (      0.1 sec)
XC Response fock operator R(S(x))                ... done   (      0.0 sec)
tr(F(y)S(x)) contribution to the Hessian         ... done   (      0.0 sec)
Transforming and finalizing RHSs                 ... done   (      0.0 sec)

----------------------------------------------
Solving the CP-SCF equations (RI)                ...
----------------------------------------------
     CP-SCF ITERATION   0: 
     CP-SCF ITERATION   1:      0.000000049242
     CP-SCF ITERATION   2:      0.000000000001

                                                 ... done   (      0.6 sec)
Forming perturbed density Hessian contributions  ... done   (      0.0 sec)
Making the perturbed densities                   ... done   (      0.0 sec)
Calculating [Q*(d^2 A/dXdY)*Q  ] C-PCM term      ... done   (      0.0 sec)
Calculating [d^2(V_N)/(dXdY)*Q ] C-PCM term      ... done   (      0.0 sec)
Calculating [d^2(V_el)/(dXdY)*Q] C-PCM term      ... done   (      0.0 sec)
Calculating C-PCM term that depends on dQ/dX     ... done   (      0.0 sec)
2nd integral derivative contribs (RI)            ... done   (      0.1 sec)
Exchange-correlation Hessian                     ... done   (      0.2 sec)
Dispersion correction in the Hessian             ... 

------------------- 
Dispersion Gradient 
------------------- 
   1  :    0.000000000    0.000000000   -0.000000108
   2  :   -0.000000000    0.000000000    0.000000108

  |G| =    0.000000216



------------------- 
Dispersion Gradient 
------------------- 
   1  :   -0.000000000    0.000000000   -0.000000108
   2  :    0.000000000    0.000000000    0.000000108

  |G| =    0.000000216



------------------- 
Dispersion Gradient 
------------------- 
   1  :    0.000000000    0.000000000   -0.000000108
   2  :    0.000000000   -0.000000000    0.000000108

  |G| =    0.000000216



------------------- 
Dispersion Gradient 
------------------- 
   1  :    0.000000000   -0.000000000   -0.000000108
   2  :    0.000000000    0.000000000    0.000000108

  |G| =    0.000000216



------------------- 
Dispersion Gradient 
------------------- 
   1  :    0.000000000    0.000000000   -0.000000106
   2  :    0.000000000    0.000000000    0.000000106

  |G| =    0.000000211



------------------- 
Dispersion Gradient 
------------------- 
   1  :    0.000000000    0.000000000   -0.000000110
   2  :    0.000000000    0.000000000    0.000000110

  |G| =    0.000000219



------------------- 
Dispersion Gradient 
------------------- 
   1  :   -0.000000000    0.000000000   -0.000000108
   2  :    0.000000000    0.000000000    0.000000108

  |G| =    0.000000216



------------------- 
Dispersion Gradient 
------------------- 
   1  :    0.000000000    0.000000000   -0.000000108
   2  :   -0.000000000    0.000000000    0.000000108

  |G| =    0.000000216



------------------- 
Dispersion Gradient 
------------------- 
   1  :    0.000000000   -0.000000000   -0.000000108
   2  :    0.000000000    0.000000000    0.000000108

  |G| =    0.000000216



------------------- 
Dispersion Gradient 
------------------- 
   1  :    0.000000000    0.000000000   -0.000000108
   2  :    0.000000000   -0.000000000    0.000000108

  |G| =    0.000000216



------------------- 
Dispersion Gradient 
------------------- 
   1  :    0.000000000    0.000000000   -0.000000110
   2  :    0.000000000    0.000000000    0.000000110

  |G| =    0.000000219



------------------- 
Dispersion Gradient 
------------------- 
   1  :    0.000000000    0.000000000   -0.000000106
   2  :    0.000000000    0.000000000    0.000000106

  |G| =    0.000000211

done   (      0.3 sec)
Dipol derivatives                                ... done   (      0.1 sec)

Total SCF Hessian time: 0 days 0 hours 0 min 2 sec 

Writing the Hessian file to the disk             ... done


Maximum memory used throughout the entire calculation: 110.0 MB
Warning: T+R mode no 5 is zero 

-----------------------
VIBRATIONAL FREQUENCIES
-----------------------

Scaling factor for frequencies =  1.000000000  (already applied!)

   0:         0.00 cm**-1
   1:         0.00 cm**-1
   2:         0.00 cm**-1
   3:         0.00 cm**-1
   4:         0.00 cm**-1
   5:      4341.93 cm**-1


------------
NORMAL MODES
------------

These modes are the Cartesian displacements weighted by the diagonal matrix
M(i,i)=1/sqrt(m[i]) where m[i] is the mass of the displaced atom
Thus, these vectors are normalized but *not* orthogonal

                  0          1          2          3          4          5    
      0       0.000000   0.000000   0.000000   0.000000   0.000000   0.000000
      1       0.000000   0.000000   0.000000   0.000000   0.000000   0.000000
      2       0.000000   0.000000   0.000000   0.000000   0.000000   0.707107
      3       0.000000   0.000000   0.000000   0.000000   0.000000   0.000000
      4       0.000000   0.000000   0.000000   0.000000   0.000000   0.000000
      5       0.000000   0.000000   0.000000   0.000000   0.000000  -0.707107


-----------
IR SPECTRUM
-----------

 Mode    freq (cm**-1)   T**2         TX         TY         TZ
-------------------------------------------------------------------
   5:      4341.93    0.000000  ( -0.000000   0.000000   0.000000)

The first frequency considered to be a vibration is 5
The total number of vibrations considered is 1


--------------------------
THERMOCHEMISTRY AT 298.15K
--------------------------

Temperature         ... 298.15 K
Pressure            ... 1.00 atm
Total Mass          ... 2.02 AMU
The molecule is recognized as being linear

Throughout the following assumptions are being made:
  (1) The electronic state is orbitally nondegenerate
  (2) There are no thermally accessible electronically excited states
  (3) Hindered rotations indicated by low frequency modes are not
      treated as such but are treated as vibrations and this may
      cause some error
  (4) All equations used are the standard statistical mechanics
      equations for an ideal gas
  (5) All vibrations are strictly harmonic

freq.    4341.93  E(vib)   ...       0.00 

------------
INNER ENERGY
------------

The inner energy is: U= E(el) + E(ZPE) + E(vib) + E(rot) + E(trans)
    E(el)   - is the total energy from the electronic structure calculation
              = E(kin-el) + E(nuc-el) + E(el-el) + E(nuc-nuc)
    E(ZPE)  - the the zero temperature vibrational energy from the frequency calculation
    E(vib)  - the the finite temperature correction to E(ZPE) due to population
              of excited vibrational states
    E(rot)  - is the rotational thermal energy
    E(trans)- is the translational thermal energy

Summary of contributions to the inner energy U:
Electronic energy                ...     -1.16693649 Eh
Zero point energy                ...      0.00989165 Eh       6.21 kcal/mol
Thermal vibrational correction   ...      0.00000000 Eh       0.00 kcal/mol
Thermal rotational correction    ...      0.00094418 Eh       0.59 kcal/mol
Thermal translational correction ...      0.00141627 Eh       0.89 kcal/mol
-----------------------------------------------------------------------
Total thermal energy                     -1.15468439 Eh


Summary of corrections to the electronic energy:
(perhaps to be used in another calculation)
Total thermal correction                  0.00236045 Eh       1.48 kcal/mol
Non-thermal (ZPE) correction              0.00989165 Eh       6.21 kcal/mol
-----------------------------------------------------------------------
Total correction                          0.01225210 Eh       7.69 kcal/mol


--------
ENTHALPY
--------

The enthalpy is H = U + kB*T
                kB is Boltzmann's constant
Total free energy                 ...     -1.15468439 Eh 
Thermal Enthalpy correction       ...      0.00094421 Eh       0.59 kcal/mol
-----------------------------------------------------------------------
Total Enthalpy                    ...     -1.15374018 Eh


Note: Rotational entropy computed according to Herzberg 
Infrared and Raman Spectra, Chapter V,1, Van Nostrand Reinhold, 1945 
Point Group:  Dinfh, Symmetry Number:   2  
Rotational constants in cm-1:     0.000000    59.776230    59.776230 

Vibrational entropy computed according to the QRRHO of S. Grimme
Chem.Eur.J. 2012 18 9955


-------
ENTROPY
-------

The entropy contributions are T*S = T*(S(el)+S(vib)+S(rot)+S(trans))
     S(el)   - electronic entropy
     S(vib)  - vibrational entropy
     S(rot)  - rotational entropy
     S(trans)- translational entropy
The entropies will be listed as mutliplied by the temperature to get
units of energy

Electronic entropy                ...      0.00000000 Eh      0.00 kcal/mol
Vibrational entropy               ...     -0.00000000 Eh     -0.00 kcal/mol
Rotational entropy                ...      0.00146353 Eh      0.92 kcal/mol
Translational entropy             ...      0.01334204 Eh      8.37 kcal/mol
-----------------------------------------------------------------------
Final entropy term                ...      0.01480557 Eh      9.29 kcal/mol

In case the symmetry of your molecule has not been determined correctly
or in case you have a reason to use a different symmetry number we print 
out the resulting rotational entropy values for sn=1,12 :
 --------------------------------------------------------
|  sn= 1 | S(rot)=             -inf Eh      -inf kcal/mol|
|  sn= 2 | S(rot)=             -inf Eh      -inf kcal/mol|
|  sn= 3 | S(rot)=             -inf Eh      -inf kcal/mol|
|  sn= 4 | S(rot)=             -inf Eh      -inf kcal/mol|
|  sn= 5 | S(rot)=             -inf Eh      -inf kcal/mol|
|  sn= 6 | S(rot)=             -inf Eh      -inf kcal/mol|
|  sn= 7 | S(rot)=             -inf Eh      -inf kcal/mol|
|  sn= 8 | S(rot)=             -inf Eh      -inf kcal/mol|
|  sn= 9 | S(rot)=             -inf Eh      -inf kcal/mol|
|  sn=10 | S(rot)=             -inf Eh      -inf kcal/mol|
|  sn=11 | S(rot)=             -inf Eh      -inf kcal/mol|
|  sn=12 | S(rot)=             -inf Eh      -inf kcal/mol|
 --------------------------------------------------------


-------------------
GIBBS FREE ENERGY
-------------------

The Gibbs free energy is G = H - T*S

Total enthalpy                    ...     -1.15374018 Eh 
Total entropy correction          ...     -0.01480557 Eh     -9.29 kcal/mol
-----------------------------------------------------------------------
Final Gibbs free energy         ...     -1.16854575 Eh

For completeness - the Gibbs free energy minus the electronic energy
G-E(el)                           ...     -0.00160926 Eh     -1.01 kcal/mol


Timings for individual modules:

Sum of individual times         ...       15.017 sec (=   0.250 min)
GTO integral calculation        ...        0.644 sec (=   0.011 min)   4.3 %
SCF iterations                  ...       10.073 sec (=   0.168 min)  67.1 %
SCF Gradient evaluation         ...        1.872 sec (=   0.031 min)  12.5 %
Geometry relaxation             ...        0.128 sec (=   0.002 min)   0.9 %
Analytical frequency calculation...        2.300 sec (=   0.038 min)  15.3 %
                             ****ORCA TERMINATED NORMALLY****
TOTAL RUN TIME: 0 days 0 hours 0 minutes 15 seconds 534 msec
