SLURM_JOB_ID=101

                                 *****************
                                 * O   R   C   A *
                                 *****************

           --- An Ab Initio, DFT and Semiempirical electronic structure package ---

                  #######################################################
                  #                        -***-                        #
                  #          Department of theory and spectroscopy      #
                  #               Directorship: Frank Neese             #
                  #        Max Planck Institute fuer Kohlenforschung    #
                  #                Kaiser Wilhelm Platz 1               #
                  #                 D-45470 Muelheim/Ruhr               #
                  #                      Germany                        #
                  #                                                     #
                  #                  All rights reserved                #
                  #                        -***-                        #
                  #######################################################


                         Program Version 4.2.1 -  RELEASE  -


 With contributions from (in alphabetic order):
   Daniel Aravena         : Magnetic Suceptibility
   Michael Atanasov       : Ab Initio Ligand Field Theory (pilot matlab implementation)
   Alexander A. Auer      : GIAO ZORA, VPT2
   Ute Becker             : Parallelization
   Giovanni Bistoni       : ED, misc. LED, open-shell LED, HFLD
   Martin Brehm           : Molecular dynamics
   Dmytro Bykov           : SCF Hessian
   Vijay G. Chilkuri      : MRCI spin determinant printing, contributions to CSF-ICE
   Dipayan Datta          : RHF DLPNO-CCSD density
   Achintya Kumar Dutta   : EOM-CC, STEOM-CC
   Dmitry Ganyushin       : Spin-Orbit,Spin-Spin,Magnetic field MRCI
   Miquel Garcia          : C-PCM Hessian, Gaussian charge scheme
   Yang Guo               : DLPNO-NEVPT2, CIM, IAO-localization
   Andreas Hansen         : Spin unrestricted coupled pair/coupled cluster methods
   Benjamin Helmich-Paris : CASSCF linear response (MC-RPA)
   Lee Huntington         : MR-EOM, pCC
   Robert Izsak           : Overlap fitted RIJCOSX, COSX-SCS-MP3, EOM
   Christian Kollmar      : KDIIS, OOCD, Brueckner-CCSD(T), CCSD density
   Simone Kossmann        : Meta GGA functionals, TD-DFT gradient, OOMP2, MP2 Hessian
   Martin Krupicka        : AUTO-CI
   Lucas Lang             : DCDCAS
   Dagmar Lenk            : GEPOL surface, SMD
   Dimitrios Liakos       : Extrapolation schemes; Compound Job, initial MDCI parallelization
   Dimitrios Manganas     : Further ROCIS development; embedding schemes
   Dimitrios Pantazis     : SARC Basis sets
   Taras Petrenko         : DFT Hessian,TD-DFT gradient, ASA, ECA, R-Raman, ABS, FL, XAS/XES, NRVS
   Peter Pinski           : DLPNO-MP2, DLPNO-MP2 Gradient
   Christoph Reimann      : Effective Core Potentials
   Marius Retegan         : Local ZFS, SOC
   Christoph Riplinger    : Optimizer, TS searches, QM/MM, DLPNO-CCSD(T), (RO)-DLPNO pert. Triples
   Tobias Risthaus        : Range-separated hybrids, TD-DFT gradient, RPA, STAB
   Michael Roemelt        : Original ROCIS implementation
   Masaaki Saitow         : Open-shell DLPNO-CCSD energy and density
   Barbara Sandhoefer     : DKH picture change effects
   Avijit Sen             : IP-ROCIS
   Kantharuban Sivalingam : CASSCF convergence, NEVPT2, FIC-MRCI
   Bernardo de Souza      : ESD, SOC TD-DFT
   Georgi Stoychev        : AutoAux, RI-MP2 NMR
   Willem Van den Heuvel  : Paramagnetic NMR
   Boris Wezisla          : Elementary symmetry handling
   Frank Wennmohs         : Technical directorship


 We gratefully acknowledge several colleagues who have allowed us to
 interface, adapt or use parts of their codes:
   Stefan Grimme, W. Hujo, H. Kruse,             : VdW corrections, initial TS optimization,
                  C. Bannwarth                     DFT functionals, gCP, sTDA/sTD-DF
   Ed Valeev, F. Pavosevic, A. Kumar             : LibInt (2-el integral package), F12 methods
   Garnet Chan, S. Sharma, J. Yang, R. Olivares  : DMRG
   Ulf Ekstrom                                   : XCFun DFT Library
   Mihaly Kallay                                 : mrcc  (arbitrary order and MRCC methods)
   Andreas Klamt, Michael Diedenhofen            : otool_cosmo (COSMO solvation model)
   Jiri Pittner, Ondrej Demel                    : Mk-CCSD
   Frank Weinhold                                : gennbo (NPA and NBO analysis)
   Christopher J. Cramer and Donald G. Truhlar   : smd solvation model
   Lars Goerigk                                  : TD-DFT with DH, B97 family of functionals
   V. Asgeirsson, H. Jonsson                     : NEB implementation
   FAccTs GmbH                                   : IRC, NEB, NEB-TS, Multilevel, MM, QM/MM, CI optimization
   S Lehtola, MJT Oliveira, MAL Marques          : LibXC Library


 Your calculation uses the libint2 library for the computation of 2-el integrals
 For citations please refer to: http://libint.valeyev.net

 Your ORCA version has been built with support for libXC version: 4.2.3
 For citations please refer to: https://tddft.org/programs/libxc/

 This ORCA versions uses:
   CBLAS   interface :  Fast vector & matrix operations
   LAPACKE interface :  Fast linear algebra routines
   SCALAPACK package :  Parallel linear algebra routines




***************************************
The coordinates will be read from file: init.xyz
***************************************


Your calculation utilizes the SMD solvation module
Please cite in your paper:
A.V. Marenich, C.J. Cramer, D.G. Truhlar J. Phys. Chem. B, 113, (2009), 6378 

Your calculation utilizes the semiempirical GFN2-xTB method
Please cite in your paper:
C. Bannwarth, Ehlert S., S. Grimme,  J. Chem. Theory Comput., 15, (2019), 1652.
   

----- Orbital basis set information -----
Your calculation utilizes the basis: def2-SVP
   F. Weigend and R. Ahlrichs, Phys. Chem. Chem. Phys. 7, 3297 (2005).

================================================================================
                                        WARNINGS
                       Please study these warnings very carefully!
================================================================================

WARNING: Gradients needed for Numerical Frequencies
  ===> : Setting RunTyp to EnGrad

WARNING: The environment variable RSH_COMMAND is not set!
  ===> : All Displacements for the Numerical Hessian calculation
         will be started on localhost

WARNING: Found dipole moment calculation with XTB calculation
  ===> : Switching off dipole moment calculation


INFO   : the flag for use of LIBINT has been found!

================================================================================
                                       INPUT FILE
================================================================================
NAME = /tmp/slurm-scratch/freq.101/freq.inp
|  1> ! XTB2 NumFreq
|  2> %maxcore 2000
|  3> 
|  4> * xyzfile 0 1 init.xyz
|  5> 
|  6> %cpcm
|  7>  smd true
|  8>  smdsolvent "ch2cl2"
|  9> end
| 10> %pal nprocs 11 end
| 11> 
| 12>                          ****END OF INPUT****
================================================================================

                     *******************************
                     * Energy+Gradient Calculation *
                     *******************************

      -----------------------------------------------------------      
     |                   =====================                   |     
     |                           x T B                           |     
     |                   =====================                   |     
     |                         S. Grimme                         |     
     |          Mulliken Center for Theoretical Chemistry        |     
     |                    University of Bonn                     |     
      -----------------------------------------------------------      

   * xtb version 6.3.1 (461a024) compiled by 'schneider@apollo14' on 2020-06-26

   xtb is free software: you can redistribute it and/or modify it under
   the terms of the GNU Lesser General Public License as published by
   the Free Software Foundation, either version 3 of the License, or
   (at your option) any later version.
   
   xtb is distributed in the hope that it will be useful,
   but WITHOUT ANY WARRANTY; without even the implied warranty of
   MERCHANTABILITY or FITNESS FOR A PARTICULAR PURPOSE.  See the
   GNU Lesser General Public License for more details.
   
   Cite this work as:
   * S. Grimme, C. Bannwarth, P. Shushkov, J. Chem. Theory Comput., 2017,
     13, 1989-2009. DOI: 10.1021/acs.jctc.7b00118
   * C. Bannwarth, S. Ehlert and S. Grimme., J. Chem. Theory Comput., 2019,
     15, 1652-1671. DOI: 10.1021/acs.jctc.8b01176
   * P. Pracht, E. Caldeweyher, S. Ehlert, S. Grimme, ChemRxiv, 2019, preprint.
     DOI: 10.26434/chemrxiv.8326202.v1
   
   for GFN-FF:
   * S. Spicher and S. Grimme, Angew. Chem. Int. Ed., 2020,
     DOI: 10.1002/anie.202004239
   
   for DFT-D4:
   * E. Caldeweyher, C. Bannwarth and S. Grimme, J. Chem. Phys., 2017,
     147, 034112. DOI: 10.1063/1.4993215
   * E. Caldeweyher, S. Ehlert, A. Hansen, H. Neugebauer, S. Spicher,
     C. Bannwarth and S. Grimme, J. Chem. Phys., 2019, 150, 154122.
     DOI: 10.1063/1.5090222
   
   for sTDA-xTB:
   * S. Grimme and C. Bannwarth, J. Chem. Phys., 2016, 145, 054103.
     DOI: 10.1063/1.4959605
   
   in the mass-spec context:
   * V. Asgeirsson, C. Bauer and S. Grimme, Chem. Sci., 2017, 8, 4879.
     DOI: 10.1039/c7sc00601b
   * J. Koopman and S. Grimme, ACS Omega 2019, 4, 12, 15120-15133.
     DOI: 10.1021/acsomega.9b02011
   
   for metadynamics refer to:
   * S. Grimme, J. Chem. Theory Comput., 2019, 155, 2847-2862
     DOI: 10.1021/acs.jctc.9b00143
   
   with help from (in alphabetical order)
   C. Bannwarth, F. Bohle, G. Brandenburg, E. Caldeweyher, M. Checinski,
   S. Dohm, S. Ehlert, S. Ehrlich, F. März, H. Neugebauer, J. Pisarek,
   P. Pracht, P. Shushkov, and S. Spicher.
   
 * started run on 2020/08/05 at 12:23:22.086     

           -------------------------------------------------
          |                Calculation Setup                |
           -------------------------------------------------

          program call               : /opt/orca/otool_xtb /tmp/slurm-scratch/freq.101/freq_XTB.xyz --grad -c 0 -u 0 -P 11 --namespace /tmp/slurm-scratch/freq.101/freq --gbsa CH2Cl2
          hostname                   : apollo14
          calculation namespace      : /tmp/slurm-scratch/freq.101/freq
          coordinate file            : /tmp/slurm-scratch/freq.101/freq_XTB.xyz
          omp threads                :                    11
          number of atoms            :                    36
          number of electrons        :                    88
          charge                     :                     0
          spin                       :                   0.0
          first test random number   :      0.58983401483088

   ID    Z sym.   atoms
    1    6 C      1-7, 12, 14, 30, 33
    2    1 H      8-10, 13, 15-18, 21, 22, 24-29, 31, 32, 34-36
    3    7 N      11
    4    8 O      19, 20, 23

molecular fragmentation (1/2 indicates fragments):
111111111111111111121222211111111111
# atoms in fragment 1/2:    31     5
 fragment masses (1/2) :      180.27       35.02
CMA distance (Bohr)    :   6.393
constraining FC (au)   :  0.0500
########################################################################
[WARNING] Please study the warnings concerning your input carefully
-1- prog_main_parseArguments: Process number higher than OMP_NUM_THREADS, I hope you know what you are doing.
########################################################################

           -------------------------------------------------
          |                 G F N 2 - x T B                 |
           -------------------------------------------------

        Reference                      10.1021/acs.jctc.8b01176
      * Hamiltonian:
        H0-scaling (s, p, d)           1.850000    2.230000    2.230000
        zeta-weighting                 0.500000
      * Dispersion:
        s8                             2.700000
        a1                             0.520000
        a2                             5.000000
        s9                             5.000000
      * Repulsion:
        kExp                           1.500000    1.000000
        rExp                           1.000000
      * Coulomb:
        alpha                          2.000000
        third order                    shell-resolved
        anisotropic                    true
        a3                             3.000000
        a5                             4.000000
        cn-shift                       1.200000
        cn-exp                         4.000000
        max-rad                        5.000000

      * Solvation model:               GBSA
        Solvent                        CH2Cl2
        Parameter file                 internal GFN2-xTB/GBSA
        Dielectric constant                8.9300E+00
        Reference state                gsolv [1 M gas/solution]
        Free energy shift                  4.4408E-03 Eh       2.7867E+00 kcal/mol
        Temperature                        2.9815E+02 K
        Density                            1.3300E+00 kg/L
        Solvent mass                       8.4930E+01 g/mol
        Interaction kernel             Still
        Born radius scaling (c1)           1.4917E+00
        Born radii integrator          GBOBC
        Born offset                        0.0000E+00 a0       0.0000E+00 AA
        H-bond correction              false
        Ion screening                  false
        Surface tension                    1.0000E-05 Eh       1.5569E+01 dyn/cm
        Grid points                               230 per atom

          ...................................................
          :                      SETUP                      :
          :.................................................:
          :  # basis functions                  81          :
          :  # atomic orbitals                  81          :
          :  # shells                           51          :
          :  # electrons                        88          :
          :  max. iterations                   250          :
          :  Hamiltonian                  GFN2-xTB          :
          :  restarted?                      false          :
          :  GBSA solvation                   true          :
          :  PC potential                    false          :
          :  electronic temp.          300.0000000     K    :
          :  accuracy                    1.0000000          :
          :  -> integral cutoff          0.2500000E+02      :
          :  -> integral neglect         0.1000000E-07      :
          :  -> SCF convergence          0.1000000E-05 Eh   :
          :  -> wf. convergence          0.1000000E-03 e    :
          :  Broyden damping             0.4000000          :
          ...................................................

 iter      E             dE          RMSdq      gap      omega  full diag
   1    -49.8595946 -0.498596E+02  0.401E+00    4.66       0.0  T
   2    -49.9598420 -0.100247E+00  0.230E+00    4.52       1.0  T
   3    -49.9621139 -0.227195E-02  0.918E-01    3.84       1.0  T
   4    -49.9619420  0.171980E-03  0.301E-01    3.82       1.0  T
   5    -49.9646049 -0.266292E-02  0.789E-02    3.88       1.0  T
   6    -49.9646356 -0.307618E-04  0.284E-02    3.94       1.0  T
   7    -49.9646379 -0.227992E-05  0.144E-02    3.94       1.2  T
   8    -49.9646400 -0.207707E-05  0.462E-03    3.94       3.6  T
   9    -49.9646401 -0.133324E-06  0.202E-03    3.94       8.3  T
  10    -49.9646402 -0.406237E-07  0.809E-04    3.94      20.6  T
  11    -49.9646402 -0.356551E-08  0.377E-04    3.94      44.2  T

   *** convergence criteria satisfied after 11 iterations ***

         #    Occupation            Energy/Eh            Energy/eV
      -------------------------------------------------------------
         1        2.0000           -0.7052333             -19.1904
       ...           ...                  ...                  ...
        38        2.0000           -0.4289189             -11.6715
        39        2.0000           -0.4204126             -11.4400
        40        2.0000           -0.4178764             -11.3710
        41        2.0000           -0.4131395             -11.2421
        42        2.0000           -0.4114708             -11.1967
        43        2.0000           -0.3909823             -10.6392
        44        2.0000           -0.3857594             -10.4970 (HOMO)
        45                         -0.2411400              -6.5618 (LUMO)
        46                         -0.2339379              -6.3658
        47                         -0.1170654              -3.1855
        48                         -0.0640478              -1.7428
        49                          0.0028702               0.0781
       ...                                ...                  ...
        81                          0.6382409              17.3674
      -------------------------------------------------------------
                  HL-Gap            0.1446194 Eh            3.9353 eV
             Fermi-level           -0.3134497 Eh           -8.5294 eV

 SCC (total)                   0 d,  0 h,  0 min,  0.138 sec
 SCC setup                      ...        0 min,  0.009 sec (  6.470%)
 Dispersion                     ...        0 min,  0.009 sec (  6.288%)
 classical contributions        ...        0 min,  0.009 sec (  6.638%)
 integral evaluation            ...        0 min,  0.017 sec ( 12.238%)
 iterations                     ...        0 min,  0.034 sec ( 24.421%)
 molecular gradient             ...        0 min,  0.059 sec ( 42.445%)
 printout                       ...        0 min,  0.002 sec (  1.482%)

         :::::::::::::::::::::::::::::::::::::::::::::::::::::
         ::                     SUMMARY                     ::
         :::::::::::::::::::::::::::::::::::::::::::::::::::::
         :: total energy             -49.359103889188 Eh    ::
         :: total w/o Gsasa/hb       -49.341538345167 Eh    ::
         :: gradient norm              0.032637943330 Eh/a0 ::
         :: HOMO-LUMO gap              3.935294051942 eV    ::
         ::.................................................::
         :: SCC energy               -49.964640171001 Eh    ::
         :: -> isotropic ES            0.167823312472 Eh    ::
         :: -> anisotropic ES         -0.014947136226 Eh    ::
         :: -> anisotropic XC          0.018861707596 Eh    ::
         :: -> dispersion             -0.029270838525 Eh    ::
         :: -> Gsolv                  -0.039550293203 Eh    ::
         ::    -> Gborn               -0.021984749182 Eh    ::
         ::    -> Gsasa               -0.022006373194 Eh    ::
         ::    -> Ghb                  0.000000000000 Eh    ::
         ::    -> Gshift               0.004440829173 Eh    ::
         :: repulsion energy           0.605361141686 Eh    ::
         :: add. restraining           0.000000000000 Eh    ::
         :::::::::::::::::::::::::::::::::::::::::::::::::::::

           -------------------------------------------------
          |                Property Printout                |
           -------------------------------------------------

    * Orbital Energies and Occupations

         #    Occupation            Energy/Eh            Energy/eV
      -------------------------------------------------------------
         1        2.0000           -0.7052333             -19.1904
       ...           ...                  ...                  ...
        32        2.0000           -0.4670295             -12.7085
        33        2.0000           -0.4558809             -12.4052
        34        2.0000           -0.4544545             -12.3663
        35        2.0000           -0.4479527             -12.1894
        36        2.0000           -0.4431307             -12.0582
        37        2.0000           -0.4301349             -11.7046
        38        2.0000           -0.4289189             -11.6715
        39        2.0000           -0.4204126             -11.4400
        40        2.0000           -0.4178764             -11.3710
        41        2.0000           -0.4131395             -11.2421
        42        2.0000           -0.4114708             -11.1967
        43        2.0000           -0.3909823             -10.6392
        44        2.0000           -0.3857594             -10.4970 (HOMO)
        45                         -0.2411400              -6.5618 (LUMO)
        46                         -0.2339379              -6.3658
        47                         -0.1170654              -3.1855
        48                         -0.0640478              -1.7428
        49                          0.0028702               0.0781
        50                          0.0147830               0.4023
        51                          0.0520738               1.4170
        52                          0.0667803               1.8172
        53                          0.0870909               2.3699
        54                          0.0922942               2.5115
        55                          0.1087702               2.9598
       ...                                ...                  ...
        81                          0.6382409              17.3674
      -------------------------------------------------------------
                  HL-Gap            0.1446194 Eh            3.9353 eV
             Fermi-level           -0.3134497 Eh           -8.5294 eV

     #   Z        covCN         q      C6AA      α(0)
     1   6 C      2.966    -0.025    28.615     8.774
     2   6 C      2.920    -0.042    29.051     8.839
     3   6 C      2.914    -0.028    28.703     8.785
     4   6 C      2.915    -0.027    28.685     8.783
     5   6 C      2.916    -0.028    28.702     8.785
     6   6 C      2.916    -0.034    28.857     8.809
     7   6 C      3.659     0.169    18.145     6.113
     8   1 H      0.925     0.045     2.384     2.415
     9   1 H      0.926     0.062     2.170     2.304
    10   1 H      0.925     0.045     2.385     2.415
    11   7 N      3.515    -0.122    23.635     7.220
    12   6 C      3.734    -0.018    20.983     6.538
    13   1 H      0.864     0.280     0.775     1.379
    14   6 C      3.801    -0.071    21.850     6.655
    15   1 H      0.925     0.089     1.888     2.149
    16   1 H      0.925     0.080     1.978     2.199
    17   1 H      0.924     0.053     2.278     2.361
    18   1 H      0.924     0.056     2.248     2.345
    19   8 O      1.642    -0.493    22.745     6.438
    20   8 O      1.261    -0.799    31.119     7.497
    21   1 H      0.805     0.344     0.602     1.218
    22   1 H      0.805     0.220     1.020     1.586
    23   8 O      1.455    -0.730    28.728     7.224
    24   1 H      1.074     0.325     0.636     1.245
    25   1 H      0.805     0.247     0.903     1.493
    26   1 H      0.925     0.063     2.159     2.298
    27   1 H      0.860     0.210     1.057     1.610
    28   1 H      0.925     0.048     2.339     2.392
    29   1 H      0.925     0.040     2.448     2.447
    30   6 C      3.800    -0.056    21.581     6.614
    31   1 H      0.924     0.040     2.444     2.445
    32   1 H      0.924     0.041     2.434     2.440
    33   6 C      3.750    -0.106    22.589     6.778
    34   1 H      0.924     0.040     2.446     2.446
    35   1 H      0.924     0.040     2.455     2.450
    36   1 H      0.924     0.039     2.460     2.453

 Mol. C6AA /au·bohr⁶  :      10727.415573
 Mol. C8AA /au·bohr⁸  :     236640.764581
 Mol. α(0) /au        :        157.940218


Wiberg/Mayer (AO) data.
largest (>0.10) Wiberg bond orders for each atom
          total WBO             WBO to atom ...
     1  C   3.984        C    6 1.416    C    2 1.413    C    7 0.972    C    4 0.109
     2  C   3.990        C    3 1.444    C    1 1.413    H    8 0.967    C    5 0.112
     3  C   3.991        C    2 1.444    C    4 1.438    H   28 0.970    C    6 0.112
     4  C   3.990        C    5 1.440    C    3 1.438    H   10 0.970    C    1 0.109
     5  C   3.991        C    6 1.442    C    4 1.440    H   29 0.971    C    2 0.112
     6  C   3.989        C    5 1.442    C    1 1.416    H    9 0.959    C    3 0.112
     7  C   3.932        O   19 1.081    C    1 0.972    H   26 0.949    N   11 0.870
     8  H   0.998        C    2 0.967
     9  H   0.996        C    6 0.959
    10  H   0.997        C    4 0.970
    11  N   3.658        C   12 0.951    H   27 0.930    C    7 0.870    H   13 0.720
    12  C   3.932        C   14 1.010    H   16 0.968    H   15 0.967    N   11 0.951
    13  H   0.921        N   11 0.720    O   23 0.181
    14  C   3.991        C   12 1.010    C   30 1.003    H   17 0.973    H   18 0.971
    15  H   0.992        C   12 0.967
    16  H   0.993        C   12 0.968
    17  H   0.997        C   14 0.973
    18  H   0.997        C   14 0.971
    19  O   1.966        C    7 1.081    H   21 0.704
    20  O   1.687        H   22 0.944    H   24 0.397    H   21 0.158    O   23 0.111
    21  H   0.881        O   19 0.704    O   20 0.158
    22  H   0.951        O   20 0.944
    23  O   1.812        H   25 0.934    H   24 0.496    H   13 0.181    O   20 0.111
    24  H   0.894        O   23 0.496    O   20 0.397
    25  H   0.939        O   23 0.934
    26  H   0.996        C    7 0.949
    27  H   0.956        N   11 0.930
    28  H   0.997        C    3 0.970
    29  H   0.998        C    5 0.971
    30  C   3.994        C   33 1.020    C   14 1.003    H   31 0.977    H   32 0.977
    31  H   0.998        C   30 0.977
    32  H   0.998        C   30 0.977
    33  C   3.995        C   30 1.020    H   36 0.987    H   34 0.987    H   35 0.987
    34  H   0.998        C   33 0.987
    35  H   0.998        C   33 0.987
    36  H   0.998        C   33 0.987
Topologies differ in total number of bonds
Writing topology from bond orders to xtbtopo.mol

molecular dipole:
                 x           y           z       tot (Debye)
 q only:       -0.241       3.516       0.454
   full:       -0.344       3.254       0.762       8.538
molecular quadrupole (traceless):
                xx          xy          yy          xz          yz          zz
 q only:       10.683      18.386      -2.125      -1.616       0.500      -8.558
  q+dip:        9.334      14.965       1.758      -2.128      -0.542     -11.091
   full:        8.762      15.290       0.369      -1.584       0.225      -9.131


           -------------------------------------------------
          | TOTAL ENERGY              -49.359103889188 Eh   |
          | GRADIENT NORM               0.032637943330 Eh/α |
          | HOMO-LUMO GAP               3.935294051942 eV   |
           -------------------------------------------------

------------------------------------------------------------------------
 * finished run on 2020/08/05 at 12:23:22.291     
------------------------------------------------------------------------
 total:
 * wall-time:     0 d,  0 h,  0 min,  0.205 sec
 *  cpu-time:     0 d,  0 h,  0 min,  2.418 sec
 * ratio c/w:    11.802 speedup
 SCF:
 * wall-time:     0 d,  0 h,  0 min,  0.143 sec
 *  cpu-time:     0 d,  0 h,  0 min,  1.701 sec
 * ratio c/w:    11.918 speedup


-------------------------   --------------------
FINAL SINGLE POINT ENERGY       -49.359103889190
-------------------------   --------------------


----------------------------------------------------------------------------
                           ORCA NUMERICAL FREQUENCIES
                              (11-process run)
----------------------------------------------------------------------------

Number of atoms                ... 36
Central differences            ... used
Number of displacements        ... 216
Numerical increment            ... 5.000e-03 bohr
IR-spectrum generation         ... on
Raman-spectrum generation      ... off
Surface Crossing Hessian       ... off
List of participating nodes    ...  /tmp/slurm-scratch/freq.101/freq.hostnames

The output will be reduced. Please look at the following files:
SCF program output             ... >/tmp/slurm-scratch/freq.101/freq.lastscf
Integral program output        ... >/tmp/slurm-scratch/freq.101/freq.lastint
Gradient program output        ... >/tmp/slurm-scratch/freq.101/freq.lastgrad
Dipole moment program output   ... >/tmp/slurm-scratch/freq.101/freq.lastmom
AutoCI program output          ... >/tmp/slurm-scratch/freq.101/freq.lastautoci


         <<< Energy and Gradient at the input geometry >>>

        <<< Energy and Gradient at displaced geometries >>>
             <<<Displacing   4/coordinate 2 (+)>>>
             <<<Displacing   3/coordinate 2 (+)>>>
             <<<Displacing   1/coordinate 1 (+)>>>
             <<<Displacing   2/coordinate 1 (+)>>>
             <<<Displacing   4/coordinate 2 (-)>>>
             <<<Displacing   1/coordinate 3 (+)>>>
             <<<Displacing   3/coordinate 2 (-)>>>
             <<<Displacing   1/coordinate 1 (-)>>>
             <<<Displacing   2/coordinate 3 (+)>>>
             <<<Displacing   2/coordinate 1 (-)>>>
             <<<Displacing   1/coordinate 2 (+)>>>
             <<<Displacing   1/coordinate 3 (-)>>>
             <<<Displacing   4/coordinate 1 (+)>>>
             <<<Displacing   3/coordinate 3 (+)>>>
             <<<Displacing   2/coordinate 3 (-)>>>
             <<<Displacing   3/coordinate 1 (+)>>>
             <<<Displacing   2/coordinate 2 (+)>>>
             <<<Displacing   1/coordinate 2 (-)>>>
             <<<Displacing   4/coordinate 1 (-)>>>
             <<<Displacing   2/coordinate 2 (-)>>>
             <<<Displacing   3/coordinate 3 (-)>>>
             <<<Displacing   3/coordinate 1 (-)>>>
             <<<Displacing   6/coordinate 1 (+)>>>
             <<<Displacing   5/coordinate 1 (+)>>>
             <<<Displacing   5/coordinate 3 (+)>>>
             <<<Displacing   5/coordinate 2 (+)>>>
             <<<Displacing   6/coordinate 1 (-)>>>
             <<<Displacing   5/coordinate 1 (-)>>>
             <<<Displacing   4/coordinate 3 (+)>>>
             <<<Displacing   5/coordinate 3 (-)>>>
             <<<Displacing   5/coordinate 2 (-)>>>
             <<<Displacing   7/coordinate 3 (+)>>>
             <<<Displacing   4/coordinate 3 (-)>>>
             <<<Displacing   6/coordinate 2 (+)>>>
             <<<Displacing   6/coordinate 3 (+)>>>
             <<<Displacing   7/coordinate 3 (-)>>>
             <<<Displacing   6/coordinate 2 (-)>>>
             <<<Displacing   6/coordinate 3 (-)>>>
             <<<Displacing   7/coordinate 2 (+)>>>
             <<<Displacing   7/coordinate 1 (+)>>>
             <<<Displacing   8/coordinate 1 (+)>>>
             <<<Displacing   7/coordinate 2 (-)>>>
             <<<Displacing   8/coordinate 1 (-)>>>
             <<<Displacing   7/coordinate 1 (-)>>>
             <<<Displacing   9/coordinate 1 (+)>>>
             <<<Displacing   8/coordinate 2 (+)>>>
             <<<Displacing   9/coordinate 2 (+)>>>
             <<<Displacing   8/coordinate 2 (-)>>>
             <<<Displacing   9/coordinate 1 (-)>>>
             <<<Displacing   8/coordinate 3 (+)>>>
             <<<Displacing   9/coordinate 2 (-)>>>
             <<<Displacing   9/coordinate 3 (+)>>>
             <<<Displacing  10/coordinate 3 (+)>>>
             <<<Displacing   8/coordinate 3 (-)>>>
             <<<Displacing   9/coordinate 3 (-)>>>
             <<<Displacing  10/coordinate 3 (-)>>>
             <<<Displacing  10/coordinate 1 (+)>>>
             <<<Displacing  11/coordinate 2 (+)>>>
             <<<Displacing  10/coordinate 2 (+)>>>
             <<<Displacing  10/coordinate 1 (-)>>>
             <<<Displacing  11/coordinate 1 (+)>>>
             <<<Displacing  11/coordinate 2 (-)>>>
             <<<Displacing  10/coordinate 2 (-)>>>
             <<<Displacing  11/coordinate 3 (+)>>>
             <<<Displacing  11/coordinate 1 (-)>>>
             <<<Displacing  11/coordinate 3 (-)>>>
             <<<Displacing  13/coordinate 1 (+)>>>
             <<<Displacing  13/coordinate 1 (-)>>>
             <<<Displacing  12/coordinate 2 (+)>>>
             <<<Displacing  12/coordinate 1 (+)>>>
             <<<Displacing  12/coordinate 3 (+)>>>
             <<<Displacing  12/coordinate 1 (-)>>>
             <<<Displacing  12/coordinate 2 (-)>>>
             <<<Displacing  12/coordinate 3 (-)>>>
             <<<Displacing  13/coordinate 2 (+)>>>
             <<<Displacing  13/coordinate 2 (-)>>>
             <<<Displacing  14/coordinate 1 (+)>>>
             <<<Displacing  14/coordinate 2 (+)>>>
             <<<Displacing  14/coordinate 1 (-)>>>
             <<<Displacing  13/coordinate 3 (+)>>>
             <<<Displacing  14/coordinate 2 (-)>>>
             <<<Displacing  13/coordinate 3 (-)>>>
             <<<Displacing  14/coordinate 3 (+)>>>
             <<<Displacing  15/coordinate 2 (+)>>>
             <<<Displacing  14/coordinate 3 (-)>>>
             <<<Displacing  15/coordinate 1 (+)>>>
             <<<Displacing  15/coordinate 2 (-)>>>
             <<<Displacing  15/coordinate 1 (-)>>>
             <<<Displacing  16/coordinate 1 (+)>>>
             <<<Displacing  16/coordinate 3 (+)>>>
             <<<Displacing  16/coordinate 1 (-)>>>
             <<<Displacing  16/coordinate 2 (+)>>>
             <<<Displacing  16/coordinate 3 (-)>>>
             <<<Displacing  15/coordinate 3 (+)>>>
             <<<Displacing  16/coordinate 2 (-)>>>
             <<<Displacing  15/coordinate 3 (-)>>>
             <<<Displacing  17/coordinate 1 (+)>>>
             <<<Displacing  17/coordinate 2 (+)>>>
             <<<Displacing  17/coordinate 1 (-)>>>
             <<<Displacing  18/coordinate 1 (+)>>>
             <<<Displacing  17/coordinate 2 (-)>>>
             <<<Displacing  17/coordinate 3 (+)>>>
             <<<Displacing  18/coordinate 3 (+)>>>
             <<<Displacing  18/coordinate 1 (-)>>>
             <<<Displacing  17/coordinate 3 (-)>>>
             <<<Displacing  18/coordinate 2 (+)>>>
             <<<Displacing  18/coordinate 3 (-)>>>
             <<<Displacing  18/coordinate 2 (-)>>>
             <<<Displacing  19/coordinate 1 (+)>>>
             <<<Displacing  19/coordinate 1 (-)>>>
             <<<Displacing  19/coordinate 2 (+)>>>
             <<<Displacing  20/coordinate 1 (+)>>>
             <<<Displacing  21/coordinate 2 (+)>>>
             <<<Displacing  20/coordinate 2 (+)>>>
             <<<Displacing  20/coordinate 1 (-)>>>
             <<<Displacing  19/coordinate 2 (-)>>>
             <<<Displacing  19/coordinate 3 (+)>>>
             <<<Displacing  21/coordinate 2 (-)>>>
             <<<Displacing  21/coordinate 3 (+)>>>
             <<<Displacing  20/coordinate 2 (-)>>>
             <<<Displacing  21/coordinate 1 (+)>>>
             <<<Displacing  20/coordinate 3 (+)>>>
             <<<Displacing  21/coordinate 3 (-)>>>
             <<<Displacing  19/coordinate 3 (-)>>>
             <<<Displacing  20/coordinate 3 (-)>>>
             <<<Displacing  21/coordinate 1 (-)>>>
             <<<Displacing  22/coordinate 1 (+)>>>
             <<<Displacing  22/coordinate 2 (+)>>>
             <<<Displacing  22/coordinate 1 (-)>>>
             <<<Displacing  22/coordinate 3 (+)>>>
             <<<Displacing  22/coordinate 2 (-)>>>
             <<<Displacing  22/coordinate 3 (-)>>>
             <<<Displacing  23/coordinate 3 (+)>>>
             <<<Displacing  23/coordinate 1 (+)>>>
             <<<Displacing  24/coordinate 1 (+)>>>
             <<<Displacing  23/coordinate 3 (-)>>>
             <<<Displacing  23/coordinate 2 (+)>>>
             <<<Displacing  23/coordinate 1 (-)>>>
             <<<Displacing  24/coordinate 2 (+)>>>
             <<<Displacing  24/coordinate 1 (-)>>>
             <<<Displacing  24/coordinate 3 (+)>>>
             <<<Displacing  25/coordinate 1 (+)>>>
             <<<Displacing  23/coordinate 2 (-)>>>
             <<<Displacing  24/coordinate 2 (-)>>>
             <<<Displacing  25/coordinate 1 (-)>>>
             <<<Displacing  26/coordinate 1 (+)>>>
             <<<Displacing  24/coordinate 3 (-)>>>
             <<<Displacing  26/coordinate 1 (-)>>>
             <<<Displacing  25/coordinate 2 (+)>>>
             <<<Displacing  25/coordinate 2 (-)>>>
             <<<Displacing  25/coordinate 3 (+)>>>
             <<<Displacing  26/coordinate 2 (+)>>>
             <<<Displacing  25/coordinate 3 (-)>>>
             <<<Displacing  26/coordinate 2 (-)>>>
             <<<Displacing  27/coordinate 2 (+)>>>
             <<<Displacing  27/coordinate 1 (+)>>>
             <<<Displacing  26/coordinate 3 (+)>>>
             <<<Displacing  27/coordinate 3 (+)>>>
             <<<Displacing  27/coordinate 2 (-)>>>
             <<<Displacing  27/coordinate 1 (-)>>>
             <<<Displacing  26/coordinate 3 (-)>>>
             <<<Displacing  27/coordinate 3 (-)>>>
             <<<Displacing  28/coordinate 2 (+)>>>
             <<<Displacing  28/coordinate 1 (+)>>>
             <<<Displacing  29/coordinate 2 (+)>>>
             <<<Displacing  29/coordinate 1 (+)>>>
             <<<Displacing  28/coordinate 2 (-)>>>
             <<<Displacing  28/coordinate 1 (-)>>>
             <<<Displacing  28/coordinate 3 (+)>>>
             <<<Displacing  29/coordinate 2 (-)>>>
             <<<Displacing  29/coordinate 1 (-)>>>
             <<<Displacing  28/coordinate 3 (-)>>>
             <<<Displacing  30/coordinate 1 (+)>>>
             <<<Displacing  29/coordinate 3 (+)>>>
             <<<Displacing  30/coordinate 1 (-)>>>
             <<<Displacing  29/coordinate 3 (-)>>>
             <<<Displacing  30/coordinate 2 (+)>>>
             <<<Displacing  30/coordinate 2 (-)>>>
             <<<Displacing  31/coordinate 3 (+)>>>
             <<<Displacing  30/coordinate 3 (+)>>>
             <<<Displacing  31/coordinate 2 (+)>>>
             <<<Displacing  30/coordinate 3 (-)>>>
             <<<Displacing  31/coordinate 1 (+)>>>
             <<<Displacing  31/coordinate 3 (-)>>>
             <<<Displacing  31/coordinate 2 (-)>>>
             <<<Displacing  31/coordinate 1 (-)>>>
             <<<Displacing  32/coordinate 2 (+)>>>
             <<<Displacing  32/coordinate 3 (+)>>>
             <<<Displacing  32/coordinate 1 (+)>>>
             <<<Displacing  32/coordinate 2 (-)>>>
             <<<Displacing  33/coordinate 1 (+)>>>
             <<<Displacing  32/coordinate 3 (-)>>>
             <<<Displacing  32/coordinate 1 (-)>>>
             <<<Displacing  33/coordinate 1 (-)>>>
             <<<Displacing  33/coordinate 3 (+)>>>
             <<<Displacing  33/coordinate 2 (+)>>>
             <<<Displacing  33/coordinate 3 (-)>>>
             <<<Displacing  33/coordinate 2 (-)>>>
             <<<Displacing  35/coordinate 2 (+)>>>
             <<<Displacing  34/coordinate 2 (+)>>>
             <<<Displacing  35/coordinate 3 (+)>>>
             <<<Displacing  35/coordinate 1 (+)>>>
             <<<Displacing  34/coordinate 1 (+)>>>
             <<<Displacing  35/coordinate 2 (-)>>>
             <<<Displacing  34/coordinate 2 (-)>>>
             <<<Displacing  35/coordinate 3 (-)>>>
             <<<Displacing  35/coordinate 1 (-)>>>
             <<<Displacing  34/coordinate 1 (-)>>>
             <<<Displacing  34/coordinate 3 (+)>>>
             <<<Displacing  34/coordinate 3 (-)>>>
             <<<Displacing  36/coordinate 2 (+)>>>
             <<<Displacing  36/coordinate 1 (+)>>>
             <<<Displacing  36/coordinate 2 (-)>>>
             <<<Displacing  36/coordinate 1 (-)>>>
             <<<Displacing  36/coordinate 3 (+)>>>
             <<<Displacing  36/coordinate 3 (-)>>>

-----------------------
VIBRATIONAL FREQUENCIES
-----------------------

Scaling factor for frequencies =  1.000000000 (already applied!)

   0:         0.00 cm**-1
   1:         0.00 cm**-1
   2:         0.00 cm**-1
   3:         0.00 cm**-1
   4:         0.00 cm**-1
   5:         0.00 cm**-1
   6:      -430.71 cm**-1 ***imaginary mode***
   7:        41.77 cm**-1
   8:        63.44 cm**-1
   9:        69.02 cm**-1
  10:        86.05 cm**-1
  11:        91.51 cm**-1
  12:        98.19 cm**-1
  13:       116.33 cm**-1
  14:       137.23 cm**-1
  15:       140.43 cm**-1
  16:       210.66 cm**-1
  17:       222.53 cm**-1
  18:       224.64 cm**-1
  19:       246.77 cm**-1
  20:       287.91 cm**-1
  21:       335.70 cm**-1
  22:       373.44 cm**-1
  23:       383.08 cm**-1
  24:       405.45 cm**-1
  25:       435.02 cm**-1
  26:       487.38 cm**-1
  27:       521.87 cm**-1
  28:       526.95 cm**-1
  29:       559.09 cm**-1
  30:       589.78 cm**-1
  31:       590.82 cm**-1
  32:       618.71 cm**-1
  33:       637.70 cm**-1
  34:       674.61 cm**-1
  35:       720.92 cm**-1
  36:       757.16 cm**-1
  37:       773.13 cm**-1
  38:       801.90 cm**-1
  39:       809.62 cm**-1
  40:       831.86 cm**-1
  41:       850.66 cm**-1
  42:       886.85 cm**-1
  43:       903.63 cm**-1
  44:       916.64 cm**-1
  45:       935.49 cm**-1
  46:       946.74 cm**-1
  47:       954.19 cm**-1
  48:       956.71 cm**-1
  49:       979.87 cm**-1
  50:      1001.53 cm**-1
  51:      1016.00 cm**-1
  52:      1055.91 cm**-1
  53:      1073.38 cm**-1
  54:      1082.61 cm**-1
  55:      1106.62 cm**-1
  56:      1117.95 cm**-1
  57:      1131.57 cm**-1
  58:      1140.13 cm**-1
  59:      1180.50 cm**-1
  60:      1190.30 cm**-1
  61:      1194.42 cm**-1
  62:      1210.27 cm**-1
  63:      1219.33 cm**-1
  64:      1241.78 cm**-1
  65:      1265.52 cm**-1
  66:      1271.42 cm**-1
  67:      1280.76 cm**-1
  68:      1281.05 cm**-1
  69:      1283.42 cm**-1
  70:      1293.87 cm**-1
  71:      1307.31 cm**-1
  72:      1338.26 cm**-1
  73:      1342.23 cm**-1
  74:      1371.47 cm**-1
  75:      1408.06 cm**-1
  76:      1424.41 cm**-1
  77:      1430.12 cm**-1
  78:      1443.19 cm**-1
  79:      1451.16 cm**-1
  80:      1460.24 cm**-1
  81:      1475.28 cm**-1
  82:      1494.11 cm**-1
  83:      1502.40 cm**-1
  84:      1507.82 cm**-1
  85:      1510.62 cm**-1
  86:      1568.26 cm**-1
  87:      1573.47 cm**-1
  88:      2091.11 cm**-1
  89:      2253.40 cm**-1
  90:      2938.49 cm**-1
  91:      2947.99 cm**-1
  92:      2964.22 cm**-1
  93:      2973.98 cm**-1
  94:      2974.87 cm**-1
  95:      2979.06 cm**-1
  96:      2983.13 cm**-1
  97:      3000.56 cm**-1
  98:      3012.56 cm**-1
  99:      3040.47 cm**-1
 100:      3043.66 cm**-1
 101:      3055.37 cm**-1
 102:      3061.03 cm**-1
 103:      3070.84 cm**-1
 104:      3097.11 cm**-1
 105:      3327.64 cm**-1
 106:      3600.31 cm**-1
 107:      3618.54 cm**-1


------------
NORMAL MODES
------------

These modes are the cartesian displacements weighted by the diagonal matrix
M(i,i)=1/sqrt(m[i]) where m[i] is the mass of the displaced atom
Thus, these vectors are normalized but *not* orthogonal

                  0          1          2          3          4          5    
      0       0.000000   0.000000   0.000000   0.000000   0.000000   0.000000
      1       0.000000   0.000000   0.000000   0.000000   0.000000   0.000000
      2       0.000000   0.000000   0.000000   0.000000   0.000000   0.000000
      3       0.000000   0.000000   0.000000   0.000000   0.000000   0.000000
      4       0.000000   0.000000   0.000000   0.000000   0.000000   0.000000
      5       0.000000   0.000000   0.000000   0.000000   0.000000   0.000000
      6       0.000000   0.000000   0.000000   0.000000   0.000000   0.000000
      7       0.000000   0.000000   0.000000   0.000000   0.000000   0.000000
      8       0.000000   0.000000   0.000000   0.000000   0.000000   0.000000
      9       0.000000   0.000000   0.000000   0.000000   0.000000   0.000000
     10       0.000000   0.000000   0.000000   0.000000   0.000000   0.000000
     11       0.000000   0.000000   0.000000   0.000000   0.000000   0.000000
     12       0.000000   0.000000   0.000000   0.000000   0.000000   0.000000
     13       0.000000   0.000000   0.000000   0.000000   0.000000   0.000000
     14       0.000000   0.000000   0.000000   0.000000   0.000000   0.000000
     15       0.000000   0.000000   0.000000   0.000000   0.000000   0.000000
     16       0.000000   0.000000   0.000000   0.000000   0.000000   0.000000
     17       0.000000   0.000000   0.000000   0.000000   0.000000   0.000000
     18       0.000000   0.000000   0.000000   0.000000   0.000000   0.000000
     19       0.000000   0.000000   0.000000   0.000000   0.000000   0.000000
     20       0.000000   0.000000   0.000000   0.000000   0.000000   0.000000
     21       0.000000   0.000000   0.000000   0.000000   0.000000   0.000000
     22       0.000000   0.000000   0.000000   0.000000   0.000000   0.000000
     23       0.000000   0.000000   0.000000   0.000000   0.000000   0.000000
     24       0.000000   0.000000   0.000000   0.000000   0.000000   0.000000
     25       0.000000   0.000000   0.000000   0.000000   0.000000   0.000000
     26       0.000000   0.000000   0.000000   0.000000   0.000000   0.000000
     27       0.000000   0.000000   0.000000   0.000000   0.000000   0.000000
     28       0.000000   0.000000   0.000000   0.000000   0.000000   0.000000
     29       0.000000   0.000000   0.000000   0.000000   0.000000   0.000000
     30       0.000000   0.000000   0.000000   0.000000   0.000000   0.000000
     31       0.000000   0.000000   0.000000   0.000000   0.000000   0.000000
     32       0.000000   0.000000   0.000000   0.000000   0.000000   0.000000
     33       0.000000   0.000000   0.000000   0.000000   0.000000   0.000000
     34       0.000000   0.000000   0.000000   0.000000   0.000000   0.000000
     35       0.000000   0.000000   0.000000   0.000000   0.000000   0.000000
     36       0.000000   0.000000   0.000000   0.000000   0.000000   0.000000
     37       0.000000   0.000000   0.000000   0.000000   0.000000   0.000000
     38       0.000000   0.000000   0.000000   0.000000   0.000000   0.000000
     39       0.000000   0.000000   0.000000   0.000000   0.000000   0.000000
     40       0.000000   0.000000   0.000000   0.000000   0.000000   0.000000
     41       0.000000   0.000000   0.000000   0.000000   0.000000   0.000000
     42       0.000000   0.000000   0.000000   0.000000   0.000000   0.000000
     43       0.000000   0.000000   0.000000   0.000000   0.000000   0.000000
     44       0.000000   0.000000   0.000000   0.000000   0.000000   0.000000
     45       0.000000   0.000000   0.000000   0.000000   0.000000   0.000000
     46       0.000000   0.000000   0.000000   0.000000   0.000000   0.000000
     47       0.000000   0.000000   0.000000   0.000000   0.000000   0.000000
     48       0.000000   0.000000   0.000000   0.000000   0.000000   0.000000
     49       0.000000   0.000000   0.000000   0.000000   0.000000   0.000000
     50       0.000000   0.000000   0.000000   0.000000   0.000000   0.000000
     51       0.000000   0.000000   0.000000   0.000000   0.000000   0.000000
     52       0.000000   0.000000   0.000000   0.000000   0.000000   0.000000
     53       0.000000   0.000000   0.000000   0.000000   0.000000   0.000000
     54       0.000000   0.000000   0.000000   0.000000   0.000000   0.000000
     55       0.000000   0.000000   0.000000   0.000000   0.000000   0.000000
     56       0.000000   0.000000   0.000000   0.000000   0.000000   0.000000
     57       0.000000   0.000000   0.000000   0.000000   0.000000   0.000000
     58       0.000000   0.000000   0.000000   0.000000   0.000000   0.000000
     59       0.000000   0.000000   0.000000   0.000000   0.000000   0.000000
     60       0.000000   0.000000   0.000000   0.000000   0.000000   0.000000
     61       0.000000   0.000000   0.000000   0.000000   0.000000   0.000000
     62       0.000000   0.000000   0.000000   0.000000   0.000000   0.000000
     63       0.000000   0.000000   0.000000   0.000000   0.000000   0.000000
     64       0.000000   0.000000   0.000000   0.000000   0.000000   0.000000
     65       0.000000   0.000000   0.000000   0.000000   0.000000   0.000000
     66       0.000000   0.000000   0.000000   0.000000   0.000000   0.000000
     67       0.000000   0.000000   0.000000   0.000000   0.000000   0.000000
     68       0.000000   0.000000   0.000000   0.000000   0.000000   0.000000
     69       0.000000   0.000000   0.000000   0.000000   0.000000   0.000000
     70       0.000000   0.000000   0.000000   0.000000   0.000000   0.000000
     71       0.000000   0.000000   0.000000   0.000000   0.000000   0.000000
     72       0.000000   0.000000   0.000000   0.000000   0.000000   0.000000
     73       0.000000   0.000000   0.000000   0.000000   0.000000   0.000000
     74       0.000000   0.000000   0.000000   0.000000   0.000000   0.000000
     75       0.000000   0.000000   0.000000   0.000000   0.000000   0.000000
     76       0.000000   0.000000   0.000000   0.000000   0.000000   0.000000
     77       0.000000   0.000000   0.000000   0.000000   0.000000   0.000000
     78       0.000000   0.000000   0.000000   0.000000   0.000000   0.000000
     79       0.000000   0.000000   0.000000   0.000000   0.000000   0.000000
     80       0.000000   0.000000   0.000000   0.000000   0.000000   0.000000
     81       0.000000   0.000000   0.000000   0.000000   0.000000   0.000000
     82       0.000000   0.000000   0.000000   0.000000   0.000000   0.000000
     83       0.000000   0.000000   0.000000   0.000000   0.000000   0.000000
     84       0.000000   0.000000   0.000000   0.000000   0.000000   0.000000
     85       0.000000   0.000000   0.000000   0.000000   0.000000   0.000000
     86       0.000000   0.000000   0.000000   0.000000   0.000000   0.000000
     87       0.000000   0.000000   0.000000   0.000000   0.000000   0.000000
     88       0.000000   0.000000   0.000000   0.000000   0.000000   0.000000
     89       0.000000   0.000000   0.000000   0.000000   0.000000   0.000000
     90       0.000000   0.000000   0.000000   0.000000   0.000000   0.000000
     91       0.000000   0.000000   0.000000   0.000000   0.000000   0.000000
     92       0.000000   0.000000   0.000000   0.000000   0.000000   0.000000
     93       0.000000   0.000000   0.000000   0.000000   0.000000   0.000000
     94       0.000000   0.000000   0.000000   0.000000   0.000000   0.000000
     95       0.000000   0.000000   0.000000   0.000000   0.000000   0.000000
     96       0.000000   0.000000   0.000000   0.000000   0.000000   0.000000
     97       0.000000   0.000000   0.000000   0.000000   0.000000   0.000000
     98       0.000000   0.000000   0.000000   0.000000   0.000000   0.000000
     99       0.000000   0.000000   0.000000   0.000000   0.000000   0.000000
    100       0.000000   0.000000   0.000000   0.000000   0.000000   0.000000
    101       0.000000   0.000000   0.000000   0.000000   0.000000   0.000000
    102       0.000000   0.000000   0.000000   0.000000   0.000000   0.000000
    103       0.000000   0.000000   0.000000   0.000000   0.000000   0.000000
    104       0.000000   0.000000   0.000000   0.000000   0.000000   0.000000
    105       0.000000   0.000000   0.000000   0.000000   0.000000   0.000000
    106       0.000000   0.000000   0.000000   0.000000   0.000000   0.000000
    107       0.000000   0.000000   0.000000   0.000000   0.000000   0.000000
                  6          7          8          9         10         11    
      0      -0.002202   0.044719  -0.021004   0.041882   0.026684  -0.007068
      1      -0.003694  -0.018652  -0.039648  -0.027105   0.001202  -0.003085
      2      -0.004079  -0.017351  -0.055966  -0.023582  -0.042665   0.016962
      3       0.001367   0.102054  -0.006943   0.098308   0.029062  -0.019739
      4      -0.000368   0.027482  -0.028788   0.018236   0.002484  -0.012776
      5      -0.002526  -0.051106   0.003092   0.185743  -0.093458   0.025010
      6       0.001677   0.093724   0.011648   0.102293   0.045016  -0.020481
      7       0.000124   0.106911  -0.014194   0.032618   0.030931  -0.030224
      8       0.000183  -0.046232   0.084891   0.205504  -0.017039   0.014605
      9       0.001341   0.028097   0.016866   0.050938   0.063281  -0.011552
     10      -0.000156   0.142116  -0.009663   0.002265   0.059785  -0.038580
     11      -0.000091  -0.008517   0.109764   0.020299   0.116379  -0.003788
     12       0.000376  -0.028573   0.003601  -0.004328   0.059280   0.000385
     13      -0.001646   0.097762  -0.019774  -0.039723   0.056094  -0.028739
     14       0.003022   0.026497   0.054314  -0.184265   0.155313  -0.009554
     15       0.000643  -0.020062  -0.015218  -0.007661   0.041391   0.001162
     16      -0.002682   0.017803  -0.034341  -0.054249   0.026055  -0.010967
     17       0.003717   0.023401  -0.027681  -0.205732   0.071149   0.001424
     18      -0.008680   0.057004  -0.033937   0.043988   0.027088  -0.009402
     19      -0.035915  -0.105219  -0.056935  -0.025262  -0.009087   0.014407
     20      -0.052649  -0.018555  -0.124638  -0.013254  -0.041720   0.009444
     21       0.000467   0.152622  -0.011312   0.138515   0.019890  -0.029406
     22      -0.002300  -0.000110  -0.032285   0.043129  -0.019857  -0.005637
     23      -0.010624  -0.080959  -0.015791   0.328975  -0.185553   0.037058
     24       0.014438  -0.065944  -0.022772  -0.046502   0.040445   0.004234
     25       0.004763  -0.017564  -0.040047  -0.082820   0.024794  -0.007588
     26      -0.003985   0.052268  -0.062089  -0.345252   0.092431  -0.002130
     27       0.000614   0.021152   0.031007   0.053535   0.077935  -0.012430
     28      -0.000441   0.203389   0.002146   0.013314   0.083003  -0.051776
     29      -0.003267  -0.005819   0.172948   0.036433   0.187280  -0.013912
     30      -0.007094   0.060988  -0.011105  -0.004028  -0.020894  -0.001631
     31       0.078340  -0.081196   0.023891   0.023256  -0.029796   0.032900
     32      -0.014154  -0.025095  -0.156394   0.005732  -0.010661   0.002322
     33       0.014000   0.036969   0.000741  -0.004590  -0.018758  -0.000916
     34       0.011038  -0.002661  -0.038968   0.040681  -0.012284   0.044825
     35      -0.004251  -0.046323  -0.188416   0.051045   0.068820   0.022236
     36      -0.075118   0.109173  -0.050646  -0.050378  -0.078575   0.029814
     37       0.312333  -0.085627   0.084112   0.035306  -0.039614   0.029460
     38      -0.142129  -0.034996  -0.078588   0.022886  -0.018083  -0.003389
     39       0.007713  -0.058383   0.036870  -0.015448  -0.025134   0.026789
     40       0.005520   0.039446   0.016468   0.006448  -0.074736  -0.045712
     41      -0.004074   0.023569  -0.043699  -0.036602  -0.083835  -0.186780
     42      -0.018812   0.057036  -0.073108   0.046224   0.068411   0.064036
     43      -0.003950   0.053847   0.001864   0.009215  -0.072124  -0.050212
     44      -0.011312  -0.099773  -0.290903   0.125568   0.204524   0.184053
     45       0.020308   0.071143   0.048657  -0.052630  -0.109693  -0.072268
     46       0.003225  -0.028394  -0.166687   0.121952   0.128070   0.218133
     47      -0.008161  -0.063551  -0.218162   0.078099   0.119466   0.066400
     48       0.010525  -0.090370   0.025018  -0.041419  -0.171822  -0.166293
     49       0.005866  -0.025651  -0.042447   0.036712  -0.035360   0.023489
     50      -0.002859   0.071698   0.015316  -0.093586  -0.253585  -0.430624
     51       0.006742  -0.079284   0.064382   0.003515   0.122331   0.253145
     52       0.003503   0.068684   0.123902  -0.066180  -0.231845  -0.248305
     53      -0.003040   0.034051  -0.051248  -0.048293  -0.155510  -0.295005
     54       0.002852   0.022528  -0.053600   0.079956   0.040378  -0.003664
     55      -0.049254  -0.159847  -0.102573  -0.030870   0.003972   0.015346
     56       0.051358   0.029193  -0.075860   0.033628  -0.046828   0.014363
     57      -0.014879  -0.165069   0.022866  -0.044975   0.115603  -0.133085
     58       0.069728  -0.165211   0.019513  -0.029292  -0.007941  -0.014524
     59      -0.076960   0.042284   0.094540   0.044498  -0.076806  -0.005842
     60       0.056949  -0.059998  -0.016205   0.038757   0.064589  -0.051898
     61      -0.206856  -0.158737  -0.061481  -0.029962   0.000640   0.006663
     62       0.179570   0.040941   0.000810   0.040076  -0.057096  -0.000779
     63      -0.030980  -0.204485   0.042006  -0.033821   0.158834  -0.172954
     64       0.119705  -0.216536   0.039761  -0.033326   0.044012  -0.069800
     65      -0.291527  -0.000733   0.128403   0.108910  -0.016992  -0.039906
     66      -0.005498   0.120053  -0.073602  -0.183225  -0.206395   0.093611
     67      -0.100312  -0.086328   0.145387   0.023495  -0.051963   0.013873
     68       0.068505  -0.018190   0.021670   0.020264  -0.037013  -0.030791
     69       0.016178  -0.026316  -0.023720  -0.123982  -0.041423  -0.021819
     70       0.353114  -0.119589   0.089721   0.001396  -0.036390   0.004744
     71       0.634841   0.019255   0.074351   0.037144  -0.059990  -0.018548
     72       0.058843   0.155323  -0.084210  -0.222714  -0.272347   0.137211
     73      -0.280820  -0.019424   0.157635   0.048648  -0.078858   0.035068
     74       0.107696   0.062053   0.009680  -0.031241  -0.149112   0.044546
     75      -0.001857   0.105351  -0.045613   0.044481   0.037144  -0.023666
     76      -0.031469  -0.134441  -0.094529  -0.040231  -0.000166   0.012156
     77      -0.050004  -0.057312  -0.185684  -0.036212  -0.025600   0.004907
     78      -0.001653   0.030671   0.019919  -0.034567  -0.047940  -0.014545
     79       0.143370  -0.111885   0.085352   0.033873  -0.033706   0.025075
     80      -0.091211  -0.009210  -0.215472  -0.040308  -0.031490   0.000562
     81       0.001148   0.137889   0.021547   0.144939   0.044785  -0.028622
     82      -0.000409   0.140978  -0.005945   0.067696   0.030213  -0.036428
     83      -0.000315  -0.071844   0.129590   0.365708  -0.054133   0.019275
     84      -0.000973  -0.078840   0.008076  -0.042759   0.068582   0.009920
     85      -0.001352   0.124800  -0.015962  -0.060613   0.077268  -0.035947
     86       0.002671   0.056585   0.075450  -0.321169   0.250427  -0.023247
     87       0.006659  -0.083817   0.045028  -0.022993  -0.044867   0.021090
     88       0.003299   0.134327   0.009875   0.033430   0.031999   0.043154
     89      -0.002439   0.015880   0.059587  -0.037258   0.086905   0.100405
     90       0.006819  -0.046407   0.064254  -0.002315   0.094972   0.198772
     91       0.003764   0.182633   0.072317   0.020754   0.022588   0.025810
     92      -0.002326  -0.010246   0.000622  -0.003754   0.220452   0.276658
     93       0.006191  -0.069739  -0.000128  -0.030860  -0.175975  -0.192508
     94       0.004546   0.133711  -0.107541   0.082343   0.152892   0.154082
     95      -0.002703   0.009602   0.074965  -0.031894   0.149243   0.198868
     96       0.002417  -0.173747   0.089280  -0.048619  -0.080587   0.066846
     97       0.002912   0.161779   0.074778   0.014865  -0.001961   0.007588
     98      -0.002129   0.049847   0.226695  -0.089929  -0.004799   0.032467
     99       0.001645  -0.206854   0.081525  -0.061551  -0.171370  -0.036385
    100       0.001860   0.119155   0.016685   0.027806   0.013636   0.034225
    101      -0.001872   0.075947   0.293480  -0.117044  -0.100395  -0.087529
    102       0.001602  -0.188478   0.095174  -0.053184  -0.092012   0.066584
    103       0.005195   0.221353   0.061417   0.032214   0.057240   0.032729
    104      -0.003559   0.040999   0.289067  -0.099090   0.059054   0.163195
    105       0.002054  -0.190185   0.124018  -0.049900  -0.005414   0.205012
    106       0.001950   0.164787   0.193156  -0.028675  -0.101136  -0.070102
    107      -0.001896   0.056532   0.218972  -0.091684  -0.039874  -0.026531
                 12         13         14         15         16         17    
      0      -0.035760  -0.026767  -0.007118   0.022594   0.030031  -0.013929
      1       0.022995  -0.032238  -0.016886   0.019688  -0.070064   0.178158
      2       0.030250  -0.114331   0.006175  -0.107329   0.031729  -0.079131
      3       0.010440   0.010013   0.006137   0.012146   0.069575  -0.088336
      4       0.060181  -0.002818  -0.005492   0.009802  -0.040577   0.118701
      5       0.080170  -0.049060  -0.007341  -0.075675   0.018024  -0.061149
      6      -0.005486   0.033245   0.002927   0.037511   0.058585  -0.056647
      7       0.093133   0.042865   0.016825  -0.004374   0.012820  -0.013881
      8       0.030650   0.063444  -0.011533   0.017829  -0.016055   0.022229
      9      -0.065128   0.022524  -0.014149   0.079557   0.010517   0.077619
     10       0.086902   0.058298   0.025878  -0.005459   0.029335  -0.057712
     11      -0.077354   0.106706  -0.001903   0.074204  -0.025967   0.058397
     12      -0.106428  -0.017902  -0.028330   0.085440  -0.023851   0.149218
     13       0.053461   0.026391   0.014433  -0.000247   0.001495   0.000249
     14      -0.113799   0.019816   0.010048   0.007473   0.013133  -0.043137
     15      -0.086685  -0.038612  -0.023557   0.058798  -0.008711   0.105443
     16       0.022464  -0.019257  -0.007728   0.012731  -0.052392   0.128046
     17      -0.052938  -0.087304   0.014642  -0.084817   0.040793  -0.116613
     18      -0.030137  -0.020161  -0.001322   0.024375   0.017216   0.005000
     19      -0.024975  -0.044975  -0.018285   0.045765  -0.029864   0.094985
     20       0.025691  -0.092645   0.025971  -0.056994   0.027877   0.032886
     21       0.058313   0.024282   0.020576  -0.013613   0.111727  -0.176729
     22       0.061757  -0.014870  -0.012956   0.011614  -0.055250   0.149122
     23       0.151179  -0.072943  -0.014593  -0.103850   0.023114  -0.069128
     24      -0.099528  -0.056700  -0.032085   0.068716  -0.032523   0.176804
     25       0.009339  -0.034188  -0.015372   0.022507  -0.070696   0.184963
     26      -0.071858  -0.127076   0.023341  -0.111845   0.061902  -0.167551
     27      -0.080095   0.042763  -0.016477   0.102695  -0.001553   0.110524
     28       0.107466   0.094009   0.041107  -0.010800   0.063138  -0.138417
     29      -0.127723   0.206543  -0.003859   0.165718  -0.057624   0.152048
     30       0.008595  -0.126672  -0.046264  -0.047346   0.041643  -0.016803
     31      -0.074736   0.022062   0.051932  -0.048756  -0.134733  -0.001767
     32       0.008777  -0.043521   0.035821   0.004585   0.027592   0.047417
     33       0.007471  -0.133376  -0.052753  -0.033665  -0.038280  -0.040967
     34      -0.092415   0.090692   0.091733  -0.083072   0.090042  -0.017869
     35      -0.037404   0.095690   0.074493   0.087438  -0.076922  -0.139672
     36       0.032961  -0.060669  -0.020741  -0.056351   0.139201  -0.001233
     37      -0.059094   0.020656   0.039809  -0.040293  -0.175726  -0.023538
     38       0.025971  -0.049347   0.022059   0.017113   0.015837  -0.005788
     39      -0.017908  -0.089989  -0.025415  -0.029028  -0.166405  -0.095469
     40      -0.127465   0.088853   0.011814  -0.134627   0.116783   0.019991
     41      -0.125426   0.113285  -0.110743  -0.017328  -0.078687  -0.068814
     42       0.000147  -0.041436   0.021187   0.016473   0.025042  -0.169316
     43      -0.132081   0.104348   0.013584  -0.134170   0.159986   0.020483
     44       0.006001   0.144359   0.221159   0.185586  -0.116193  -0.279418
     45       0.019235  -0.229417  -0.123447  -0.109869   0.044200   0.133214
     46      -0.027004   0.101207   0.250215  -0.000429   0.146440  -0.100873
     47      -0.038689   0.140836   0.117053   0.127084  -0.110658  -0.225556
     48      -0.148820  -0.044862   0.017398  -0.016581  -0.168147  -0.104625
     49      -0.121257   0.113899   0.107820  -0.090951   0.102407  -0.019692
     50      -0.242778   0.120313  -0.185715  -0.056012  -0.067738  -0.031851
     51       0.102848  -0.091752  -0.038819  -0.048242  -0.153441  -0.071400
     52      -0.231933   0.117204  -0.088610  -0.202633   0.122880   0.082161
     53      -0.182911   0.115211  -0.108559  -0.011420  -0.081695  -0.074494
     54      -0.086505   0.034715   0.042246   0.060069   0.019843  -0.024865
     55      -0.029866  -0.057928  -0.025254   0.090454   0.064253  -0.001422
     56      -0.020596  -0.015868   0.080085  -0.088986  -0.112228   0.116819
     57       0.285397   0.070187   0.066890  -0.133527  -0.026535   0.031278
     58       0.059926  -0.034641  -0.086653   0.159950   0.124782  -0.146438
     59       0.047274  -0.000120  -0.021645   0.050625   0.003256   0.073353
     60       0.055018   0.034408   0.031563   0.012968   0.041064  -0.041760
     61      -0.003753  -0.049860  -0.037627   0.099615   0.070370   0.022356
     62       0.024092   0.008212   0.063295  -0.084672  -0.143214   0.123943
     63       0.338191   0.080377   0.104003  -0.222917  -0.083375   0.046757
     64       0.157164  -0.004174  -0.024105   0.012364   0.010273  -0.122631
     65       0.023916  -0.038423  -0.022528   0.043606   0.058749   0.080955
     66       0.138765   0.178030  -0.000106   0.105174  -0.030598  -0.007163
     67      -0.015783   0.042211  -0.009920   0.039815  -0.118163  -0.121020
     68       0.095065  -0.052461  -0.064023   0.111977   0.142778   0.054226
     69       0.215524   0.128828   0.037079  -0.020501  -0.045622   0.014449
     70       0.017677   0.012007  -0.038619   0.081859  -0.049315  -0.132641
     71       0.073210  -0.020532  -0.039102   0.060688   0.003451   0.073779
     72       0.137989   0.256069   0.010784   0.156332  -0.127664  -0.000922
     73      -0.083914  -0.019411  -0.039495   0.035375  -0.018525  -0.146156
     74       0.068190   0.044232  -0.058586   0.188892   0.031586   0.053598
     75      -0.015472   0.004518  -0.005047   0.046495  -0.022162   0.146837
     76      -0.012504  -0.065977  -0.041311   0.088572   0.037853   0.071451
     77       0.045382  -0.122922  -0.010176   0.014642   0.128879   0.017700
     78       0.040793  -0.223721  -0.094780  -0.051907  -0.020163   0.040751
     79      -0.065590  -0.018045   0.035384  -0.044686  -0.243142  -0.014000
     80       0.028529  -0.082154   0.010619  -0.005910   0.128509   0.125375
     81       0.028670   0.061673   0.014616   0.025585   0.088895  -0.139816
     82       0.120062   0.065622   0.025727  -0.013155   0.035962  -0.077842
     83       0.069643   0.125229  -0.021575   0.057838  -0.036566   0.074741
     84      -0.155007  -0.031629  -0.043082   0.112325  -0.065859   0.243093
     85       0.053216   0.039041   0.021855  -0.002293   0.018666  -0.036542
     86      -0.186090   0.047999   0.016979   0.038742   0.017891  -0.048484
     87      -0.041260  -0.058085  -0.005140  -0.043903  -0.130504  -0.083156
     88      -0.011458  -0.031166  -0.073217  -0.121077   0.015978  -0.017746
     89       0.034220   0.109766  -0.171498  -0.090120  -0.026765   0.002750
     90       0.087686  -0.102410  -0.113194  -0.086188  -0.190038  -0.079586
     91       0.023403  -0.151600   0.020329  -0.025613  -0.045786  -0.043976
     92       0.104737   0.216466  -0.378645  -0.241778  -0.006014   0.037066
     93      -0.149080  -0.090027   0.081908   0.046346  -0.187903  -0.143183
     94       0.042306   0.053169  -0.323813  -0.251000  -0.064657  -0.038562
     95       0.083778   0.126888  -0.218684  -0.134771  -0.003210   0.028758
     96      -0.099535   0.087372   0.052825  -0.152008   0.172673   0.043496
     97      -0.002524  -0.127659   0.048414  -0.028691  -0.010050  -0.032936
     98       0.036424  -0.062681   0.133826   0.094262   0.020074   0.017276
     99      -0.187383   0.123424   0.167205  -0.118268   0.262923   0.021707
    100      -0.032107  -0.009528  -0.048719  -0.133879   0.074008  -0.004322
    101       0.000293  -0.181708   0.351934   0.255329  -0.010919  -0.037136
    102      -0.114062   0.110831   0.069388  -0.166720   0.227890   0.062038
    103       0.069175  -0.221816  -0.027544   0.018167  -0.218432  -0.089905
    104       0.099326  -0.046526   0.095945   0.019395   0.128180   0.125918
    105      -0.041325   0.136249  -0.033056  -0.258836   0.279805   0.150723
    106      -0.037218  -0.222687   0.311847   0.101315   0.090193  -0.015296
    107       0.011455  -0.087048   0.181649   0.143428  -0.017197  -0.024361
                 18         19         20         21         22         23    
      0       0.002751   0.071899   0.000006  -0.028671  -0.003969   0.004980
      1      -0.092210   0.051098   0.000472   0.006964   0.104628   0.005554
      2      -0.000752   0.100245  -0.000605  -0.062138  -0.049088   0.010309
      3       0.039503   0.109028  -0.000805  -0.029495  -0.120361  -0.047056
      4      -0.061367   0.071109  -0.000022   0.020677   0.043378  -0.034889
      5      -0.028063   0.174533  -0.001949   0.120186   0.053439  -0.195510
      6       0.037947   0.076737  -0.000732  -0.048547  -0.138827   0.041838
      7       0.021348   0.012546  -0.000456   0.007064  -0.047962   0.032014
      8      -0.012305  -0.003318  -0.001851   0.062680   0.049722   0.196986
      9      -0.014476   0.068161  -0.000024  -0.094670  -0.149430  -0.003961
     10       0.053388  -0.037555  -0.000525  -0.021533  -0.056859  -0.002482
     11       0.029368  -0.200068  -0.001023  -0.109549   0.007773   0.003326
     12      -0.067668   0.117841   0.000303  -0.028644  -0.040847  -0.047936
     13       0.010782   0.001637  -0.000256   0.029725   0.034399  -0.035723
     14       0.016640   0.014671  -0.001654   0.066786   0.032693  -0.200657
     15      -0.056482   0.144351   0.000338  -0.011660  -0.051379   0.045733
     16      -0.069698   0.052112   0.000249   0.044049   0.133968   0.041291
     17       0.000523   0.176384  -0.001345   0.108282   0.005729   0.209066
     18       0.003239   0.013660   0.000284  -0.020919   0.108536   0.004210
     19       0.011529  -0.004917   0.002123   0.037764  -0.072792   0.000727
     20       0.078088  -0.047295   0.002955  -0.143056  -0.058354  -0.003584
     21       0.083196   0.133856  -0.001250  -0.035997  -0.224817  -0.108319
     22      -0.083635   0.086481   0.000040   0.050674   0.102303  -0.080921
     23      -0.049227   0.265662  -0.002319   0.216021   0.111654  -0.443855
     24      -0.095471   0.180952   0.000769   0.007670  -0.045445   0.093590
     25      -0.100977   0.083183   0.000550   0.054543   0.135447   0.076784
     26       0.005061   0.239650  -0.001243   0.194543   0.008376   0.429575
     27      -0.013119   0.014335   0.000189  -0.128991  -0.149463  -0.004805
     28       0.108100  -0.095669  -0.000881  -0.062217  -0.112039  -0.002227
     29       0.062214  -0.445755  -0.000334  -0.272139  -0.026512   0.000026
     30      -0.040749  -0.056876   0.001782  -0.085329   0.128141   0.009370
     31       0.080712   0.047305   0.002001   0.029116  -0.126255   0.001308
     32       0.073460  -0.052662   0.000102  -0.113677  -0.061903  -0.009098
     33      -0.039728  -0.078168   0.000573  -0.051632   0.110132   0.008194
     34      -0.091636  -0.014340  -0.007646   0.007073  -0.043448   0.002254
     35      -0.183103  -0.031514  -0.020353  -0.025882   0.046215   0.002279
     36      -0.045155  -0.101665   0.000557  -0.105861   0.127716   0.001251
     37       0.091069   0.082242   0.003792   0.044896  -0.148289   0.004753
     38       0.093360  -0.032674   0.001203  -0.137046  -0.077214  -0.010526
     39      -0.046259  -0.129531  -0.004921   0.062526  -0.081033  -0.007002
     40      -0.041102  -0.018418  -0.008351   0.008976  -0.034614   0.001007
     41      -0.042778  -0.005491  -0.022261   0.002565   0.022503   0.001085
     42      -0.309335  -0.097438  -0.013851  -0.032335   0.262288   0.020443
     43      -0.061855  -0.005446  -0.008765  -0.004077  -0.002413   0.004590
     44      -0.414636  -0.057457  -0.029349   0.001709   0.110686   0.008586
     45       0.211490  -0.052313   0.016505  -0.130268   0.019426  -0.000281
     46      -0.287391  -0.031669  -0.010942  -0.030182   0.052883   0.010101
     47      -0.311778  -0.044225  -0.027924   0.007298   0.093794   0.006679
     48      -0.052166  -0.122650  -0.063333   0.086798  -0.127706  -0.008575
     49      -0.104943  -0.029397  -0.013153   0.027285  -0.082617  -0.001037
     50       0.028150   0.012725  -0.066614   0.002015   0.037383   0.001887
     51      -0.036131  -0.126763   0.056375   0.078932  -0.123874  -0.008989
     52       0.063393   0.003701  -0.036334   0.044169  -0.094332  -0.002424
     53      -0.041835  -0.004581  -0.050536  -0.003655   0.039545   0.001992
     54       0.232939  -0.052684   0.008454   0.207282   0.215574   0.010229
     55       0.117293  -0.064394   0.003529   0.118727  -0.101125   0.002570
     56       0.145577  -0.012366   0.007887  -0.095556   0.065390  -0.007114
     57      -0.010280  -0.021832   0.000828   0.026979  -0.010833  -0.000417
     58       0.025360   0.003454  -0.001616  -0.117990   0.085366  -0.003948
     59      -0.051737  -0.029052   0.000830   0.081225  -0.042754   0.000847
     60       0.131297  -0.038839   0.004652   0.155372   0.132425   0.004988
     61       0.056561  -0.070746   0.001866   0.145733  -0.136909  -0.000261
     62       0.067282   0.030430   0.006287  -0.151877   0.108261  -0.012048
     63      -0.010035  -0.010293   0.001246  -0.086342   0.003617  -0.018115
     64       0.022447   0.046893  -0.000990  -0.378671   0.146964  -0.031095
     65      -0.043427  -0.097959   0.001041   0.288279  -0.150968  -0.005083
     66       0.014763  -0.003973  -0.000864   0.008751  -0.000678  -0.006074
     67       0.062462   0.115291   0.001593  -0.134758   0.085449   0.004423
     68      -0.067665  -0.090309  -0.000735   0.089134  -0.051020  -0.002921
     69      -0.001009   0.009397   0.000025   0.008604   0.004501   0.010747
     70       0.052594   0.100384   0.001095  -0.137998   0.084128   0.004156
     71      -0.065300   0.019137   0.002070   0.033903   0.031952   0.010476
     72       0.047421   0.055538  -0.000420   0.060639  -0.097072  -0.007217
     73       0.033317   0.055910   0.001033  -0.233519   0.246740  -0.001481
     74      -0.028591  -0.020957  -0.000261   0.128744  -0.134221  -0.006784
     75      -0.068022   0.009587  -0.000171  -0.071348   0.163316  -0.007020
     76       0.021668  -0.047271   0.001859   0.039933  -0.096104  -0.001286
     77       0.082917  -0.112359   0.002446  -0.140463  -0.090974  -0.007823
     78       0.064496  -0.065800   0.011610  -0.101037   0.123006   0.010908
     79       0.165648   0.092033   0.007717   0.019520  -0.167681   0.003534
     80       0.047362  -0.128324   0.001395  -0.110176  -0.006588  -0.010371
     81       0.083459   0.045165  -0.001142  -0.030339  -0.149619   0.092086
     82       0.056454  -0.012637  -0.000779   0.021612  -0.053991   0.074058
     83      -0.023529  -0.029699  -0.002165   0.108443   0.067249   0.424071
     84      -0.117094   0.119331   0.000632   0.003870   0.071475  -0.098166
     85       0.033130  -0.002803  -0.000453   0.031332  -0.005468  -0.079572
     86       0.031044  -0.001796  -0.001913   0.122152   0.047489  -0.443407
     87      -0.050237  -0.125761  -0.008711   0.071671  -0.105943  -0.008174
     88      -0.041073  -0.096942   0.019770   0.006235   0.012637  -0.004258
     89       0.034788   0.031920   0.052880   0.003035  -0.017254   0.001159
     90      -0.007853  -0.150513   0.023402   0.084434  -0.132027  -0.011670
     91      -0.048257  -0.124983  -0.001876   0.023609  -0.007067  -0.006721
     92       0.080709   0.044095   0.105771  -0.005106  -0.019597   0.000999
     93      -0.110246  -0.153749  -0.048315   0.084781  -0.101314  -0.008558
     94      -0.017490  -0.124054   0.068280   0.024390  -0.018766  -0.007145
     95       0.062142   0.043308   0.071296  -0.003201  -0.018461   0.001258
     96      -0.045200  -0.057047   0.000744  -0.019569   0.047289  -0.002444
     97      -0.053436  -0.115089  -0.008886   0.018817  -0.003312  -0.006390
     98       0.018612   0.042673  -0.008921  -0.009969   0.003015   0.002332
     99      -0.146273  -0.054625   0.473632  -0.050665   0.099337  -0.001887
    100      -0.060128  -0.100484   0.090608  -0.009986   0.049569  -0.005061
    101      -0.057004   0.026499   0.259937   0.000338  -0.020543   0.001125
    102      -0.052482  -0.048449   0.033953  -0.038085   0.081394  -0.001618
    103      -0.003706  -0.144980  -0.244397   0.088536  -0.130099  -0.009309
    104       0.125005   0.074833  -0.543001  -0.043279   0.072696   0.004885
    105       0.060287  -0.025197  -0.499185  -0.052722   0.117389   0.000109
    106      -0.101256  -0.103890   0.100318  -0.012726   0.051663  -0.005264
    107      -0.025873   0.030423   0.195262   0.001678  -0.021919   0.001369
                 24         25         26         27         28         29    
      0       0.020334  -0.036452  -0.000822   0.045901  -0.003591  -0.069014
      1       0.013466   0.010469   0.017929   0.056218   0.016899  -0.030658
      2       0.037352  -0.096572   0.037438   0.132764   0.172417  -0.007459
      3      -0.019207   0.002705  -0.004949  -0.005456   0.003851  -0.017371
      4      -0.012122   0.039516   0.017617   0.025657   0.023970   0.011733
      5      -0.004054   0.004215   0.002457   0.028649   0.033576  -0.014325
      6      -0.027106   0.017255  -0.009145  -0.031523  -0.016505  -0.004803
      7      -0.017299   0.011713  -0.000484  -0.029239   0.018324   0.058277
      8      -0.015973   0.050069  -0.017396  -0.066814  -0.088272   0.011243
      9      -0.030648   0.018328   0.010493  -0.002761   0.073086   0.062178
     10      -0.000026  -0.023043   0.001131   0.001932   0.030984   0.017676
     11       0.041842  -0.069886   0.022771   0.099858   0.093608  -0.043631
     12      -0.024644   0.037604   0.001595  -0.014035   0.002797   0.028093
     13       0.005719  -0.006075  -0.005652  -0.000988  -0.026003  -0.017666
     14      -0.011273   0.030593  -0.016275  -0.072100  -0.081362   0.017001
     15      -0.023171   0.024058   0.000354   0.001531   0.025317   0.020357
     16       0.011404   0.026176   0.011282   0.054132  -0.026322  -0.066584
     17      -0.021122   0.027896  -0.004074   0.018481   0.030124  -0.005478
     18       0.037687  -0.015360   0.004184   0.053793  -0.069892  -0.086686
     19       0.003222  -0.064924  -0.037605  -0.070141   0.035558   0.037134
     20       0.006014   0.021213   0.018386   0.020099  -0.052641   0.004883
     21      -0.044261   0.015234  -0.012903  -0.065341   0.014043   0.056160
     22      -0.007027   0.049887   0.014189   0.020965  -0.017951  -0.012066
     23      -0.022306   0.060313  -0.020183  -0.071903  -0.099197   0.002951
     24      -0.040285   0.055170   0.022739  -0.015718   0.012236   0.054548
     25      -0.003201   0.053278   0.026373   0.042951  -0.034119  -0.037089
     26      -0.050654   0.084734  -0.038625  -0.086051  -0.110603   0.000773
     27      -0.022089   0.005549   0.014085   0.006103   0.079282   0.061422
     28       0.004046  -0.040973  -0.000291  -0.000551   0.025729  -0.001508
     29       0.076442  -0.128422   0.037600   0.132179   0.120749  -0.046347
     30       0.108230  -0.117185  -0.018817  -0.051155  -0.046705   0.039520
     31       0.014695  -0.125260   0.013044  -0.047058  -0.032063  -0.099253
     32      -0.038310   0.062519   0.014114   0.024450  -0.147432  -0.105724
     33       0.040768  -0.154566  -0.018684  -0.077109  -0.038493   0.038678
[...]
     73       0.000157  -0.000177  -0.000335  -0.000230  -0.202338  -0.018298
     74       0.000035   0.000182   0.000118  -0.001230   0.539871   0.050296
     75      -0.000414  -0.000747  -0.000196   0.000701  -0.000261  -0.000145
     76      -0.000919  -0.001908  -0.003439   0.000025  -0.000119  -0.000076
     77       0.000801   0.001297   0.002196   0.001300   0.000084   0.000107
     78      -0.000463   0.001617  -0.000203  -0.485515  -0.000865  -0.000588
     79       0.000332  -0.001807  -0.000051   0.724117   0.002515   0.001247
     80      -0.000085  -0.001189  -0.000266   0.483951   0.000451   0.000700
     81       0.422758   0.351999  -0.001617   0.001327  -0.000022   0.000239
     82      -0.541502  -0.452984   0.002273  -0.001218  -0.000021  -0.000301
     83       0.006382   0.005704  -0.000113  -0.000037   0.000037   0.000005
     84      -0.233509   0.147229  -0.043171   0.000853  -0.000035  -0.000040
     85      -0.610214   0.388753  -0.115489   0.001615  -0.000110  -0.000276
     86       0.158542  -0.100695   0.029684  -0.000499   0.000099   0.000071
     87       0.000017   0.000020  -0.000017   0.000071   0.000012   0.000010
     88      -0.000008  -0.000025   0.000011  -0.000117  -0.000025  -0.000007
     89       0.000003   0.000008   0.000003   0.000022  -0.000005   0.000001
     90      -0.000095  -0.000118   0.000158  -0.000788  -0.000178  -0.000117
     91       0.000127   0.000246  -0.000200   0.000406   0.000188   0.000068
     92       0.000075   0.000182  -0.000170   0.000651   0.000176   0.000099
     93      -0.000074  -0.000081   0.000059  -0.000395  -0.000075  -0.000054
     94       0.000026   0.000026   0.000001   0.000001   0.000001  -0.000005
     95      -0.000123  -0.000270   0.000145  -0.000674  -0.000219  -0.000059
     96       0.000009   0.000010  -0.000001   0.000020   0.000003  -0.000002
     97      -0.000009  -0.000008  -0.000004   0.000024  -0.000015   0.000004
     98       0.000003  -0.000004   0.000003  -0.000030  -0.000006  -0.000002
     99      -0.000095  -0.000015  -0.000027   0.000036  -0.000034  -0.000018
    100       0.000100   0.000094   0.000022  -0.000028   0.000106   0.000055
    101       0.000074   0.000052   0.000020  -0.000023   0.000024   0.000016
    102       0.000050  -0.000173   0.000050  -0.001038   0.000060  -0.000069
    103       0.000008  -0.000016  -0.000003  -0.000446   0.000055  -0.000022
    104       0.000002  -0.000000   0.000001   0.000132  -0.000033   0.000008
    105      -0.000073   0.000037  -0.000031   0.000200  -0.000010   0.000006
    106       0.000011   0.000024   0.000003  -0.000056   0.000029   0.000004
    107      -0.000104  -0.000001  -0.000068   0.000417  -0.000046  -0.000004


-----------
IR SPECTRUM  
-----------

 Mode    freq (cm**-1)   T**2         TX         TY         TZ
-------------------------------------------------------------------
   7:        41.77    0.000000  (  0.000000   0.000000   0.000000)
   8:        63.44    0.000000  (  0.000000   0.000000   0.000000)
   9:        69.02    0.000000  (  0.000000   0.000000   0.000000)
  10:        86.05    0.000000  (  0.000000   0.000000   0.000000)
  11:        91.51    0.000000  (  0.000000   0.000000   0.000000)
  12:        98.19    0.000000  (  0.000000   0.000000   0.000000)
  13:       116.33    0.000000  (  0.000000   0.000000   0.000000)
  14:       137.23    0.000000  (  0.000000   0.000000   0.000000)
  15:       140.43    0.000000  (  0.000000   0.000000   0.000000)
  16:       210.66    0.000000  (  0.000000   0.000000   0.000000)
  17:       222.53    0.000000  (  0.000000   0.000000   0.000000)
  18:       224.64    0.000000  (  0.000000   0.000000   0.000000)
  19:       246.77    0.000000  (  0.000000   0.000000   0.000000)
  20:       287.91    0.000000  (  0.000000   0.000000   0.000000)
  21:       335.70    0.000000  (  0.000000   0.000000   0.000000)
  22:       373.44    0.000000  (  0.000000   0.000000   0.000000)
  23:       383.08    0.000000  (  0.000000   0.000000   0.000000)
  24:       405.45    0.000000  (  0.000000   0.000000   0.000000)
  25:       435.02    0.000000  (  0.000000   0.000000   0.000000)
  26:       487.38    0.000000  (  0.000000   0.000000   0.000000)
  27:       521.87    0.000000  (  0.000000   0.000000   0.000000)
  28:       526.95    0.000000  (  0.000000   0.000000   0.000000)
  29:       559.09    0.000000  (  0.000000   0.000000   0.000000)
  30:       589.78    0.000000  (  0.000000   0.000000   0.000000)
  31:       590.82    0.000000  (  0.000000   0.000000   0.000000)
  32:       618.71    0.000000  (  0.000000   0.000000   0.000000)
  33:       637.70    0.000000  (  0.000000   0.000000   0.000000)
  34:       674.61    0.000000  (  0.000000   0.000000   0.000000)
  35:       720.92    0.000000  (  0.000000   0.000000   0.000000)
  36:       757.16    0.000000  (  0.000000   0.000000   0.000000)
  37:       773.13    0.000000  (  0.000000   0.000000   0.000000)
  38:       801.90    0.000000  (  0.000000   0.000000   0.000000)
  39:       809.62    0.000000  (  0.000000   0.000000   0.000000)
  40:       831.86    0.000000  (  0.000000   0.000000   0.000000)
  41:       850.66    0.000000  (  0.000000   0.000000   0.000000)
  42:       886.85    0.000000  (  0.000000   0.000000   0.000000)
  43:       903.63    0.000000  (  0.000000   0.000000   0.000000)
  44:       916.64    0.000000  (  0.000000   0.000000   0.000000)
  45:       935.49    0.000000  (  0.000000   0.000000   0.000000)
  46:       946.74    0.000000  (  0.000000   0.000000   0.000000)
  47:       954.19    0.000000  (  0.000000   0.000000   0.000000)
  48:       956.71    0.000000  (  0.000000   0.000000   0.000000)
  49:       979.87    0.000000  (  0.000000   0.000000   0.000000)
  50:      1001.53    0.000000  (  0.000000   0.000000   0.000000)
  51:      1016.00    0.000000  (  0.000000   0.000000   0.000000)
  52:      1055.91    0.000000  (  0.000000   0.000000   0.000000)
  53:      1073.38    0.000000  (  0.000000   0.000000   0.000000)
  54:      1082.61    0.000000  (  0.000000   0.000000   0.000000)
  55:      1106.62    0.000000  (  0.000000   0.000000   0.000000)
  56:      1117.95    0.000000  (  0.000000   0.000000   0.000000)
  57:      1131.57    0.000000  (  0.000000   0.000000   0.000000)
  58:      1140.13    0.000000  (  0.000000   0.000000   0.000000)
  59:      1180.50    0.000000  (  0.000000   0.000000   0.000000)
  60:      1190.30    0.000000  (  0.000000   0.000000   0.000000)
  61:      1194.42    0.000000  (  0.000000   0.000000   0.000000)
  62:      1210.27    0.000000  (  0.000000   0.000000   0.000000)
  63:      1219.33    0.000000  (  0.000000   0.000000   0.000000)
  64:      1241.78    0.000000  (  0.000000   0.000000   0.000000)
  65:      1265.52    0.000000  (  0.000000   0.000000   0.000000)
  66:      1271.42    0.000000  (  0.000000   0.000000   0.000000)
  67:      1280.76    0.000000  (  0.000000   0.000000   0.000000)
  68:      1281.05    0.000000  (  0.000000   0.000000   0.000000)
  69:      1283.42    0.000000  (  0.000000   0.000000   0.000000)
  70:      1293.87    0.000000  (  0.000000   0.000000   0.000000)
  71:      1307.31    0.000000  (  0.000000   0.000000   0.000000)
  72:      1338.26    0.000000  (  0.000000   0.000000   0.000000)
  73:      1342.23    0.000000  (  0.000000   0.000000   0.000000)
  74:      1371.47    0.000000  (  0.000000   0.000000   0.000000)
  75:      1408.06    0.000000  (  0.000000   0.000000   0.000000)
  76:      1424.41    0.000000  (  0.000000   0.000000   0.000000)
  77:      1430.12    0.000000  (  0.000000   0.000000   0.000000)
  78:      1443.19    0.000000  (  0.000000   0.000000   0.000000)
  79:      1451.16    0.000000  (  0.000000   0.000000   0.000000)
  80:      1460.24    0.000000  (  0.000000   0.000000   0.000000)
  81:      1475.28    0.000000  (  0.000000   0.000000   0.000000)
  82:      1494.11    0.000000  (  0.000000   0.000000   0.000000)
  83:      1502.40    0.000000  (  0.000000   0.000000   0.000000)
  84:      1507.82    0.000000  (  0.000000   0.000000   0.000000)
  85:      1510.62    0.000000  (  0.000000   0.000000   0.000000)
  86:      1568.26    0.000000  (  0.000000   0.000000   0.000000)
  87:      1573.47    0.000000  (  0.000000   0.000000   0.000000)
  88:      2091.11    0.000000  (  0.000000   0.000000   0.000000)
  89:      2253.40    0.000000  (  0.000000   0.000000   0.000000)
  90:      2938.49    0.000000  (  0.000000   0.000000   0.000000)
  91:      2947.99    0.000000  (  0.000000   0.000000   0.000000)
  92:      2964.22    0.000000  (  0.000000   0.000000   0.000000)
  93:      2973.98    0.000000  (  0.000000   0.000000   0.000000)
  94:      2974.87    0.000000  (  0.000000   0.000000   0.000000)
  95:      2979.06    0.000000  (  0.000000   0.000000   0.000000)
  96:      2983.13    0.000000  (  0.000000   0.000000   0.000000)
  97:      3000.56    0.000000  (  0.000000   0.000000   0.000000)
  98:      3012.56    0.000000  (  0.000000   0.000000   0.000000)
  99:      3040.47    0.000000  (  0.000000   0.000000   0.000000)
 100:      3043.66    0.000000  (  0.000000   0.000000   0.000000)
 101:      3055.37    0.000000  (  0.000000   0.000000   0.000000)
 102:      3061.03    0.000000  (  0.000000   0.000000   0.000000)
 103:      3070.84    0.000000  (  0.000000   0.000000   0.000000)
 104:      3097.11    0.000000  (  0.000000   0.000000   0.000000)
 105:      3327.64    0.000000  (  0.000000   0.000000   0.000000)
 106:      3600.31    0.000000  (  0.000000   0.000000   0.000000)
 107:      3618.54    0.000000  (  0.000000   0.000000   0.000000)

The first frequency considered to be a vibration is 7
The total number of vibrations considered is 101


--------------------------
THERMOCHEMISTRY AT 298.15K
--------------------------

Temperature         ... 298.15 K
Pressure            ... 1.00 atm
Total Mass          ... 215.29 AMU

Throughout the following assumptions are being made:
  (1) The electronic state is orbitally nondegenerate
  (2) There are no thermally accessible electronically excited states
  (3) Hindered rotations indicated by low frequency modes are not
      treated as such but are treated as vibrations and this may
      cause some error
  (4) All equations used are the standard statistical mechanics
      equations for an ideal gas
  (5) All vibrations are strictly harmonic

freq.      41.77  E(vib)   ...       0.53 
freq.      63.44  E(vib)   ...       0.51 
freq.      69.02  E(vib)   ...       0.50 
freq.      86.05  E(vib)   ...       0.48 
freq.      91.51  E(vib)   ...       0.47 
freq.      98.19  E(vib)   ...       0.46 
freq.     116.33  E(vib)   ...       0.44 
freq.     137.23  E(vib)   ...       0.42 
freq.     140.43  E(vib)   ...       0.41 
freq.     210.66  E(vib)   ...       0.34 
freq.     222.53  E(vib)   ...       0.33 
freq.     224.64  E(vib)   ...       0.33 
freq.     246.77  E(vib)   ...       0.31 
freq.     287.91  E(vib)   ...       0.27 
freq.     335.70  E(vib)   ...       0.24 
freq.     373.44  E(vib)   ...       0.21 
freq.     383.08  E(vib)   ...       0.20 
freq.     405.45  E(vib)   ...       0.19 
freq.     435.02  E(vib)   ...       0.17 
freq.     487.38  E(vib)   ...       0.15 
freq.     521.87  E(vib)   ...       0.13 
freq.     526.95  E(vib)   ...       0.13 
freq.     559.09  E(vib)   ...       0.12 
freq.     589.78  E(vib)   ...       0.10 
freq.     590.82  E(vib)   ...       0.10 
freq.     618.71  E(vib)   ...       0.09 
freq.     637.70  E(vib)   ...       0.09 
freq.     674.61  E(vib)   ...       0.08 
freq.     720.92  E(vib)   ...       0.07 
freq.     757.16  E(vib)   ...       0.06 
freq.     773.13  E(vib)   ...       0.05 
freq.     801.90  E(vib)   ...       0.05 
freq.     809.62  E(vib)   ...       0.05 
freq.     831.86  E(vib)   ...       0.04 
freq.     850.66  E(vib)   ...       0.04 
freq.     886.85  E(vib)   ...       0.04 
freq.     903.63  E(vib)   ...       0.03 
freq.     916.64  E(vib)   ...       0.03 
freq.     935.49  E(vib)   ...       0.03 
freq.     946.74  E(vib)   ...       0.03 
freq.     954.19  E(vib)   ...       0.03 
freq.     956.71  E(vib)   ...       0.03 
freq.     979.87  E(vib)   ...       0.02 
freq.    1001.53  E(vib)   ...       0.02 
freq.    1016.00  E(vib)   ...       0.02 
freq.    1055.91  E(vib)   ...       0.02 
freq.    1073.38  E(vib)   ...       0.02 
freq.    1082.61  E(vib)   ...       0.02 
freq.    1106.62  E(vib)   ...       0.02 
freq.    1117.95  E(vib)   ...       0.01 
freq.    1131.57  E(vib)   ...       0.01 
freq.    1140.13  E(vib)   ...       0.01 
freq.    1180.50  E(vib)   ...       0.01 
freq.    1190.30  E(vib)   ...       0.01 
freq.    1194.42  E(vib)   ...       0.01 
freq.    1210.27  E(vib)   ...       0.01 
freq.    1219.33  E(vib)   ...       0.01 
freq.    1241.78  E(vib)   ...       0.01 
freq.    1265.52  E(vib)   ...       0.01 
freq.    1271.42  E(vib)   ...       0.01 
freq.    1280.76  E(vib)   ...       0.01 
freq.    1281.05  E(vib)   ...       0.01 
freq.    1283.42  E(vib)   ...       0.01 
freq.    1293.87  E(vib)   ...       0.01 
freq.    1307.31  E(vib)   ...       0.01 
freq.    1338.26  E(vib)   ...       0.01 
freq.    1342.23  E(vib)   ...       0.01 
freq.    1371.47  E(vib)   ...       0.01 
freq.    1408.06  E(vib)   ...       0.00 
freq.    1424.41  E(vib)   ...       0.00 
freq.    1430.12  E(vib)   ...       0.00 
freq.    1443.19  E(vib)   ...       0.00 
freq.    1451.16  E(vib)   ...       0.00 
freq.    1460.24  E(vib)   ...       0.00 
freq.    1475.28  E(vib)   ...       0.00 
freq.    1494.11  E(vib)   ...       0.00 
freq.    1502.40  E(vib)   ...       0.00 
freq.    1507.82  E(vib)   ...       0.00 
freq.    1510.62  E(vib)   ...       0.00 
freq.    1568.26  E(vib)   ...       0.00 
freq.    1573.47  E(vib)   ...       0.00 
freq.    2091.11  E(vib)   ...       0.00 
freq.    2253.40  E(vib)   ...       0.00 
freq.    2938.49  E(vib)   ...       0.00 
freq.    2947.99  E(vib)   ...       0.00 
freq.    2964.22  E(vib)   ...       0.00 
freq.    2973.98  E(vib)   ...       0.00 
freq.    2974.87  E(vib)   ...       0.00 
freq.    2979.06  E(vib)   ...       0.00 
freq.    2983.13  E(vib)   ...       0.00 
freq.    3000.56  E(vib)   ...       0.00 
freq.    3012.56  E(vib)   ...       0.00 
freq.    3040.47  E(vib)   ...       0.00 
freq.    3043.66  E(vib)   ...       0.00 
freq.    3055.37  E(vib)   ...       0.00 
freq.    3061.03  E(vib)   ...       0.00 
freq.    3070.84  E(vib)   ...       0.00 
freq.    3097.11  E(vib)   ...       0.00 
freq.    3327.64  E(vib)   ...       0.00 
freq.    3600.31  E(vib)   ...       0.00 
freq.    3618.54  E(vib)   ...       0.00 

------------
INNER ENERGY
------------

The inner energy is: U= E(el) + E(ZPE) + E(vib) + E(rot) + E(trans)
    E(el)   - is the total energy from the electronic structure calculation
              = E(kin-el) + E(nuc-el) + E(el-el) + E(nuc-nuc)
    E(ZPE)  - the the zero temperature vibrational energy from the frequency calculation
    E(vib)  - the the finite temperature correction to E(ZPE) due to population
              of excited vibrational states
    E(rot)  - is the rotational thermal energy
    E(trans)- is the translational thermal energy

Summary of contributions to the inner energy U:
Electronic energy                ...    -49.35910389 Eh
Zero point energy                ...      0.29953920 Eh     187.96 kcal/mol
Thermal vibrational correction   ...      0.01393055 Eh       8.74 kcal/mol
Thermal rotational correction    ...      0.00141627 Eh       0.89 kcal/mol
Thermal translational correction ...      0.00141627 Eh       0.89 kcal/mol
-----------------------------------------------------------------------
Total thermal energy                    -49.04280160 Eh


Summary of corrections to the electronic energy:
(perhaps to be used in another calculation)
Total thermal correction                  0.01676310 Eh      10.52 kcal/mol
Non-thermal (ZPE) correction              0.29953920 Eh     187.96 kcal/mol
-----------------------------------------------------------------------
Total correction                          0.31630229 Eh     198.48 kcal/mol


--------
ENTHALPY
--------

The enthalpy is H = U + kB*T
                kB is Boltzmann's constant
Total free energy                 ...    -49.04280160 Eh 
Thermal Enthalpy correction       ...      0.00094421 Eh       0.59 kcal/mol
-----------------------------------------------------------------------
Total Enthalpy                    ...    -49.04185739 Eh


Note: Only C1 symmetry has been detected, increase convergence thresholds 
      if your molecule has a higher symmetry. Symmetry factor of 1.0 is   
      used for the rotational entropy correction. 
 

Note: Rotational entropy computed according to Herzberg 
Infrared and Raman Spectra, Chapter V,1, Van Nostrand Reinhold, 1945 
Point Group:  C1, Symmetry Number:   1  
Rotational constants in cm-1:     0.026394     0.009777     0.007990 

Vibrational entropy computed according to the QRRHO of S. Grimme
Chem.Eur.J. 2012 18 9955


-------
ENTROPY
-------

The entropy contributions are T*S = T*(S(el)+S(vib)+S(rot)+S(trans))
     S(el)   - electronic entropy
     S(vib)  - vibrational entropy
     S(rot)  - rotational entropy
     S(trans)- translational entropy
The entropies will be listed as mutliplied by the temperature to get
units of energy

Electronic entropy                ...      0.00000000 Eh      0.00 kcal/mol
Vibrational entropy               ...      0.02441268 Eh     15.32 kcal/mol
Rotational entropy                ...      0.01569136 Eh      9.85 kcal/mol
Translational entropy             ...      0.01995728 Eh     12.52 kcal/mol
-----------------------------------------------------------------------
Final entropy term                ...      0.06006133 Eh     37.69 kcal/mol

In case the symmetry of your molecule has not been determined correctly
or in case you have a reason to use a different symmetry number we print 
out the resulting rotational entropy values for sn=1,12 :
 --------------------------------------------------------
|  sn= 1 | S(rot)=       0.01569136 Eh      9.85 kcal/mol|
|  sn= 2 | S(rot)=       0.01503691 Eh      9.44 kcal/mol|
|  sn= 3 | S(rot)=       0.01465407 Eh      9.20 kcal/mol|
|  sn= 4 | S(rot)=       0.01438245 Eh      9.03 kcal/mol|
|  sn= 5 | S(rot)=       0.01417176 Eh      8.89 kcal/mol|
|  sn= 6 | S(rot)=       0.01399962 Eh      8.78 kcal/mol|
|  sn= 7 | S(rot)=       0.01385407 Eh      8.69 kcal/mol|
|  sn= 8 | S(rot)=       0.01372799 Eh      8.61 kcal/mol|
|  sn= 9 | S(rot)=       0.01361678 Eh      8.54 kcal/mol|
|  sn=10 | S(rot)=       0.01351731 Eh      8.48 kcal/mol|
|  sn=11 | S(rot)=       0.01342732 Eh      8.43 kcal/mol|
|  sn=12 | S(rot)=       0.01334516 Eh      8.37 kcal/mol|
 --------------------------------------------------------


-------------------
GIBBS FREE ENERGY
-------------------

The Gibbs free energy is G = H - T*S

Total enthalpy                    ...    -49.04185739 Eh 
Total entropy correction          ...     -0.06006133 Eh    -37.69 kcal/mol
-----------------------------------------------------------------------
Final Gibbs free energy         ...    -49.10191871 Eh

For completeness - the Gibbs free energy minus the electronic energy
G-E(el)                           ...      0.25718518 Eh    161.39 kcal/mol


Total Time for Numerical Frequencies  :       104.128 sec
Time for Reference State(s)           :         0.199 sec
Time for Displacements                :        91.574 sec

Timings for individual modules:

Sum of individual times         ...        0.414 sec (=   0.007 min)
XTB module                      ...        0.414 sec (=   0.007 min) 100.0 %
                             ****ORCA TERMINATED NORMALLY****
TOTAL RUN TIME: 0 days 0 hours 1 minutes 45 seconds 350 msec
