(SLURM) JOB ID:         317

                                 *****************
                                 * O   R   C   A *
                                 *****************

           --- An Ab Initio, DFT and Semiempirical electronic structure package ---

                  #######################################################
                  #                        -***-                        #
                  #          Department of theory and spectroscopy      #
                  #               Directorship: Frank Neese             #
                  #        Max Planck Institute fuer Kohlenforschung    #
                  #                Kaiser Wilhelm Platz 1               #
                  #                 D-45470 Muelheim/Ruhr               #
                  #                      Germany                        #
                  #                                                     #
                  #                  All rights reserved                #
                  #                        -***-                        #
                  #######################################################


                         Program Version 4.2.1 -  RELEASE  -


 With contributions from (in alphabetic order):
   Daniel Aravena         : Magnetic Suceptibility
   Michael Atanasov       : Ab Initio Ligand Field Theory (pilot matlab implementation)
   Alexander A. Auer      : GIAO ZORA, VPT2
   Ute Becker             : Parallelization
   Giovanni Bistoni       : ED, misc. LED, open-shell LED, HFLD
   Martin Brehm           : Molecular dynamics
   Dmytro Bykov           : SCF Hessian
   Vijay G. Chilkuri      : MRCI spin determinant printing, contributions to CSF-ICE
   Dipayan Datta          : RHF DLPNO-CCSD density
   Achintya Kumar Dutta   : EOM-CC, STEOM-CC
   Dmitry Ganyushin       : Spin-Orbit,Spin-Spin,Magnetic field MRCI
   Miquel Garcia          : C-PCM Hessian, Gaussian charge scheme
   Yang Guo               : DLPNO-NEVPT2, CIM, IAO-localization
   Andreas Hansen         : Spin unrestricted coupled pair/coupled cluster methods
   Benjamin Helmich-Paris : CASSCF linear response (MC-RPA)
   Lee Huntington         : MR-EOM, pCC
   Robert Izsak           : Overlap fitted RIJCOSX, COSX-SCS-MP3, EOM
   Christian Kollmar      : KDIIS, OOCD, Brueckner-CCSD(T), CCSD density
   Simone Kossmann        : Meta GGA functionals, TD-DFT gradient, OOMP2, MP2 Hessian
   Martin Krupicka        : AUTO-CI
   Lucas Lang             : DCDCAS
   Dagmar Lenk            : GEPOL surface, SMD
   Dimitrios Liakos       : Extrapolation schemes; Compound Job, initial MDCI parallelization
   Dimitrios Manganas     : Further ROCIS development; embedding schemes
   Dimitrios Pantazis     : SARC Basis sets
   Taras Petrenko         : DFT Hessian,TD-DFT gradient, ASA, ECA, R-Raman, ABS, FL, XAS/XES, NRVS
   Peter Pinski           : DLPNO-MP2, DLPNO-MP2 Gradient
   Christoph Reimann      : Effective Core Potentials
   Marius Retegan         : Local ZFS, SOC
   Christoph Riplinger    : Optimizer, TS searches, QM/MM, DLPNO-CCSD(T), (RO)-DLPNO pert. Triples
   Tobias Risthaus        : Range-separated hybrids, TD-DFT gradient, RPA, STAB
   Michael Roemelt        : Original ROCIS implementation
   Masaaki Saitow         : Open-shell DLPNO-CCSD energy and density
   Barbara Sandhoefer     : DKH picture change effects
   Avijit Sen             : IP-ROCIS
   Kantharuban Sivalingam : CASSCF convergence, NEVPT2, FIC-MRCI
   Bernardo de Souza      : ESD, SOC TD-DFT
   Georgi Stoychev        : AutoAux, RI-MP2 NMR
   Willem Van den Heuvel  : Paramagnetic NMR
   Boris Wezisla          : Elementary symmetry handling
   Frank Wennmohs         : Technical directorship


 We gratefully acknowledge several colleagues who have allowed us to
 interface, adapt or use parts of their codes:
   Stefan Grimme, W. Hujo, H. Kruse,             : VdW corrections, initial TS optimization,
                  C. Bannwarth                     DFT functionals, gCP, sTDA/sTD-DF
   Ed Valeev, F. Pavosevic, A. Kumar             : LibInt (2-el integral package), F12 methods
   Garnet Chan, S. Sharma, J. Yang, R. Olivares  : DMRG
   Ulf Ekstrom                                   : XCFun DFT Library
   Mihaly Kallay                                 : mrcc  (arbitrary order and MRCC methods)
   Andreas Klamt, Michael Diedenhofen            : otool_cosmo (COSMO solvation model)
   Jiri Pittner, Ondrej Demel                    : Mk-CCSD
   Frank Weinhold                                : gennbo (NPA and NBO analysis)
   Christopher J. Cramer and Donald G. Truhlar   : smd solvation model
   Lars Goerigk                                  : TD-DFT with DH, B97 family of functionals
   V. Asgeirsson, H. Jonsson                     : NEB implementation
   FAccTs GmbH                                   : IRC, NEB, NEB-TS, Multilevel, MM, QM/MM, CI optimization
   S Lehtola, MJT Oliveira, MAL Marques          : LibXC Library


 Your calculation uses the libint2 library for the computation of 2-el integrals
 For citations please refer to: http://libint.valeyev.net

 Your ORCA version has been built with support for libXC version: 4.2.3
 For citations please refer to: https://tddft.org/programs/libxc/

 This ORCA versions uses:
   CBLAS   interface :  Fast vector & matrix operations
   LAPACKE interface :  Fast linear algebra routines
   SCALAPACK package :  Parallel linear algebra routines




***************************************
The coordinates will be read from file: init.xyz
***************************************


Your calculation utilizes the SMD solvation module
Please cite in your paper:
A.V. Marenich, C.J. Cramer, D.G. Truhlar J. Phys. Chem. B, 113, (2009), 6378 

Your calculation utilizes the semiempirical GFN2-xTB method
Please cite in your paper:
C. Bannwarth, Ehlert S., S. Grimme,  J. Chem. Theory Comput., 15, (2019), 1652.
   

----- Orbital basis set information -----
Your calculation utilizes the basis: def2-SVP
   F. Weigend and R. Ahlrichs, Phys. Chem. Chem. Phys. 7, 3297 (2005).

================================================================================
                                        WARNINGS
                       Please study these warnings very carefully!
================================================================================

WARNING: Gradients needed for Numerical Frequencies
  ===> : Setting RunTyp to EnGrad

WARNING: The environment variable RSH_COMMAND is not set!
  ===> : All Displacements for the Numerical Hessian calculation
         will be started on localhost

WARNING: Found dipole moment calculation with XTB calculation
  ===> : Switching off dipole moment calculation


INFO   : the flag for use of LIBINT has been found!

================================================================================
                                       INPUT FILE
================================================================================
NAME = /tmp/slurm-scratch/freq.317/freq.inp
|  1> ! XTB2 NumFreq
|  2> %maxcore 1450
|  3> 
|  4> * xyzfile 0 1 init.xyz
|  5> 
|  6> %cpcm
|  7>  smd true
|  8>  smdsolvent "ch2cl2"
|  9> end
| 10> %pal nprocs 8 end
| 11> 
| 12>                          ****END OF INPUT****
================================================================================

                     *******************************
                     * Energy+Gradient Calculation *
                     *******************************

      -----------------------------------------------------------      
     |                   =====================                   |     
     |                           x T B                           |     
     |                   =====================                   |     
     |                         S. Grimme                         |     
     |          Mulliken Center for Theoretical Chemistry        |     
     |                    University of Bonn                     |     
      -----------------------------------------------------------      

   * xtb version 6.3.0 (preview) compiled by 'ehlert@majestix' on 2020-01-15

   This program is distributed in the hope that it will be useful,
   but WITHOUT ANY WARRANTY; without even the implied warranty of
   MERCHANTABILITY or FITNESS FOR A PARTICULAR PURPOSE.
   
   FOR NON-COMMERCIAL, ACADEMIA USE ONLY.
   
   Cite this work as:
   * S. Grimme, C. Bannwarth, P. Shushkov, J. Chem. Theory Comput., 2017,
     13, 1989-2009. DOI: 10.1021/acs.jctc.7b00118
   * C. Bannwarth, S. Ehlert and S. Grimme., J. Chem. Theory Comput., 2019,
     15, 1652-1671. DOI: 10.1021/acs.jctc.8b01176
   * P. Pracht, E. Caldeweyher, S. Ehlert, S. Grimme, ChemRxiv, 2019, preprint.
     DOI: 10.26434/chemrxiv.8326202.v1
   * S. Grimme, S. Spicher unpublished
   
   for DFT-D4:
   * E. Caldeweyher, C. Bannwarth and S. Grimme, J. Chem. Phys., 2017,
     147, 034112. DOI: 10.1063/1.4993215
   * E. Caldeweyher, S. Ehlert, A. Hansen, H. Neugebauer, S. Spicher,
     C. Bannwarth and S. Grimme, J. Chem. Phys., 2019, 150, 154122.
     DOI: 10.1063/1.5090222
   
   for sTDA-xTB:
   * S. Grimme and C. Bannwarth, J. Chem. Phys., 2016, 145, 054103.
     DOI: 10.1063/1.4959605
   
   in the mass-spec context:
   * V. Asgeirsson, C. Bauer and S. Grimme, Chem. Sci., 2017, 8, 4879.
     DOI: 10.1039/c7sc00601b
   
   for metadynamics refer to:
   * S. Grimme, J. Chem. Theory Comput., 2019, 155, 2847-2862
     DOI: 10.1021/acs.jctc.9b00143
   
   with help from (in alphabetical order)
   C. Bannwarth, F. Bohle, G. Brandenburg, E. Caldeweyher, M. Checinski,
   S. Dohm, S. Ehlert, S. Ehrlich, F. März, H. Neugebauer, J. Pisarek,
   P. Pracht, P. Shushkov, and S. Spicher.
   
 * started run on 2020/11/21 at 12:47:08.308     

           -------------------------------------------------
          |                Calculation Setup                |
           -------------------------------------------------

          program call               : /opt/orca/otool_xtb /tmp/slurm-scratch/freq.317/freq_XTB.xyz --grad -c 0 -u 0 -P 8 --namespace /tmp/slurm-scratch/freq.317/freq --gbsa CH2Cl2
          hostname                   : headnode-pbs
          calculation namespace      : /tmp/slurm-scratch/freq.317/freq
          coordinate file            : /tmp/slurm-scratch/freq.317/freq_XTB.xyz
          omp threads                :                     8
          number of atoms            :                    33
          number of electrons        :                    80
          charge                     :                     0
          spin                       :                   0.0
          first test random number   :      0.35054935784857


molecular fragmentation (1/2 indicates fragments):
111111111111211111212222111111111
# atoms in fragment 1/2:    27     6
 fragment masses (1/2) :      161.24       36.03
CMA distance (Bohr)    :   7.143
constraining FC (au)   :  0.0500

########################################################################
# WARNING! Please study the warnings concerning your input carefully
#  - Process number higher than OMP_NUM_THREADS, I hope you know what you are doing.
########################################################################

           ------------------------------------------------- 
          |                 G F N 2 - x T B                 |
          | Geometry, Frequencies, Noncovalent interactions |
          |            JCTC 2019 parametrisation            |
           ------------------------------------------------- 
             k(s)              :                1.8500
             k(p)              :                2.2300
             k(d)              :                2.2300
             k(f)              :                2.0000
             kEN (H0ij)        :               -2.0000
             D4 a1             :                0.5200
             D4 a2             :                5.0000
             D4 s6             :                1.0000
             D4 s8             :                2.7000
             D4 s9             :                5.0000
             alphaj            :                2.0000

  Z AO/shell   Hii/eV     exponent
  1     Wed Apr 25 08:07:45 CEST 2018   EN: 2.200 GM2: 0.406  GM3: 0.0800  RAES: 1.40
     1s    -10.707211    1.230000
  6     Wed Apr 25 08:07:45 CEST 2018   EN: 2.550 GM2: 0.538  GM3: 0.1500  RAES: 3.00
     2s    -13.970922    2.096432
     2p    -10.063292    1.800000
  7     Wed Apr 25 08:07:45 CEST 2018   EN: 3.040 GM2: 0.461  GM3:-0.0640  RAES: 1.90
     2s    -16.686243    2.339881
     2p    -12.523956    2.014332
  8     Wed Apr 25 08:07:45 CEST 2018   EN: 3.440 GM2: 0.452  GM3:-0.0517  RAES: 1.80
     2s    -20.229985    2.439742
     2p    -15.503117    2.137023

 Solvent             : CH2Cl2
 Using internal parameter file: .param_gbsa2_CH2Cl2
 Gsolv ref. state (COSMO-RS): gsolv [1 M gas/solution]
 temperature (mdtemp)       :    298.150000000000     
 dielectric constant        :    8.93000000000000     
 rho                        :    1.33000000000000     
 mass                       :    84.9300000000000     
 surface tension            :    15.5689454083859     
 probe radius               :   0.719875900000000     
 Gshift (Eh)                :   4.440829173451759E-003
 c1                         :    1.49173776000000     
 soset                      :   0.000000000000000E+000
 HB correction              :  F
           ------------------------------------------------- 
          |        Self-Consistent Charge Iterations        |
           ------------------------------------------------- 

          ...................................................
          :                      SETUP                      :
          :.................................................:
          :  # basis functions                  75          :
          :  # atomic orbitals                  75          :
          :  # shells                           47          :
          :  # electrons                        80          :
          :  max. iterations                   250          :
          :  Hamiltonian                  GFN2-xTB          :
          :  GBSA solvation                   true          :
          :  PC potential                    false          :
          :  electronic temp.          300.0000000     K    :
          :  accuracy                    1.0000000          :
          :  -> integral cutoff          0.2500000E+02      :
          :  -> integral neglect         0.1000000E-07      :
          :  -> SCF convergence          0.1000000E-05 Eh   :
          :  -> wf. convergence          0.1000000E-03 e    :
          :  Broyden damping             0.4000000          :
          ...................................................
  Checking positiv definite overlap ...  done.
 

 iter      E             dE          RMSdq      gap      omega  full diag
   1    -44.8480996 -0.448481E+02  0.363E+00    3.27       0.0  T
   2    -44.8833319 -0.352324E-01  0.219E+00    3.35       1.0  T
   3    -44.8778346  0.549735E-02  0.792E-01    2.99       1.0  T
   4    -44.8868728 -0.903820E-02  0.324E-01    3.17       1.0  T
   5    -44.8886261 -0.175333E-02  0.695E-02    3.11       1.0  T
   6    -44.8886388 -0.126732E-04  0.345E-02    3.12       1.0  T
   7    -44.8886478 -0.904809E-05  0.161E-02    3.12       1.1  T
   8    -44.8886499 -0.206439E-05  0.405E-03    3.12       4.3  T
   9    -44.8886500 -0.144354E-06  0.179E-03    3.12       9.7  T
  10    -44.8886500 -0.461137E-08  0.989E-04    3.12      17.6  T
  11    -44.8886500 -0.107604E-07  0.293E-04    3.12      59.5  T

   *** convergence criteria satisfied after 11 iterations ***

         #    Occupation            Energy/Eh            Energy/eV
      -------------------------------------------------------------
         1        2.0000           -0.6777240             -18.4418
       ...           ...                  ...                  ...
        34        2.0000           -0.4320896             -11.7578
        35        2.0000           -0.4308410             -11.7238
        36        2.0000           -0.4257979             -11.5865
        37        2.0000           -0.4246603             -11.5556
        38        2.0000           -0.4113769             -11.1941
        39        2.0000           -0.4042960             -11.0015
        40        2.0000           -0.3932948             -10.7021 (HOMO)
        41                         -0.2786305              -7.5819 (LUMO)
        42                         -0.2309224              -6.2837
        43                         -0.1949084              -5.3037
        44                         -0.0916238              -2.4932
        45                          0.0170687               0.4645
       ...                                ...                  ...
        75                          0.6512185              17.7206
      -------------------------------------------------------------
                  HL-Gap            0.1146643 Eh            3.1202 eV
             Fermi-level           -0.3359627 Eh           -9.1420 eV

 SCC (total)                   0 d,  0 h,  0 min,  0.029 sec
 SCC setup                      ...        0 min,  0.001 sec (  3.475%)
 Dispersion                     ...        0 min,  0.000 sec (  1.176%)
 integral evaluation            ...        0 min,  0.005 sec ( 15.987%)
 zeroth order Hamiltonian       ...        0 min,  0.000 sec (  0.028%)
 iterations                     ...        0 min,  0.013 sec ( 46.163%)
 molecular gradient             ...        0 min,  0.009 sec ( 31.596%)
 printout                       ...        0 min,  0.000 sec (  1.434%)

         :::::::::::::::::::::::::::::::::::::::::::::::::::::
         ::                     SUMMARY                     ::
         :::::::::::::::::::::::::::::::::::::::::::::::::::::
         :: total energy             -44.280349693088 Eh    ::
         :: total w/o Gsasa/hb       -44.262232140335 Eh    ::
         :: gradient norm              0.025391248056 Eh/a0 ::
         :: HOMO-LUMO gap              3.120175169918 eV    ::
         ::.................................................::
         :: SCC energy               -44.906767601832 Eh    ::
         :: -> isotropic ES            0.083141802250 Eh    ::
         :: -> anisotropic ES         -0.002962614641 Eh    ::
         :: -> anisotropic XC          0.026749894372 Eh    ::
         :: -> dispersion             -0.024540086081 Eh    ::
         :: -> Gsolv                  -0.025571336771 Eh    ::
         ::    -> Gborn               -0.007453784018 Eh    ::
         ::    -> Gsasa               -0.022558381926 Eh    ::
         ::    -> Ghb                  0.000000000000 Eh    ::
         ::    -> Gshift               0.004440829173 Eh    ::
         :: repulsion energy           0.626431825751 Eh    ::
         :: add. restraining           0.000000000000 Eh    ::
         :::::::::::::::::::::::::::::::::::::::::::::::::::::

           -------------------------------------------------
          |                Property Printout                |
           -------------------------------------------------

    * Orbital Energies and Occupations

         #    Occupation            Energy/Eh            Energy/eV
      -------------------------------------------------------------
         1        2.0000           -0.6777240             -18.4418
       ...           ...                  ...                  ...
        28        2.0000           -0.4752545             -12.9323
        29        2.0000           -0.4645858             -12.6420
        30        2.0000           -0.4483211             -12.1994
        31        2.0000           -0.4434938             -12.0681
        32        2.0000           -0.4429182             -12.0524
        33        2.0000           -0.4390481             -11.9471
        34        2.0000           -0.4320896             -11.7578
        35        2.0000           -0.4308410             -11.7238
        36        2.0000           -0.4257979             -11.5865
        37        2.0000           -0.4246603             -11.5556
        38        2.0000           -0.4113769             -11.1941
        39        2.0000           -0.4042960             -11.0015
        40        2.0000           -0.3932948             -10.7021 (HOMO)
        41                         -0.2786305              -7.5819 (LUMO)
        42                         -0.2309224              -6.2837
        43                         -0.1949084              -5.3037
        44                         -0.0916238              -2.4932
        45                          0.0170687               0.4645
        46                          0.0457032               1.2436
        47                          0.0926997               2.5225
        48                          0.0998599               2.7173
        49                          0.1116952               3.0394
        50                          0.1193706               3.2482
        51                          0.1306108               3.5541
       ...                                ...                  ...
        75                          0.6512185              17.7206
      -------------------------------------------------------------
                  HL-Gap            0.1146643 Eh            3.1202 eV
             Fermi-level           -0.3359627 Eh           -9.1420 eV

     #   Z        covCN         q      C6AA      α(0)
     1   6 C      2.969     0.003    27.949     8.672
     2   6 C      2.923    -0.029    28.735     8.791
     3   6 C      2.913    -0.028    28.711     8.786
     4   6 C      2.916    -0.023    28.590     8.768
     5   6 C      2.914    -0.027    28.677     8.781
     6   6 C      2.918    -0.030    28.738     8.791
     7   6 C      2.856     0.079    26.232     8.395
     8   1 H      0.925     0.038     2.478     2.462
     9   1 H      0.926     0.067     2.115     2.274
    10   1 H      0.925     0.043     2.406     2.426
    11   7 N      1.825    -0.263    27.691     7.797
    12   6 C      3.765     0.018    20.309     6.423
    13   1 H      0.802     0.318     0.669     1.285
    14   6 C      3.802    -0.060    21.662     6.626
    15   1 H      0.924     0.013     2.838     2.634
    16   1 H      0.924     0.044     2.394     2.420
    17   1 H      0.924     0.051     2.307     2.375
    18   1 H      0.924     0.034     2.527     2.486
    19   8 O      1.608    -0.629    25.890     6.867
    20   1 H      0.924     0.008     2.918     2.671
    21   1 H      0.805     0.284     0.771     1.379
    22   8 O      1.606    -0.621    25.701     6.842
    23   1 H      0.803     0.314     0.682     1.297
    24   1 H      0.805     0.288     0.757     1.367
    25   1 H      0.925     0.041     2.430     2.438
    26   1 H      0.925     0.048     2.347     2.396
    27   6 C      3.800    -0.053    21.520     6.605
    28   1 H      0.924     0.034     2.537     2.491
    29   1 H      0.924     0.031     2.574     2.509
    30   6 C      3.750    -0.103    22.525     6.769
    31   1 H      0.924     0.037     2.487     2.466
    32   1 H      0.924     0.037     2.486     2.466
    33   1 H      0.924     0.035     2.518     2.481

 Mol. C6AA /au·bohr⁶  :       9601.981790
 Mol. C8AA /au·bohr⁸  :     214513.300053
 Mol. α(0) /au        :        151.236553


Wiberg/Mayer (AO) data.
largest (>0.10) Wiberg bond orders for each atom
          total WBO             WBO to atom ...
     1  C   3.988        C    2 1.376    C    6 1.365    C    7 1.088
     2  C   3.987        C    3 1.452    C    1 1.376    H    8 0.968    C    5 0.105
     3  C   3.991        C    2 1.452    C    4 1.436    H   25 0.970    C    6 0.106
     4  C   3.987        C    3 1.436    C    5 1.423    H   10 0.971
     5  C   3.991        C    6 1.465    C    4 1.423    H   26 0.969    C    2 0.105
     6  C   3.988        C    5 1.465    C    1 1.365    H    9 0.960    C    3 0.106
     7  C   3.967        N   11 1.827    C    1 1.088    H   20 0.941
     8  H   0.999        C    2 0.968
     9  H   0.995        C    6 0.960
    10  H   0.998        C    4 0.971
    11  N   3.119        C    7 1.827    C   12 1.018
    12  C   3.983        N   11 1.018    C   14 0.988    H   15 0.966    H   16 0.959
    13  H   0.899        O   22 0.831
    14  C   3.990        C   27 1.006    C   12 0.988    H   18 0.977    H   17 0.975
    15  H   1.000        C   12 0.966
    16  H   0.995        C   12 0.959
    17  H   0.997        C   14 0.975
    18  H   0.999        C   14 0.977
    19  O   1.802        H   21 0.918    H   23 0.855
    20  H   0.999        C    7 0.941
    21  H   0.919        O   19 0.918
    22  O   1.846        H   24 0.914    H   13 0.831
    23  H   0.902        O   19 0.855
    24  H   0.917        O   22 0.914
    25  H   0.998        C    3 0.970
    26  H   0.997        C    5 0.969
    27  C   3.996        C   30 1.019    C   14 1.006    H   29 0.978    H   28 0.978
    28  H   0.999        C   27 0.978
    29  H   0.999        C   27 0.978
    30  C   3.995        C   27 1.019    H   33 0.988    H   31 0.988    H   32 0.987
    31  H   0.999        C   30 0.988
    32  H   0.998        C   30 0.987
    33  H   0.999        C   30 0.988

molecular dipole:
                 x           y           z       tot (Debye)
 q only:        0.191      -1.461       0.183
   full:        0.199      -2.247       0.338       5.798
molecular quadrupole (traceless):
                xx          xy          yy          xz          yz          zz
 q only:       11.159       7.195     -13.200      -1.529       6.053       2.041
  q+dip:       12.393      11.041     -15.155      -0.504       3.507       2.762
   full:       11.140      11.173     -15.517      -1.182       6.388       4.378

           -------------------------------------------------
          |                Property Printout                |
           -------------------------------------------------

    * Orbital Energies and Occupations

         #    Occupation            Energy/Eh            Energy/eV
      -------------------------------------------------------------
         1        2.0000           -0.6777240             -18.4418
       ...           ...                  ...                  ...
        28        2.0000           -0.4752545             -12.9323
        29        2.0000           -0.4645858             -12.6420
        30        2.0000           -0.4483211             -12.1994
        31        2.0000           -0.4434938             -12.0681
        32        2.0000           -0.4429182             -12.0524
        33        2.0000           -0.4390481             -11.9471
        34        2.0000           -0.4320896             -11.7578
        35        2.0000           -0.4308410             -11.7238
        36        2.0000           -0.4257979             -11.5865
        37        2.0000           -0.4246603             -11.5556
        38        2.0000           -0.4113769             -11.1941
        39        2.0000           -0.4042960             -11.0015
        40        2.0000           -0.3932948             -10.7021 (HOMO)
        41                         -0.2786305              -7.5819 (LUMO)
        42                         -0.2309224              -6.2837
        43                         -0.1949084              -5.3037
        44                         -0.0916238              -2.4932
        45                          0.0170687               0.4645
        46                          0.0457032               1.2436
        47                          0.0926997               2.5225
        48                          0.0998599               2.7173
        49                          0.1116952               3.0394
        50                          0.1193706               3.2482
        51                          0.1306108               3.5541
       ...                                ...                  ...
        75                          0.6512185              17.7206
      -------------------------------------------------------------
                  HL-Gap            0.1146643 Eh            3.1202 eV
             Fermi-level           -0.3359627 Eh           -9.1420 eV

     #   Z        covCN         q      C6AA      α(0)
     1   6 C      2.969     0.003    27.949     8.672
     2   6 C      2.923    -0.029    28.735     8.791
     3   6 C      2.913    -0.028    28.711     8.786
     4   6 C      2.916    -0.023    28.590     8.768
     5   6 C      2.914    -0.027    28.677     8.781
     6   6 C      2.918    -0.030    28.738     8.791
     7   6 C      2.856     0.079    26.232     8.395
     8   1 H      0.925     0.038     2.478     2.462
     9   1 H      0.926     0.067     2.115     2.274
    10   1 H      0.925     0.043     2.406     2.426
    11   7 N      1.825    -0.263    27.691     7.797
    12   6 C      3.765     0.018    20.309     6.423
    13   1 H      0.802     0.318     0.669     1.285
    14   6 C      3.802    -0.060    21.662     6.626
    15   1 H      0.924     0.013     2.838     2.634
    16   1 H      0.924     0.044     2.394     2.420
    17   1 H      0.924     0.051     2.307     2.375
    18   1 H      0.924     0.034     2.527     2.486
    19   8 O      1.608    -0.629    25.890     6.867
    20   1 H      0.924     0.008     2.918     2.671
    21   1 H      0.805     0.284     0.771     1.379
    22   8 O      1.606    -0.621    25.701     6.842
    23   1 H      0.803     0.314     0.682     1.297
    24   1 H      0.805     0.288     0.757     1.367
    25   1 H      0.925     0.041     2.430     2.438
    26   1 H      0.925     0.048     2.347     2.396
    27   6 C      3.800    -0.053    21.520     6.605
    28   1 H      0.924     0.034     2.537     2.491
    29   1 H      0.924     0.031     2.574     2.509
    30   6 C      3.750    -0.103    22.525     6.769
    31   1 H      0.924     0.037     2.487     2.466
    32   1 H      0.924     0.037     2.486     2.466
    33   1 H      0.924     0.035     2.518     2.481

 Mol. C6AA /au·bohr⁶  :       9601.981790
 Mol. C8AA /au·bohr⁸  :     214513.300053
 Mol. α(0) /au        :        151.236553


Wiberg/Mayer (AO) data.
largest (>0.10) Wiberg bond orders for each atom
          total WBO             WBO to atom ...
     1  C   3.988        C    2 1.376    C    6 1.365    C    7 1.088
     2  C   3.987        C    3 1.452    C    1 1.376    H    8 0.968    C    5 0.105
     3  C   3.991        C    2 1.452    C    4 1.436    H   25 0.970    C    6 0.106
     4  C   3.987        C    3 1.436    C    5 1.423    H   10 0.971
     5  C   3.991        C    6 1.465    C    4 1.423    H   26 0.969    C    2 0.105
     6  C   3.988        C    5 1.465    C    1 1.365    H    9 0.960    C    3 0.106
     7  C   3.967        N   11 1.827    C    1 1.088    H   20 0.941
     8  H   0.999        C    2 0.968
     9  H   0.995        C    6 0.960
    10  H   0.998        C    4 0.971
    11  N   3.119        C    7 1.827    C   12 1.018
    12  C   3.983        N   11 1.018    C   14 0.988    H   15 0.966    H   16 0.959
    13  H   0.899        O   22 0.831
    14  C   3.990        C   27 1.006    C   12 0.988    H   18 0.977    H   17 0.975
    15  H   1.000        C   12 0.966
    16  H   0.995        C   12 0.959
    17  H   0.997        C   14 0.975
    18  H   0.999        C   14 0.977
    19  O   1.802        H   21 0.918    H   23 0.855
    20  H   0.999        C    7 0.941
    21  H   0.919        O   19 0.918
    22  O   1.846        H   24 0.914    H   13 0.831
    23  H   0.902        O   19 0.855
    24  H   0.917        O   22 0.914
    25  H   0.998        C    3 0.970
    26  H   0.997        C    5 0.969
    27  C   3.996        C   30 1.019    C   14 1.006    H   29 0.978    H   28 0.978
    28  H   0.999        C   27 0.978
    29  H   0.999        C   27 0.978
    30  C   3.995        C   27 1.019    H   33 0.988    H   31 0.988    H   32 0.987
    31  H   0.999        C   30 0.988
    32  H   0.998        C   30 0.987
    33  H   0.999        C   30 0.988

molecular dipole:
                 x           y           z       tot (Debye)
 q only:        0.191      -1.461       0.183
   full:        0.199      -2.247       0.338       5.798
molecular quadrupole (traceless):
                xx          xy          yy          xz          yz          zz
 q only:       11.159       7.195     -13.200      -1.529       6.053       2.041
  q+dip:       12.393      11.041     -15.155      -0.504       3.507       2.762
   full:       11.140      11.173     -15.517      -1.182       6.388       4.378


           -------------------------------------------------
          | TOTAL ENERGY              -44.280349693088 Eh   |
          | GRADIENT NORM               0.025391248056 Eh/α |
          | HOMO-LUMO GAP               3.120175169918 eV   |
           -------------------------------------------------

------------------------------------------------------------------------
 * finished run on 2020/11/21 at 12:47:08.378     
------------------------------------------------------------------------
 total:
 * wall-time:     0 d,  0 h,  0 min,  0.071 sec
 *  cpu-time:     0 d,  0 h,  0 min,  0.554 sec
 * ratio c/w:     7.846 speedup
 SCF:
 * wall-time:     0 d,  0 h,  0 min,  0.029 sec
 *  cpu-time:     0 d,  0 h,  0 min,  0.238 sec
 * ratio c/w:     8.193 speedup


-------------------------   --------------------
FINAL SINGLE POINT ENERGY       -44.280349693090
-------------------------   --------------------


----------------------------------------------------------------------------
                           ORCA NUMERICAL FREQUENCIES
                              (8-process run)
----------------------------------------------------------------------------

Number of atoms                ... 33
Central differences            ... used
Number of displacements        ... 198
Numerical increment            ... 5.000e-03 bohr
IR-spectrum generation         ... on
Raman-spectrum generation      ... off
Surface Crossing Hessian       ... off
List of participating nodes    ...  /tmp/slurm-scratch/freq.317/freq.hostnames

The output will be reduced. Please look at the following files:
SCF program output             ... >/tmp/slurm-scratch/freq.317/freq.lastscf
Integral program output        ... >/tmp/slurm-scratch/freq.317/freq.lastint
Gradient program output        ... >/tmp/slurm-scratch/freq.317/freq.lastgrad
Dipole moment program output   ... >/tmp/slurm-scratch/freq.317/freq.lastmom
AutoCI program output          ... >/tmp/slurm-scratch/freq.317/freq.lastautoci


         <<< Energy and Gradient at the input geometry >>>

        <<< Energy and Gradient at displaced geometries >>>
             <<<Displacing   3/coordinate 1 (+)>>>
             <<<Displacing   2/coordinate 3 (+)>>>
             <<<Displacing   3/coordinate 1 (-)>>>
             <<<Displacing   1/coordinate 1 (+)>>>
             <<<Displacing   2/coordinate 1 (+)>>>
             <<<Displacing   2/coordinate 2 (+)>>>
             <<<Displacing   2/coordinate 3 (-)>>>
             <<<Displacing   1/coordinate 1 (-)>>>
             <<<Displacing   2/coordinate 1 (-)>>>
             <<<Displacing   3/coordinate 2 (+)>>>
             <<<Displacing   2/coordinate 2 (-)>>>
             <<<Displacing   3/coordinate 2 (-)>>>
             <<<Displacing   1/coordinate 3 (+)>>>
             <<<Displacing   1/coordinate 2 (+)>>>
             <<<Displacing   1/coordinate 3 (-)>>>
             <<<Displacing   1/coordinate 2 (-)>>>
             <<<Displacing   3/coordinate 3 (+)>>>
             <<<Displacing   3/coordinate 3 (-)>>>
             <<<Displacing   4/coordinate 2 (+)>>>
             <<<Displacing   4/coordinate 2 (-)>>>
             <<<Displacing   5/coordinate 1 (+)>>>
             <<<Displacing   4/coordinate 1 (+)>>>
             <<<Displacing   5/coordinate 1 (-)>>>
             <<<Displacing   5/coordinate 2 (+)>>>
             <<<Displacing   4/coordinate 3 (+)>>>
             <<<Displacing   4/coordinate 1 (-)>>>
             <<<Displacing   5/coordinate 2 (-)>>>
             <<<Displacing   4/coordinate 3 (-)>>>
             <<<Displacing   5/coordinate 3 (+)>>>
             <<<Displacing   5/coordinate 3 (-)>>>
             <<<Displacing   6/coordinate 1 (+)>>>
             <<<Displacing   6/coordinate 1 (-)>>>
             <<<Displacing   6/coordinate 2 (+)>>>
             <<<Displacing   6/coordinate 2 (-)>>>
             <<<Displacing   7/coordinate 1 (+)>>>
             <<<Displacing   6/coordinate 3 (+)>>>
             <<<Displacing   7/coordinate 1 (-)>>>
             <<<Displacing   8/coordinate 1 (+)>>>
             <<<Displacing   6/coordinate 3 (-)>>>
             <<<Displacing   8/coordinate 1 (-)>>>
             <<<Displacing   7/coordinate 3 (+)>>>
             <<<Displacing   8/coordinate 2 (+)>>>
             <<<Displacing   7/coordinate 3 (-)>>>
             <<<Displacing   7/coordinate 2 (+)>>>
             <<<Displacing   8/coordinate 2 (-)>>>
             <<<Displacing   7/coordinate 2 (-)>>>
             <<<Displacing   8/coordinate 3 (+)>>>
             <<<Displacing   8/coordinate 3 (-)>>>
             <<<Displacing   9/coordinate 1 (+)>>>
             <<<Displacing   9/coordinate 1 (-)>>>
             <<<Displacing   9/coordinate 3 (+)>>>
             <<<Displacing   9/coordinate 2 (+)>>>
             <<<Displacing   9/coordinate 3 (-)>>>
             <<<Displacing   9/coordinate 2 (-)>>>
             <<<Displacing  10/coordinate 1 (+)>>>
             <<<Displacing  10/coordinate 1 (-)>>>
             <<<Displacing  10/coordinate 3 (+)>>>
             <<<Displacing  10/coordinate 2 (+)>>>
             <<<Displacing  10/coordinate 3 (-)>>>
             <<<Displacing  11/coordinate 1 (+)>>>
             <<<Displacing  10/coordinate 2 (-)>>>
             <<<Displacing  11/coordinate 1 (-)>>>
             <<<Displacing  11/coordinate 2 (+)>>>
             <<<Displacing  11/coordinate 2 (-)>>>
             <<<Displacing  11/coordinate 3 (+)>>>
             <<<Displacing  11/coordinate 3 (-)>>>
             <<<Displacing  12/coordinate 1 (+)>>>
             <<<Displacing  12/coordinate 2 (+)>>>
             <<<Displacing  12/coordinate 1 (-)>>>
             <<<Displacing  12/coordinate 2 (-)>>>
             <<<Displacing  13/coordinate 1 (+)>>>
             <<<Displacing  13/coordinate 1 (-)>>>
             <<<Displacing  13/coordinate 3 (+)>>>
             <<<Displacing  13/coordinate 2 (+)>>>
             <<<Displacing  12/coordinate 3 (+)>>>
             <<<Displacing  14/coordinate 1 (+)>>>
             <<<Displacing  13/coordinate 3 (-)>>>
             <<<Displacing  13/coordinate 2 (-)>>>
             <<<Displacing  12/coordinate 3 (-)>>>
             <<<Displacing  14/coordinate 1 (-)>>>
             <<<Displacing  14/coordinate 2 (+)>>>
             <<<Displacing  14/coordinate 3 (+)>>>
             <<<Displacing  15/coordinate 1 (+)>>>
             <<<Displacing  14/coordinate 2 (-)>>>
             <<<Displacing  14/coordinate 3 (-)>>>
             <<<Displacing  15/coordinate 1 (-)>>>
             <<<Displacing  15/coordinate 3 (+)>>>
             <<<Displacing  15/coordinate 3 (-)>>>
             <<<Displacing  16/coordinate 1 (+)>>>
             <<<Displacing  16/coordinate 2 (+)>>>
             <<<Displacing  16/coordinate 1 (-)>>>
             <<<Displacing  15/coordinate 2 (+)>>>
             <<<Displacing  16/coordinate 2 (-)>>>
             <<<Displacing  15/coordinate 2 (-)>>>
             <<<Displacing  16/coordinate 3 (+)>>>
             <<<Displacing  16/coordinate 3 (-)>>>
             <<<Displacing  17/coordinate 2 (+)>>>
             <<<Displacing  17/coordinate 2 (-)>>>
             <<<Displacing  17/coordinate 3 (+)>>>
             <<<Displacing  17/coordinate 3 (-)>>>
             <<<Displacing  17/coordinate 1 (+)>>>
             <<<Displacing  17/coordinate 1 (-)>>>
             <<<Displacing  18/coordinate 1 (+)>>>
             <<<Displacing  18/coordinate 2 (+)>>>
             <<<Displacing  18/coordinate 1 (-)>>>
             <<<Displacing  18/coordinate 2 (-)>>>
             <<<Displacing  19/coordinate 2 (+)>>>
             <<<Displacing  18/coordinate 3 (+)>>>
             <<<Displacing  19/coordinate 2 (-)>>>
             <<<Displacing  19/coordinate 1 (+)>>>
             <<<Displacing  18/coordinate 3 (-)>>>
             <<<Displacing  19/coordinate 1 (-)>>>
             <<<Displacing  19/coordinate 3 (+)>>>
             <<<Displacing  19/coordinate 3 (-)>>>
             <<<Displacing  20/coordinate 1 (+)>>>
             <<<Displacing  20/coordinate 1 (-)>>>
             <<<Displacing  20/coordinate 2 (+)>>>
             <<<Displacing  20/coordinate 2 (-)>>>
             <<<Displacing  21/coordinate 1 (+)>>>
             <<<Displacing  21/coordinate 1 (-)>>>
             <<<Displacing  20/coordinate 3 (+)>>>
             <<<Displacing  20/coordinate 3 (-)>>>
             <<<Displacing  22/coordinate 1 (+)>>>
             <<<Displacing  21/coordinate 3 (+)>>>
             <<<Displacing  22/coordinate 1 (-)>>>
             <<<Displacing  21/coordinate 3 (-)>>>
             <<<Displacing  21/coordinate 2 (+)>>>
             <<<Displacing  21/coordinate 2 (-)>>>
             <<<Displacing  22/coordinate 2 (+)>>>
             <<<Displacing  22/coordinate 2 (-)>>>
             <<<Displacing  22/coordinate 3 (+)>>>
             <<<Displacing  22/coordinate 3 (-)>>>
             <<<Displacing  23/coordinate 1 (+)>>>
             <<<Displacing  23/coordinate 2 (+)>>>
             <<<Displacing  23/coordinate 1 (-)>>>
             <<<Displacing  23/coordinate 2 (-)>>>
             <<<Displacing  23/coordinate 3 (+)>>>
             <<<Displacing  23/coordinate 3 (-)>>>
             <<<Displacing  24/coordinate 2 (+)>>>
             <<<Displacing  24/coordinate 3 (+)>>>
             <<<Displacing  24/coordinate 3 (-)>>>
             <<<Displacing  24/coordinate 2 (-)>>>
             <<<Displacing  24/coordinate 1 (+)>>>
             <<<Displacing  24/coordinate 1 (-)>>>
             <<<Displacing  25/coordinate 1 (+)>>>
             <<<Displacing  25/coordinate 1 (-)>>>
             <<<Displacing  25/coordinate 2 (+)>>>
             <<<Displacing  25/coordinate 2 (-)>>>
             <<<Displacing  25/coordinate 3 (+)>>>
             <<<Displacing  25/coordinate 3 (-)>>>
             <<<Displacing  26/coordinate 1 (+)>>>
             <<<Displacing  26/coordinate 1 (-)>>>
             <<<Displacing  26/coordinate 2 (+)>>>
             <<<Displacing  26/coordinate 2 (-)>>>
             <<<Displacing  27/coordinate 1 (+)>>>
             <<<Displacing  26/coordinate 3 (+)>>>
             <<<Displacing  27/coordinate 1 (-)>>>
             <<<Displacing  26/coordinate 3 (-)>>>
             <<<Displacing  27/coordinate 2 (+)>>>
             <<<Displacing  27/coordinate 2 (-)>>>
             <<<Displacing  28/coordinate 1 (+)>>>
             <<<Displacing  28/coordinate 1 (-)>>>
             <<<Displacing  27/coordinate 3 (+)>>>
             <<<Displacing  27/coordinate 3 (-)>>>
             <<<Displacing  28/coordinate 2 (+)>>>
             <<<Displacing  28/coordinate 3 (+)>>>
             <<<Displacing  28/coordinate 2 (-)>>>
             <<<Displacing  28/coordinate 3 (-)>>>
             <<<Displacing  29/coordinate 1 (+)>>>
             <<<Displacing  29/coordinate 3 (+)>>>
             <<<Displacing  29/coordinate 1 (-)>>>
             <<<Displacing  29/coordinate 2 (+)>>>
             <<<Displacing  29/coordinate 3 (-)>>>
             <<<Displacing  29/coordinate 2 (-)>>>
             <<<Displacing  30/coordinate 1 (+)>>>
             <<<Displacing  30/coordinate 1 (-)>>>
             <<<Displacing  30/coordinate 2 (+)>>>
             <<<Displacing  30/coordinate 2 (-)>>>
             <<<Displacing  30/coordinate 3 (+)>>>
             <<<Displacing  30/coordinate 3 (-)>>>
             <<<Displacing  31/coordinate 1 (+)>>>
             <<<Displacing  31/coordinate 2 (+)>>>
             <<<Displacing  31/coordinate 1 (-)>>>
             <<<Displacing  31/coordinate 2 (-)>>>
             <<<Displacing  31/coordinate 3 (+)>>>
             <<<Displacing  31/coordinate 3 (-)>>>
             <<<Displacing  32/coordinate 1 (+)>>>
             <<<Displacing  32/coordinate 1 (-)>>>
             <<<Displacing  32/coordinate 3 (+)>>>
             <<<Displacing  32/coordinate 2 (+)>>>
             <<<Displacing  32/coordinate 3 (-)>>>
             <<<Displacing  32/coordinate 2 (-)>>>
             <<<Displacing  33/coordinate 1 (+)>>>
             <<<Displacing  33/coordinate 1 (-)>>>
             <<<Displacing  33/coordinate 2 (+)>>>
             <<<Displacing  33/coordinate 2 (-)>>>
             <<<Displacing  33/coordinate 3 (+)>>>
             <<<Displacing  33/coordinate 3 (-)>>>

-----------------------
VIBRATIONAL FREQUENCIES
-----------------------

Scaling factor for frequencies =  1.000000000 (already applied!)

   0:         0.00 cm**-1
   1:         0.00 cm**-1
   2:         0.00 cm**-1
   3:         0.00 cm**-1
   4:         0.00 cm**-1
   5:         0.00 cm**-1
   6:       -22.25 cm**-1 ***imaginary mode***
   7:        35.09 cm**-1
   8:        41.60 cm**-1
   9:        51.24 cm**-1
  10:        64.55 cm**-1
  11:        71.04 cm**-1
  12:        72.87 cm**-1
  13:       107.62 cm**-1
  14:       118.95 cm**-1
  15:       140.71 cm**-1
  16:       156.91 cm**-1
  17:       160.62 cm**-1
  18:       220.49 cm**-1
  19:       227.92 cm**-1
  20:       266.80 cm**-1
  21:       274.04 cm**-1
  22:       281.83 cm**-1
  23:       302.77 cm**-1
  24:       377.18 cm**-1
  25:       385.44 cm**-1
  26:       404.88 cm**-1
  27:       428.45 cm**-1
  28:       456.38 cm**-1
  29:       471.28 cm**-1
  30:       507.68 cm**-1
  31:       588.39 cm**-1
  32:       622.32 cm**-1
  33:       640.32 cm**-1
  34:       664.42 cm**-1
  35:       708.11 cm**-1
  36:       754.50 cm**-1
  37:       768.87 cm**-1
  38:       824.33 cm**-1
  39:       859.40 cm**-1
  40:       872.79 cm**-1
  41:       902.17 cm**-1
  42:       915.90 cm**-1
  43:       928.30 cm**-1
  44:       938.78 cm**-1
  45:       943.46 cm**-1
  46:       951.52 cm**-1
  47:       984.18 cm**-1
  48:      1021.46 cm**-1
  49:      1066.87 cm**-1
  50:      1070.71 cm**-1
  51:      1100.59 cm**-1
  52:      1114.40 cm**-1
  53:      1125.00 cm**-1
  54:      1143.99 cm**-1
  55:      1176.44 cm**-1
  56:      1184.21 cm**-1
  57:      1209.68 cm**-1
  58:      1218.69 cm**-1
  59:      1256.03 cm**-1
  60:      1267.01 cm**-1
  61:      1274.12 cm**-1
  62:      1276.07 cm**-1
  63:      1296.13 cm**-1
  64:      1324.75 cm**-1
  65:      1358.49 cm**-1
  66:      1369.38 cm**-1
  67:      1421.93 cm**-1
  68:      1428.02 cm**-1
  69:      1453.47 cm**-1
  70:      1470.72 cm**-1
  71:      1497.86 cm**-1
  72:      1503.35 cm**-1
  73:      1506.62 cm**-1
  74:      1511.26 cm**-1
  75:      1535.93 cm**-1
  76:      1557.82 cm**-1
  77:      1560.38 cm**-1
  78:      1566.71 cm**-1
  79:      1665.42 cm**-1
  80:      2882.44 cm**-1
  81:      2898.86 cm**-1
  82:      2941.50 cm**-1
  83:      2943.95 cm**-1
  84:      2958.82 cm**-1
  85:      2966.30 cm**-1
  86:      2980.25 cm**-1
  87:      2981.06 cm**-1
  88:      2986.79 cm**-1
  89:      2996.95 cm**-1
  90:      3019.04 cm**-1
  91:      3050.44 cm**-1
  92:      3058.75 cm**-1
  93:      3065.85 cm**-1
  94:      3074.12 cm**-1
  95:      3116.42 cm**-1
  96:      3281.59 cm**-1
  97:      3570.38 cm**-1
  98:      3591.65 cm**-1


------------
NORMAL MODES
------------

These modes are the cartesian displacements weighted by the diagonal matrix
M(i,i)=1/sqrt(m[i]) where m[i] is the mass of the displaced atom
Thus, these vectors are normalized but *not* orthogonal

                  0          1          2          3          4          5    
      0       0.000000   0.000000   0.000000   0.000000   0.000000   0.000000
      1       0.000000   0.000000   0.000000   0.000000   0.000000   0.000000
      2       0.000000   0.000000   0.000000   0.000000   0.000000   0.000000
      3       0.000000   0.000000   0.000000   0.000000   0.000000   0.000000
      4       0.000000   0.000000   0.000000   0.000000   0.000000   0.000000
      5       0.000000   0.000000   0.000000   0.000000   0.000000   0.000000
      6       0.000000   0.000000   0.000000   0.000000   0.000000   0.000000
      7       0.000000   0.000000   0.000000   0.000000   0.000000   0.000000
      8       0.000000   0.000000   0.000000   0.000000   0.000000   0.000000
      9       0.000000   0.000000   0.000000   0.000000   0.000000   0.000000
     10       0.000000   0.000000   0.000000   0.000000   0.000000   0.000000
     11       0.000000   0.000000   0.000000   0.000000   0.000000   0.000000
     12       0.000000   0.000000   0.000000   0.000000   0.000000   0.000000
     13       0.000000   0.000000   0.000000   0.000000   0.000000   0.000000
     14       0.000000   0.000000   0.000000   0.000000   0.000000   0.000000
     15       0.000000   0.000000   0.000000   0.000000   0.000000   0.000000
     16       0.000000   0.000000   0.000000   0.000000   0.000000   0.000000
     17       0.000000   0.000000   0.000000   0.000000   0.000000   0.000000
     18       0.000000   0.000000   0.000000   0.000000   0.000000   0.000000
     19       0.000000   0.000000   0.000000   0.000000   0.000000   0.000000
     20       0.000000   0.000000   0.000000   0.000000   0.000000   0.000000
     21       0.000000   0.000000   0.000000   0.000000   0.000000   0.000000
     22       0.000000   0.000000   0.000000   0.000000   0.000000   0.000000
     23       0.000000   0.000000   0.000000   0.000000   0.000000   0.000000
     24       0.000000   0.000000   0.000000   0.000000   0.000000   0.000000
     25       0.000000   0.000000   0.000000   0.000000   0.000000   0.000000
     26       0.000000   0.000000   0.000000   0.000000   0.000000   0.000000
     27       0.000000   0.000000   0.000000   0.000000   0.000000   0.000000
     28       0.000000   0.000000   0.000000   0.000000   0.000000   0.000000
     29       0.000000   0.000000   0.000000   0.000000   0.000000   0.000000
     30       0.000000   0.000000   0.000000   0.000000   0.000000   0.000000
     31       0.000000   0.000000   0.000000   0.000000   0.000000   0.000000
     32       0.000000   0.000000   0.000000   0.000000   0.000000   0.000000
     33       0.000000   0.000000   0.000000   0.000000   0.000000   0.000000
     34       0.000000   0.000000   0.000000   0.000000   0.000000   0.000000
     35       0.000000   0.000000   0.000000   0.000000   0.000000   0.000000
     36       0.000000   0.000000   0.000000   0.000000   0.000000   0.000000
     37       0.000000   0.000000   0.000000   0.000000   0.000000   0.000000
     38       0.000000   0.000000   0.000000   0.000000   0.000000   0.000000
     39       0.000000   0.000000   0.000000   0.000000   0.000000   0.000000
     40       0.000000   0.000000   0.000000   0.000000   0.000000   0.000000
     41       0.000000   0.000000   0.000000   0.000000   0.000000   0.000000
     42       0.000000   0.000000   0.000000   0.000000   0.000000   0.000000
     43       0.000000   0.000000   0.000000   0.000000   0.000000   0.000000
     44       0.000000   0.000000   0.000000   0.000000   0.000000   0.000000
     45       0.000000   0.000000   0.000000   0.000000   0.000000   0.000000
     46       0.000000   0.000000   0.000000   0.000000   0.000000   0.000000
     47       0.000000   0.000000   0.000000   0.000000   0.000000   0.000000
     48       0.000000   0.000000   0.000000   0.000000   0.000000   0.000000
     49       0.000000   0.000000   0.000000   0.000000   0.000000   0.000000
     50       0.000000   0.000000   0.000000   0.000000   0.000000   0.000000
     51       0.000000   0.000000   0.000000   0.000000   0.000000   0.000000
     52       0.000000   0.000000   0.000000   0.000000   0.000000   0.000000
     53       0.000000   0.000000   0.000000   0.000000   0.000000   0.000000
     54       0.000000   0.000000   0.000000   0.000000   0.000000   0.000000
     55       0.000000   0.000000   0.000000   0.000000   0.000000   0.000000
     56       0.000000   0.000000   0.000000   0.000000   0.000000   0.000000
     57       0.000000   0.000000   0.000000   0.000000   0.000000   0.000000
     58       0.000000   0.000000   0.000000   0.000000   0.000000   0.000000
     59       0.000000   0.000000   0.000000   0.000000   0.000000   0.000000
     60       0.000000   0.000000   0.000000   0.000000   0.000000   0.000000
     61       0.000000   0.000000   0.000000   0.000000   0.000000   0.000000
     62       0.000000   0.000000   0.000000   0.000000   0.000000   0.000000
     63       0.000000   0.000000   0.000000   0.000000   0.000000   0.000000
     64       0.000000   0.000000   0.000000   0.000000   0.000000   0.000000
     65       0.000000   0.000000   0.000000   0.000000   0.000000   0.000000
     66       0.000000   0.000000   0.000000   0.000000   0.000000   0.000000
     67       0.000000   0.000000   0.000000   0.000000   0.000000   0.000000
     68       0.000000   0.000000   0.000000   0.000000   0.000000   0.000000
     69       0.000000   0.000000   0.000000   0.000000   0.000000   0.000000
     70       0.000000   0.000000   0.000000   0.000000   0.000000   0.000000
     71       0.000000   0.000000   0.000000   0.000000   0.000000   0.000000
     72       0.000000   0.000000   0.000000   0.000000   0.000000   0.000000
     73       0.000000   0.000000   0.000000   0.000000   0.000000   0.000000
     74       0.000000   0.000000   0.000000   0.000000   0.000000   0.000000
     75       0.000000   0.000000   0.000000   0.000000   0.000000   0.000000
     76       0.000000   0.000000   0.000000   0.000000   0.000000   0.000000
     77       0.000000   0.000000   0.000000   0.000000   0.000000   0.000000
     78       0.000000   0.000000   0.000000   0.000000   0.000000   0.000000
     79       0.000000   0.000000   0.000000   0.000000   0.000000   0.000000
     80       0.000000   0.000000   0.000000   0.000000   0.000000   0.000000
     81       0.000000   0.000000   0.000000   0.000000   0.000000   0.000000
     82       0.000000   0.000000   0.000000   0.000000   0.000000   0.000000
     83       0.000000   0.000000   0.000000   0.000000   0.000000   0.000000
     84       0.000000   0.000000   0.000000   0.000000   0.000000   0.000000
     85       0.000000   0.000000   0.000000   0.000000   0.000000   0.000000
     86       0.000000   0.000000   0.000000   0.000000   0.000000   0.000000
     87       0.000000   0.000000   0.000000   0.000000   0.000000   0.000000
     88       0.000000   0.000000   0.000000   0.000000   0.000000   0.000000
     89       0.000000   0.000000   0.000000   0.000000   0.000000   0.000000
     90       0.000000   0.000000   0.000000   0.000000   0.000000   0.000000
     91       0.000000   0.000000   0.000000   0.000000   0.000000   0.000000
     92       0.000000   0.000000   0.000000   0.000000   0.000000   0.000000
     93       0.000000   0.000000   0.000000   0.000000   0.000000   0.000000
     94       0.000000   0.000000   0.000000   0.000000   0.000000   0.000000
     95       0.000000   0.000000   0.000000   0.000000   0.000000   0.000000
     96       0.000000   0.000000   0.000000   0.000000   0.000000   0.000000
     97       0.000000   0.000000   0.000000   0.000000   0.000000   0.000000
     98       0.000000   0.000000   0.000000   0.000000   0.000000   0.000000
                  6          7          8          9         10         11    
      0      -0.034714   0.016214  -0.045000  -0.023884  -0.000179  -0.010753
      1       0.026859   0.022439   0.018756   0.007514   0.003083  -0.068000
      2      -0.009351   0.004261  -0.005847   0.015372  -0.027321  -0.020647
      3      -0.038736   0.031318  -0.038000  -0.035223  -0.022073   0.008469
      4       0.007274  -0.010431  -0.003737   0.025712   0.009791  -0.090162
      5      -0.030456  -0.087432  -0.060887   0.075572   0.041496  -0.107622
      6      -0.036264   0.021583  -0.043120  -0.026818  -0.007546  -0.005273
      7       0.017320  -0.016004   0.006776  -0.008581   0.000317  -0.014624
      8      -0.004024  -0.139045  -0.066130   0.057616   0.090900  -0.044793
      9      -0.029805  -0.002555  -0.055568  -0.006010   0.028446  -0.039444
     10       0.044819   0.010852   0.041679  -0.061417  -0.014718   0.087561
     11       0.041878  -0.100724  -0.012224  -0.023519   0.074092   0.113617
     12      -0.026126  -0.017210  -0.063006   0.006404   0.050173  -0.059616
     13       0.064743   0.041855   0.064230  -0.078151  -0.021235   0.102563
     14       0.064480  -0.011948   0.044191  -0.082646   0.006918   0.189964
     15      -0.028360  -0.007895  -0.058106  -0.002078   0.035502  -0.045922
     16       0.057503   0.048421   0.052678  -0.044016  -0.013133   0.023537
     17       0.042194   0.041627   0.047349  -0.064217  -0.044541   0.120093
     18      -0.039342   0.027611  -0.040530  -0.028262  -0.013710   0.002319
     19       0.012004   0.024786   0.013515   0.029840   0.018460  -0.114905
     20      -0.053210   0.056063   0.003550   0.034007  -0.061119  -0.045632
     21      -0.043388   0.050507  -0.028468  -0.051034  -0.050744   0.034107
     22      -0.015468  -0.032080  -0.030013   0.065964   0.022990  -0.164745
     23      -0.068285  -0.118302  -0.101346   0.137287   0.056600  -0.222848
     24      -0.026201  -0.019201  -0.065224   0.010966   0.050761  -0.060669
     25       0.072882   0.076030   0.072248  -0.056192  -0.019696   0.035653
     26       0.063285   0.117690   0.099028  -0.117130  -0.095062   0.176629
     27      -0.027880  -0.010053  -0.059392   0.000455   0.039600  -0.050201
     28       0.050246   0.007141   0.051174  -0.088299  -0.020628   0.151019
     29       0.059415  -0.139923  -0.013492  -0.039357   0.113602   0.171123
     30      -0.031800   0.010731  -0.043237  -0.031539  -0.004308  -0.002695
     31       0.046524   0.010582  -0.015184   0.021125   0.008605  -0.110179
     32      -0.035001   0.084261  -0.020884   0.031543  -0.098077  -0.024934
     33      -0.041754   0.031174  -0.035325  -0.021142  -0.005366  -0.003717
     34       0.029850  -0.007912  -0.007881   0.004046   0.018385  -0.085968
     35      -0.089215   0.117754   0.012873   0.039921  -0.083814   0.002005
     36      -0.015838   0.000113   0.034605   0.104207  -0.083876   0.072169
     37       0.108164   0.035287  -0.123323   0.082981   0.058246  -0.038551
     38       0.020490   0.109234  -0.206025   0.035236  -0.019176   0.052716
     39       0.030814  -0.088292  -0.039484  -0.086107  -0.033455   0.013457
     40      -0.055212   0.040520   0.021166  -0.003727   0.057519  -0.005932
     41       0.099720  -0.078407  -0.028395  -0.023731  -0.164791  -0.079415
     42      -0.058958   0.065257  -0.020284   0.002650   0.000974  -0.010829
     43      -0.077344   0.099113   0.027151   0.042758   0.069066  -0.039079
     44      -0.242458   0.265432   0.060375   0.090154  -0.010303   0.073341
     45      -0.090412   0.104415  -0.037684   0.012604   0.017218  -0.000768
     46       0.202439  -0.190899  -0.061793  -0.066714  -0.063237  -0.152618
     47      -0.120122   0.137028   0.033581   0.044225  -0.068441   0.023781
     48       0.081528  -0.172280  -0.133285  -0.211426  -0.217772  -0.029131
     49       0.061976  -0.082055  -0.049586  -0.081951  -0.070065  -0.083778
     50       0.256831  -0.234516  -0.107046  -0.104674  -0.301913  -0.181599
     51       0.062065  -0.141484   0.004398  -0.078138   0.035542   0.054232
     52      -0.247553   0.254299   0.141758   0.143857   0.283589   0.114899
     53       0.148906  -0.122022  -0.097433  -0.080759  -0.286190  -0.146586
     54       0.187600   0.110477   0.175122   0.068951  -0.012991  -0.084474
     55      -0.200539  -0.118918   0.034487   0.176826  -0.082820   0.063306
     56      -0.159044   0.038944   0.138099  -0.196668   0.053935  -0.195700
     57      -0.050542   0.054434  -0.033792  -0.028027  -0.035281   0.016809
     58      -0.035104   0.034124   0.039405   0.044548   0.037715  -0.131709
     59      -0.116620   0.068425   0.038608   0.054106  -0.034474  -0.068882
     60       0.249979   0.152673   0.340289  -0.036316  -0.028692  -0.078273
     61      -0.376492  -0.217504   0.066752   0.227148  -0.131182   0.058866
     62       0.072608   0.175127   0.253309  -0.340977   0.088119  -0.185290
     63      -0.004396   0.000112   0.107253   0.185696  -0.134085   0.090780
     64       0.125682   0.049686  -0.152714   0.110181   0.070024  -0.000211
     65       0.033422   0.124074  -0.275214   0.019823   0.020974   0.081836
     66       0.110521   0.062396   0.137257   0.142734  -0.068092  -0.001380
     67      -0.080806  -0.051833  -0.012354   0.143110  -0.023573   0.022300
     68      -0.124937   0.046934  -0.033339  -0.092143   0.035639  -0.079910
     69      -0.065703  -0.024758   0.200515   0.144445  -0.138114   0.038665
     70       0.147874   0.064441  -0.180845   0.142967   0.078953   0.041182
     71       0.056731   0.129257  -0.314237   0.022729   0.016938   0.085788
     72      -0.039069   0.033029  -0.037103  -0.036824  -0.024640   0.010803
     73       0.002676  -0.041190  -0.010933   0.005028   0.006020  -0.031512
     74      -0.020370  -0.208753  -0.109887   0.104952   0.143650  -0.112940
     75      -0.022561  -0.036697  -0.072686   0.022776   0.078679  -0.087103
     76       0.085879   0.062819   0.093377  -0.118218  -0.032398   0.173424
     77       0.099840   0.018525   0.090251  -0.145204  -0.005649   0.300856
     78      -0.005095  -0.029929   0.025620   0.000430   0.093196   0.041194
     79      -0.036740  -0.037357  -0.020689  -0.114938  -0.041037   0.033472
     80       0.005390   0.002845   0.129185   0.104068   0.113907   0.070289
     81      -0.008890  -0.001565  -0.027002  -0.011733   0.019163  -0.000409
     82       0.103565  -0.206362  -0.127870  -0.259004  -0.272331  -0.098726
     83      -0.042164   0.046027   0.198254   0.162264   0.239551   0.141694
     84      -0.060219   0.059000   0.125466   0.133727   0.285313   0.080380
     85      -0.120874   0.057413   0.040258  -0.039845   0.089824   0.120519
     86      -0.104999   0.119665   0.192461   0.179107   0.255812   0.189071
     87       0.032458  -0.120661   0.031167  -0.068374   0.069865   0.074207
     88      -0.087823  -0.021767  -0.005423  -0.141674  -0.010739   0.137676
     89       0.111429  -0.117805   0.116296   0.061142   0.049586  -0.023580
     90       0.059104  -0.177380  -0.032006  -0.164132  -0.058148   0.059940
     91      -0.022322  -0.097773  -0.047746  -0.199088  -0.109852   0.066721
     92       0.201359  -0.213166   0.074226   0.007579  -0.055899  -0.126133
     93       0.018256  -0.090867   0.061592  -0.020609   0.132492   0.080856
     94      -0.082798  -0.066159  -0.024299  -0.209577  -0.058879   0.176808
     95       0.069470  -0.085934   0.192630   0.117546   0.191247   0.064651
     96       0.047064  -0.159933   0.067518  -0.071608   0.118089   0.106977
     97      -0.195670   0.110215   0.066570  -0.036196   0.159201   0.246720
     98       0.140316  -0.141656   0.072212   0.026917  -0.034300  -0.078383
                 12         13         14         15         16         17    
      0      -0.036478  -0.004328   0.024667   0.026657   0.003474  -0.024242
      1      -0.047667   0.035248  -0.083222  -0.063362   0.002565   0.108470
      2      -0.036236   0.085507  -0.139766   0.033112   0.011841  -0.087207
      3       0.003904   0.003139   0.030605   0.048733   0.006272  -0.077286
      4       0.090748   0.024073  -0.036276  -0.029301  -0.005799   0.044155
      5       0.076051   0.046718  -0.077394   0.026649  -0.006730  -0.042816
      6      -0.025227  -0.002586   0.028229   0.031518   0.004992  -0.032055
      7       0.170048  -0.009029   0.055017   0.008978  -0.006397  -0.042339
      8       0.075223  -0.033052   0.059277   0.007982  -0.012453   0.029306
      9      -0.094801  -0.016806   0.023527  -0.013803   0.002590   0.076714
     10       0.108104  -0.027101   0.092718   0.008964   0.005626  -0.041014
     11      -0.040358  -0.065427   0.119185  -0.001271   0.005689   0.056410
     12      -0.136146  -0.024723   0.018824  -0.038851   0.000640   0.136929
     13      -0.023824  -0.004144   0.018760  -0.026296   0.011081   0.022373
     14      -0.145884  -0.007275   0.011693   0.004626   0.021121   0.001725
     15      -0.104965  -0.018952   0.022058  -0.019809   0.002178   0.084147
     16      -0.102581   0.026410  -0.069722  -0.064767   0.007094   0.099495
     17      -0.141871   0.067655  -0.118905   0.021129   0.020981  -0.078828
     18      -0.011743  -0.001656   0.026429   0.028669   0.005847  -0.016596
     19      -0.101390   0.038649  -0.087054  -0.060239   0.003530   0.103836
     20      -0.025645   0.102356  -0.130594   0.044741   0.023293  -0.042445
     21       0.059936   0.013391   0.037971   0.080698   0.009019  -0.158558
     22       0.138378   0.034577  -0.056613  -0.027693  -0.013605   0.048202
     23       0.165408   0.065813  -0.108452   0.036181  -0.018307  -0.053715
     24      -0.136443  -0.024990   0.021396  -0.053834   0.007512   0.137817
     25      -0.201051   0.041728  -0.116209  -0.105091   0.012977   0.160163
     26      -0.216641   0.108576  -0.192300   0.038369   0.016334  -0.119891
     27      -0.116436  -0.020898   0.021200  -0.027686   0.002138   0.108825
     28       0.164954  -0.056193   0.172431   0.038936   0.006993  -0.089869
     29      -0.042061  -0.131637   0.240840  -0.012975   0.005284   0.118336
     30      -0.022916   0.010842   0.002368   0.035448  -0.002359  -0.084780
     31      -0.149041  -0.047964   0.045758  -0.037618  -0.029717  -0.069647
     32      -0.048782  -0.024750   0.076786   0.049608   0.005610  -0.056155
     33      -0.017782  -0.000529   0.009108   0.040049   0.018232   0.011060
     34      -0.127846  -0.031890   0.059611  -0.032646  -0.047969  -0.159065
     35      -0.007922  -0.038657   0.121523   0.071599   0.046473   0.122313
     36       0.025711   0.045078   0.005791  -0.153581  -0.091567  -0.018435
     37      -0.023855  -0.045612  -0.005489   0.099892   0.049516  -0.035218
     38       0.088455   0.022905   0.054429  -0.154900  -0.086320  -0.017336
     39       0.041691  -0.051659  -0.083246   0.006935   0.001200  -0.028417
     40      -0.070028   0.033743   0.101992  -0.000503  -0.030385  -0.120934
     41      -0.013016  -0.179309  -0.032072  -0.007639   0.003829   0.029575
     42      -0.019845  -0.018016   0.026415   0.045627   0.049634   0.161893
     43      -0.114100   0.036077   0.139769   0.010680  -0.010768  -0.039341
     44       0.012023   0.067283   0.235400   0.135501   0.091747   0.248114
     45      -0.049037   0.059019   0.053932   0.060910   0.020373  -0.012056
     46      -0.136940  -0.134907  -0.082777  -0.106726  -0.111004  -0.357945
     47       0.014492  -0.037635   0.142209   0.084246   0.067151   0.206654
     48       0.100412  -0.049978  -0.084590   0.022932   0.019505   0.034309
     49      -0.065460  -0.028015   0.041124  -0.028036  -0.043740  -0.146783
     50      -0.022088  -0.268734  -0.119017  -0.051736  -0.020731  -0.026097
     51       0.066643  -0.082774  -0.159072  -0.027379  -0.015766  -0.067685
     52      -0.094446   0.131250   0.203533   0.042416  -0.010399  -0.085975
     53      -0.019204  -0.194163  -0.022680  -0.001999   0.007191   0.041522
     54       0.163077  -0.020707   0.015799   0.032313   0.094484  -0.006851
     55      -0.004144  -0.013567  -0.032354   0.111659  -0.009572   0.018747
     56       0.118507  -0.017360   0.011151  -0.087553   0.020270  -0.018735
     57       0.016856  -0.010453   0.049146   0.023885   0.016951   0.070396
     58      -0.070510   0.115886  -0.180098  -0.058685   0.027285   0.191627
     59       0.014419   0.205551  -0.255302   0.047903   0.056649   0.077082
     60       0.110846  -0.020061  -0.065729   0.493036  -0.464815   0.215843
     61      -0.021570  -0.020146   0.012628  -0.132294   0.268395  -0.089126
     62       0.088779  -0.010122  -0.106814   0.568145  -0.757786   0.287994
     63       0.077512   0.037345   0.022244  -0.168841  -0.100060   0.003758
     64       0.049413  -0.018822  -0.042440   0.110166   0.056027   0.004842
     65       0.136886   0.052784   0.003602  -0.113165  -0.064832   0.008897
     66       0.137120  -0.000530   0.019371  -0.040704   0.108959  -0.027969
     67       0.035121  -0.021746  -0.034862   0.160132  -0.010945   0.026926
     68       0.124321   0.016032   0.014660  -0.184181   0.046140  -0.052141
     69       0.025144   0.023842   0.042391  -0.222325  -0.111161  -0.048736
     70       0.129011   0.006817  -0.082309   0.136159   0.066190   0.046597
     71       0.114069   0.043332   0.018795  -0.097986  -0.065718   0.012912
     72       0.007938   0.004420   0.030286   0.053117   0.006252  -0.087040
     73       0.277829  -0.022579   0.101260   0.039574  -0.015236  -0.103094
     74       0.164062  -0.072775   0.128580   0.001989  -0.029279   0.071278
     75      -0.193634  -0.035128   0.009718  -0.062979  -0.012144   0.226388
     76      -0.064370  -0.012810   0.035431  -0.022234   0.013482   0.022752
     77      -0.224026  -0.023670   0.037399   0.005890   0.023004   0.019945
     78      -0.001686  -0.046979  -0.078245  -0.002857  -0.013397  -0.084351
     79       0.038906   0.049320   0.059701   0.008279  -0.004314  -0.017235
     80       0.000697  -0.144268  -0.068020  -0.028852  -0.007261  -0.000013
     81      -0.021677  -0.172415  -0.114509  -0.007710  -0.020277  -0.111680
     82       0.048070   0.250823   0.194910   0.046624   0.019914   0.060180
     83       0.009291  -0.141029  -0.094482  -0.039550  -0.011693  -0.010792
     84      -0.071484  -0.036771  -0.058180  -0.017313  -0.038357  -0.180064
     85       0.047354  -0.072963  -0.031674  -0.014857  -0.015181  -0.047346
     86       0.032371  -0.328575  -0.208729  -0.058961  -0.016577  -0.018957
     87       0.071680   0.117632  -0.050502   0.014509   0.015435   0.023595
     88       0.134996  -0.038132  -0.066457  -0.005187   0.013514   0.066604
     89      -0.037888   0.148585   0.122691   0.006860   0.002808   0.018807
     90       0.132835   0.142782  -0.052867   0.037141   0.048740   0.142884
     91       0.125407   0.104635   0.038622   0.023748   0.029158   0.110412
     92      -0.073809   0.356102   0.282808   0.042772   0.014849   0.043418
     93       0.040861   0.101026  -0.050634   0.003070  -0.001229  -0.036311
     94       0.213791  -0.007273  -0.103329   0.004843   0.042428   0.177834
     95      -0.016487   0.141156   0.061551  -0.016781  -0.008105  -0.008897
     96       0.096422   0.233097  -0.028619   0.016758   0.021984   0.049265
     97       0.137199  -0.276532  -0.232075  -0.054099  -0.016724  -0.023334
     98      -0.051942   0.167809   0.167339   0.022375   0.009614   0.035699
                 18         19         20         21         22         23    
      0       0.028733   0.009718  -0.014344  -0.033634   0.047970   0.000961
      1       0.012236  -0.026370   0.012250   0.035141  -0.016302   0.001261
      2       0.027205   0.013761   0.000099  -0.009667   0.019561  -0.000996
      3       0.043801   0.022806  -0.026834  -0.063965   0.100540   0.003610
      4       0.033144  -0.009201   0.014836   0.046817   0.081825   0.003481
      5       0.031389   0.009247   0.029504   0.072684   0.077382  -0.002297
      6       0.043442   0.013947  -0.025224  -0.055830   0.101666   0.005051
      7       0.024841   0.013083  -0.003404  -0.007330   0.061563   0.000761
      8       0.003587   0.000976   0.018562   0.048734   0.000791  -0.003830
      9       0.041784  -0.006492  -0.022104  -0.038438   0.105661   0.009378
     10      -0.012735   0.009889  -0.031974  -0.082934  -0.018335   0.000961
     11      -0.057233  -0.009215  -0.026994  -0.069332  -0.127510  -0.002366
     12       0.032742  -0.019272  -0.013890  -0.015889   0.075029   0.008897
     13      -0.002731  -0.007371  -0.000044   0.005616   0.024845   0.001874
     14      -0.017521  -0.001785   0.001972   0.012160   0.026875   0.000264
     15       0.034579  -0.007765  -0.017381  -0.029802   0.079023   0.008033
     16       0.023118  -0.023890   0.028686   0.082797   0.043352   0.001178
     17       0.041861   0.015969   0.027523   0.070441   0.113309  -0.000558
     18       0.021761   0.005325  -0.001010   0.002938   0.007649  -0.001425
     19      -0.063462  -0.022234  -0.028303  -0.081582  -0.116056  -0.001717
     20      -0.074121   0.005876  -0.058853  -0.145584  -0.108924   0.003407
     21       0.059099   0.041684  -0.040366  -0.100289   0.151708   0.005177
     22       0.042772  -0.010089   0.025684   0.075562   0.108245   0.003590
     23       0.051128   0.012161   0.043586   0.110360   0.134092  -0.001703
     24       0.034432  -0.013340  -0.015820  -0.019597   0.083728   0.008828
     25       0.030847  -0.027077   0.040649   0.123633   0.087202   0.003941
     26       0.052678   0.028769   0.044107   0.112946   0.165972   0.001084
     27       0.039095  -0.013078  -0.019102  -0.029001   0.097491   0.009728
     28      -0.045465   0.021006  -0.065833  -0.175148  -0.090507  -0.000274
     29      -0.122524  -0.020045  -0.070376  -0.181466  -0.279715  -0.002270
     30       0.004345   0.003685  -0.003165  -0.016202  -0.021479  -0.004514
     31       0.117058  -0.000078   0.029480   0.014724  -0.179372  -0.023423
     32       0.164347   0.025843   0.018024   0.027451  -0.138955  -0.014875
     33      -0.024886   0.019981   0.020686   0.047355  -0.099849  -0.010989
     34      -0.022711  -0.034461   0.002349  -0.025511  -0.038887  -0.007421
     35      -0.083141   0.041926   0.019152   0.088909  -0.045314  -0.005441
     36      -0.024146   0.062182  -0.004439  -0.011649   0.013630  -0.086797
     37       0.077701   0.204016   0.017281   0.029548  -0.076512   0.077040
     38       0.097027  -0.154509   0.032447   0.030647  -0.117628   0.149625
     39      -0.128410  -0.017012   0.015235   0.072477  -0.029349   0.005289
     40      -0.138448  -0.040468   0.018500   0.041206   0.042364   0.005556
     41      -0.052236   0.005594  -0.019876   0.011501   0.015615   0.002174
     42      -0.061753   0.051780   0.041996   0.102838  -0.160799  -0.019561
     43      -0.116708  -0.008163   0.026572   0.041144  -0.050928  -0.011634
     44      -0.211064   0.070752   0.048647   0.170549  -0.045815  -0.009423
     45       0.103312   0.036086   0.023245   0.016407  -0.178344  -0.023565
     46       0.100764  -0.084362  -0.042116  -0.137219   0.012764   0.008496
     47      -0.203957   0.049441   0.032635   0.145468  -0.014872  -0.002773
     48      -0.161968  -0.014536  -0.038471   0.130739  -0.006225   0.009715
     49      -0.131001  -0.055831  -0.030623   0.028151   0.047010   0.004042
     50      -0.035065  -0.018320  -0.077459  -0.021022   0.017369  -0.001240
     51      -0.122740  -0.036704   0.023735   0.035620   0.035588   0.012551
     52      -0.121747  -0.011928   0.102354   0.043843   0.013220  -0.000176
     53      -0.059272   0.007807  -0.055337   0.031696  -0.014208  -0.000136
     54       0.016625  -0.173377   0.001981  -0.000080  -0.008031   0.029160
     55       0.015832  -0.144799   0.001010  -0.001841  -0.002658   0.022835
     56      -0.007297   0.074625  -0.002937   0.000924   0.000651  -0.026964
     57       0.044666   0.003583   0.002169   0.033737   0.036121   0.003794
     58      -0.311170  -0.037748  -0.105135  -0.238425  -0.102412   0.014881
     59      -0.406459  -0.014497  -0.162479  -0.356799  -0.087404   0.025291
     60       0.027340  -0.283074  -0.000484  -0.010826   0.000898  -0.066045
     61       0.029231  -0.269623   0.005181   0.006131   0.017952  -0.114610
     62      -0.011128   0.102255  -0.009291  -0.016552  -0.011772   0.024796
     63      -0.028313   0.162007  -0.003783   0.001471   0.006185  -0.075637
     64      -0.024526   0.244553  -0.008278   0.002489   0.014270  -0.011406
     65      -0.007858  -0.157684   0.003623  -0.005561  -0.014483   0.044936
     66       0.012829  -0.221013   0.002506  -0.001130   0.009746  -0.005476
     67       0.009713  -0.037479  -0.000619  -0.003030  -0.026626   0.139859
     68      -0.031064   0.187715  -0.004849  -0.003211  -0.000986   0.107754
     69       0.042839   0.464640   0.037354   0.042025  -0.193917   0.833061
     70      -0.137911   0.293763  -0.040378  -0.029191   0.132489  -0.189282
     71       0.026807  -0.387044   0.000049  -0.009106   0.029847  -0.409466
     72       0.044257   0.024888  -0.027283  -0.066327   0.100632   0.002990
     73       0.028307   0.029521  -0.001795  -0.008578   0.065378  -0.002603
     74       0.007363  -0.000115   0.026011   0.072617   0.010863  -0.003990
     75       0.022160  -0.040806  -0.001475   0.019028   0.033596   0.008612
     76      -0.016625  -0.008744  -0.004458  -0.001789   0.035843   0.002892
     77      -0.042785  -0.008573  -0.002621   0.007249   0.035591   0.001653
     78      -0.135535  -0.027469   0.053436   0.062450  -0.069335   0.000591
     79      -0.071697  -0.018740  -0.020512   0.035432   0.108838   0.013321
     80       0.033781   0.005535   0.030661  -0.072452   0.089039   0.003883
     81      -0.228308  -0.038896   0.068830   0.086692  -0.060688   0.004247
     82      -0.080404  -0.007203  -0.083752   0.093389   0.077836   0.017458
     83       0.093108   0.008513   0.042876  -0.107006   0.092563   0.000202
     84      -0.174210  -0.051702   0.083109   0.057011  -0.049859  -0.000140
     85      -0.040484  -0.019319   0.015885  -0.008010   0.113521   0.009548
     86       0.088966   0.010960   0.075310  -0.133722   0.093267  -0.000919
     87       0.054096   0.013234   0.022601   0.037595  -0.217202  -0.015492
     88       0.110374   0.021262  -0.005488  -0.039506   0.000936  -0.002116
     89       0.027774   0.002616  -0.028973  -0.019946   0.095236   0.007405
     90       0.086948   0.068154   0.476455  -0.304355  -0.230428  -0.031208
     91       0.066105   0.036074   0.203232  -0.175354   0.043776  -0.003793
     92      -0.050826   0.005820   0.128131  -0.105910   0.165312   0.010488
     93       0.034342  -0.014308  -0.197071   0.204176  -0.207832  -0.007380
     94       0.255148   0.072303   0.175648  -0.211055  -0.120693  -0.022350
     95       0.196704  -0.010131  -0.503317   0.283872  -0.072091   0.002662
     96       0.202666   0.020310  -0.237107   0.193640  -0.360316  -0.023798
     97       0.160033  -0.011016  -0.375914   0.210608  -0.054361   0.002806
     98      -0.068967   0.009888   0.236648  -0.188880   0.190494   0.010219
                 24         25         26         27         28         29    
      0       0.012465   0.050281   0.000081  -0.059454   0.007930  -0.016125
      1      -0.033172  -0.111923   0.005549  -0.019581   0.008954   0.028428
      2      -0.010826  -0.014694   0.000289  -0.033763  -0.032410   0.204300
      3       0.015935   0.073091  -0.003492   0.004030  -0.014990   0.055522
      4       0.096515  -0.077849  -0.000159   0.070504   0.004189  -0.012483
      5       0.193792   0.013460  -0.001904  -0.035190   0.002783   0.016234
      6       0.008252   0.044484  -0.002773   0.029118  -0.012848   0.046553
      7      -0.091948   0.061666  -0.001321   0.054699  -0.010692   0.001732
      8      -0.155512   0.075713   0.002923  -0.011044   0.015338  -0.104054
[...]
     17       0.000249   0.000057  -0.000033
     18       0.000002  -0.000027  -0.000026
     19      -0.000137   0.000037  -0.000009
     20       0.000120  -0.000045   0.000012
     21       0.000156  -0.000078  -0.000008
     22      -0.000472   0.000143   0.000160
     23       0.000287  -0.000092  -0.000091
     24      -0.002627   0.000220  -0.000796
     25       0.006065  -0.000109  -0.000348
     26      -0.004077  -0.000604   0.001420
     27       0.001282  -0.000199  -0.000075
     28       0.000444   0.000009   0.000022
     29      -0.000277  -0.000006  -0.000028
     30      -0.000042   0.000019   0.000010
     31       0.000274  -0.000088  -0.000010
     32      -0.000246   0.000176   0.000004
     33       0.000016  -0.000070  -0.000000
     34      -0.000159   0.000003   0.000002
     35       0.000128  -0.000130   0.000006
     36       0.035997  -0.021171  -0.001089
     37      -0.049441  -0.000043   0.001115
     38       0.052497  -0.036041  -0.000604
     39       0.000074  -0.000036   0.000004
     40       0.000084  -0.000072   0.000031
     41       0.000005  -0.000035  -0.000001
     42      -0.000736   0.000459   0.000025
     43       0.001029  -0.000091   0.000016
     44      -0.000914   0.000382  -0.000059
     45      -0.000293   0.000920   0.000030
     46      -0.000746   0.000896   0.000010
     47      -0.000136   0.001145   0.000034
     48      -0.000661  -0.000189   0.000047
     49      -0.000142   0.000161  -0.000120
     50       0.001114  -0.000886   0.000080
     51      -0.000508   0.000531  -0.000068
     52      -0.000150   0.000171  -0.000054
     53      -0.000687   0.001131  -0.000113
     54      -0.048070   0.000623  -0.032009
     55      -0.032418   0.000861   0.036186
     56       0.022697  -0.000033   0.035884
     57       0.000324  -0.000093   0.000091
     58       0.000922  -0.000233   0.000146
     59      -0.000539  -0.000025  -0.000120
     60      -0.006799   0.002811   0.551572
     61      -0.042154  -0.003651  -0.572634
     62      -0.010433  -0.003839  -0.601024
     63      -0.002294  -0.028051   0.000340
     64       0.002795  -0.030476   0.000129
     65      -0.004066  -0.044060   0.000259
     66       0.758182  -0.014278  -0.044420
     67       0.542510  -0.011742  -0.001209
     68      -0.343454   0.003571   0.031349
     69       0.012008   0.467041  -0.003563
     70       0.016495   0.486220  -0.003418
     71       0.007746   0.734616  -0.004343
     72       0.000349  -0.000094  -0.000090
     73      -0.000074   0.000059   0.000119
     74       0.000050  -0.000036  -0.000086
     75      -0.000630   0.000044   0.000904
     76       0.000390   0.000237   0.000206
     77      -0.000321  -0.000152  -0.000130
     78       0.000015  -0.000024   0.000004
     79       0.000003  -0.000003   0.000009
     80      -0.000010  -0.000032  -0.000002
     81      -0.000100   0.000304  -0.000017
     82      -0.000068   0.000236  -0.000008
     83       0.000213   0.000305   0.000006
     84      -0.000112   0.000088  -0.000020
     85       0.000226  -0.000004  -0.000085
     86      -0.000184   0.000077   0.000055
     87       0.000010  -0.000009   0.000003
     88       0.000022  -0.000012   0.000018
     89      -0.000029  -0.000007  -0.000004
     90      -0.000101   0.000027   0.000034
     91      -0.000043   0.000034  -0.000078
     92       0.000174  -0.000059   0.000043
     93       0.000019   0.000023  -0.000025
     94       0.000093   0.000007  -0.000017
     95       0.000067   0.000011   0.000013
     96      -0.000049   0.000071  -0.000021
     97       0.000043   0.000071  -0.000007
     98       0.000129   0.000203  -0.000044


-----------
IR SPECTRUM  
-----------

 Mode    freq (cm**-1)   T**2         TX         TY         TZ
-------------------------------------------------------------------
   7:        35.09    0.000000  (  0.000000   0.000000   0.000000)
   8:        41.60    0.000000  (  0.000000   0.000000   0.000000)
   9:        51.24    0.000000  (  0.000000   0.000000   0.000000)
  10:        64.55    0.000000  (  0.000000   0.000000   0.000000)
  11:        71.04    0.000000  (  0.000000   0.000000   0.000000)
  12:        72.87    0.000000  (  0.000000   0.000000   0.000000)
  13:       107.62    0.000000  (  0.000000   0.000000   0.000000)
  14:       118.95    0.000000  (  0.000000   0.000000   0.000000)
  15:       140.71    0.000000  (  0.000000   0.000000   0.000000)
  16:       156.91    0.000000  (  0.000000   0.000000   0.000000)
  17:       160.62    0.000000  (  0.000000   0.000000   0.000000)
  18:       220.49    0.000000  (  0.000000   0.000000   0.000000)
  19:       227.92    0.000000  (  0.000000   0.000000   0.000000)
  20:       266.80    0.000000  (  0.000000   0.000000   0.000000)
  21:       274.04    0.000000  (  0.000000   0.000000   0.000000)
  22:       281.83    0.000000  (  0.000000   0.000000   0.000000)
  23:       302.77    0.000000  (  0.000000   0.000000   0.000000)
  24:       377.18    0.000000  (  0.000000   0.000000   0.000000)
  25:       385.44    0.000000  (  0.000000   0.000000   0.000000)
  26:       404.88    0.000000  (  0.000000   0.000000   0.000000)
  27:       428.45    0.000000  (  0.000000   0.000000   0.000000)
  28:       456.38    0.000000  (  0.000000   0.000000   0.000000)
  29:       471.28    0.000000  (  0.000000   0.000000   0.000000)
  30:       507.68    0.000000  (  0.000000   0.000000   0.000000)
  31:       588.39    0.000000  (  0.000000   0.000000   0.000000)
  32:       622.32    0.000000  (  0.000000   0.000000   0.000000)
  33:       640.32    0.000000  (  0.000000   0.000000   0.000000)
  34:       664.42    0.000000  (  0.000000   0.000000   0.000000)
  35:       708.11    0.000000  (  0.000000   0.000000   0.000000)
  36:       754.50    0.000000  (  0.000000   0.000000   0.000000)
  37:       768.87    0.000000  (  0.000000   0.000000   0.000000)
  38:       824.33    0.000000  (  0.000000   0.000000   0.000000)
  39:       859.40    0.000000  (  0.000000   0.000000   0.000000)
  40:       872.79    0.000000  (  0.000000   0.000000   0.000000)
  41:       902.17    0.000000  (  0.000000   0.000000   0.000000)
  42:       915.90    0.000000  (  0.000000   0.000000   0.000000)
  43:       928.30    0.000000  (  0.000000   0.000000   0.000000)
  44:       938.78    0.000000  (  0.000000   0.000000   0.000000)
  45:       943.46    0.000000  (  0.000000   0.000000   0.000000)
  46:       951.52    0.000000  (  0.000000   0.000000   0.000000)
  47:       984.18    0.000000  (  0.000000   0.000000   0.000000)
  48:      1021.46    0.000000  (  0.000000   0.000000   0.000000)
  49:      1066.87    0.000000  (  0.000000   0.000000   0.000000)
  50:      1070.71    0.000000  (  0.000000   0.000000   0.000000)
  51:      1100.59    0.000000  (  0.000000   0.000000   0.000000)
  52:      1114.40    0.000000  (  0.000000   0.000000   0.000000)
  53:      1125.00    0.000000  (  0.000000   0.000000   0.000000)
  54:      1143.99    0.000000  (  0.000000   0.000000   0.000000)
  55:      1176.44    0.000000  (  0.000000   0.000000   0.000000)
  56:      1184.21    0.000000  (  0.000000   0.000000   0.000000)
  57:      1209.68    0.000000  (  0.000000   0.000000   0.000000)
  58:      1218.69    0.000000  (  0.000000   0.000000   0.000000)
  59:      1256.03    0.000000  (  0.000000   0.000000   0.000000)
  60:      1267.01    0.000000  (  0.000000   0.000000   0.000000)
  61:      1274.12    0.000000  (  0.000000   0.000000   0.000000)
  62:      1276.07    0.000000  (  0.000000   0.000000   0.000000)
  63:      1296.13    0.000000  (  0.000000   0.000000   0.000000)
  64:      1324.75    0.000000  (  0.000000   0.000000   0.000000)
  65:      1358.49    0.000000  (  0.000000   0.000000   0.000000)
  66:      1369.38    0.000000  (  0.000000   0.000000   0.000000)
  67:      1421.93    0.000000  (  0.000000   0.000000   0.000000)
  68:      1428.02    0.000000  (  0.000000   0.000000   0.000000)
  69:      1453.47    0.000000  (  0.000000   0.000000   0.000000)
  70:      1470.72    0.000000  (  0.000000   0.000000   0.000000)
  71:      1497.86    0.000000  (  0.000000   0.000000   0.000000)
  72:      1503.35    0.000000  (  0.000000   0.000000   0.000000)
  73:      1506.62    0.000000  (  0.000000   0.000000   0.000000)
  74:      1511.26    0.000000  (  0.000000   0.000000   0.000000)
  75:      1535.93    0.000000  (  0.000000   0.000000   0.000000)
  76:      1557.82    0.000000  (  0.000000   0.000000   0.000000)
  77:      1560.38    0.000000  (  0.000000   0.000000   0.000000)
  78:      1566.71    0.000000  (  0.000000   0.000000   0.000000)
  79:      1665.42    0.000000  (  0.000000   0.000000   0.000000)
  80:      2882.44    0.000000  (  0.000000   0.000000   0.000000)
  81:      2898.86    0.000000  (  0.000000   0.000000   0.000000)
  82:      2941.50    0.000000  (  0.000000   0.000000   0.000000)
  83:      2943.95    0.000000  (  0.000000   0.000000   0.000000)
  84:      2958.82    0.000000  (  0.000000   0.000000   0.000000)
  85:      2966.30    0.000000  (  0.000000   0.000000   0.000000)
  86:      2980.25    0.000000  (  0.000000   0.000000   0.000000)
  87:      2981.06    0.000000  (  0.000000   0.000000   0.000000)
  88:      2986.79    0.000000  (  0.000000   0.000000   0.000000)
  89:      2996.95    0.000000  (  0.000000   0.000000   0.000000)
  90:      3019.04    0.000000  (  0.000000   0.000000   0.000000)
  91:      3050.44    0.000000  (  0.000000   0.000000   0.000000)
  92:      3058.75    0.000000  (  0.000000   0.000000   0.000000)
  93:      3065.85    0.000000  (  0.000000   0.000000   0.000000)
  94:      3074.12    0.000000  (  0.000000   0.000000   0.000000)
  95:      3116.42    0.000000  (  0.000000   0.000000   0.000000)
  96:      3281.59    0.000000  (  0.000000   0.000000   0.000000)
  97:      3570.38    0.000000  (  0.000000   0.000000   0.000000)
  98:      3591.65    0.000000  (  0.000000   0.000000   0.000000)

The first frequency considered to be a vibration is 7
The total number of vibrations considered is 92


--------------------------
THERMOCHEMISTRY AT 298.15K
--------------------------

Temperature         ... 298.15 K
Pressure            ... 1.00 atm
Total Mass          ... 197.28 AMU

Throughout the following assumptions are being made:
  (1) The electronic state is orbitally nondegenerate
  (2) There are no thermally accessible electronically excited states
  (3) Hindered rotations indicated by low frequency modes are not
      treated as such but are treated as vibrations and this may
      cause some error
  (4) All equations used are the standard statistical mechanics
      equations for an ideal gas
  (5) All vibrations are strictly harmonic

freq.      35.09  E(vib)   ...       0.54 
freq.      41.60  E(vib)   ...       0.54 
freq.      51.24  E(vib)   ...       0.52 
freq.      64.55  E(vib)   ...       0.51 
freq.      71.04  E(vib)   ...       0.50 
freq.      72.87  E(vib)   ...       0.49 
freq.     107.62  E(vib)   ...       0.45 
freq.     118.95  E(vib)   ...       0.44 
freq.     140.71  E(vib)   ...       0.41 
freq.     156.91  E(vib)   ...       0.40 
freq.     160.62  E(vib)   ...       0.39 
freq.     220.49  E(vib)   ...       0.33 
freq.     227.92  E(vib)   ...       0.33 
freq.     266.80  E(vib)   ...       0.29 
freq.     274.04  E(vib)   ...       0.28 
freq.     281.83  E(vib)   ...       0.28 
freq.     302.77  E(vib)   ...       0.26 
freq.     377.18  E(vib)   ...       0.21 
freq.     385.44  E(vib)   ...       0.20 
freq.     404.88  E(vib)   ...       0.19 
freq.     428.45  E(vib)   ...       0.18 
freq.     456.38  E(vib)   ...       0.16 
freq.     471.28  E(vib)   ...       0.15 
freq.     507.68  E(vib)   ...       0.14 
freq.     588.39  E(vib)   ...       0.10 
freq.     622.32  E(vib)   ...       0.09 
freq.     640.32  E(vib)   ...       0.09 
freq.     664.42  E(vib)   ...       0.08 
freq.     708.11  E(vib)   ...       0.07 
freq.     754.50  E(vib)   ...       0.06 
freq.     768.87  E(vib)   ...       0.06 
freq.     824.33  E(vib)   ...       0.04 
freq.     859.40  E(vib)   ...       0.04 
freq.     872.79  E(vib)   ...       0.04 
freq.     902.17  E(vib)   ...       0.03 
freq.     915.90  E(vib)   ...       0.03 
freq.     928.30  E(vib)   ...       0.03 
freq.     938.78  E(vib)   ...       0.03 
freq.     943.46  E(vib)   ...       0.03 
freq.     951.52  E(vib)   ...       0.03 
freq.     984.18  E(vib)   ...       0.02 
freq.    1021.46  E(vib)   ...       0.02 
freq.    1066.87  E(vib)   ...       0.02 
freq.    1070.71  E(vib)   ...       0.02 
freq.    1100.59  E(vib)   ...       0.02 
freq.    1114.40  E(vib)   ...       0.01 
freq.    1125.00  E(vib)   ...       0.01 
freq.    1143.99  E(vib)   ...       0.01 
freq.    1176.44  E(vib)   ...       0.01 
freq.    1184.21  E(vib)   ...       0.01 
freq.    1209.68  E(vib)   ...       0.01 
freq.    1218.69  E(vib)   ...       0.01 
freq.    1256.03  E(vib)   ...       0.01 
freq.    1267.01  E(vib)   ...       0.01 
freq.    1274.12  E(vib)   ...       0.01 
freq.    1276.07  E(vib)   ...       0.01 
freq.    1296.13  E(vib)   ...       0.01 
freq.    1324.75  E(vib)   ...       0.01 
freq.    1358.49  E(vib)   ...       0.01 
freq.    1369.38  E(vib)   ...       0.01 
freq.    1421.93  E(vib)   ...       0.00 
freq.    1428.02  E(vib)   ...       0.00 
freq.    1453.47  E(vib)   ...       0.00 
freq.    1470.72  E(vib)   ...       0.00 
freq.    1497.86  E(vib)   ...       0.00 
freq.    1503.35  E(vib)   ...       0.00 
freq.    1506.62  E(vib)   ...       0.00 
freq.    1511.26  E(vib)   ...       0.00 
freq.    1535.93  E(vib)   ...       0.00 
freq.    1557.82  E(vib)   ...       0.00 
freq.    1560.38  E(vib)   ...       0.00 
freq.    1566.71  E(vib)   ...       0.00 
freq.    1665.42  E(vib)   ...       0.00 
freq.    2882.44  E(vib)   ...       0.00 
freq.    2898.86  E(vib)   ...       0.00 
freq.    2941.50  E(vib)   ...       0.00 
freq.    2943.95  E(vib)   ...       0.00 
freq.    2958.82  E(vib)   ...       0.00 
freq.    2966.30  E(vib)   ...       0.00 
freq.    2980.25  E(vib)   ...       0.00 
freq.    2981.06  E(vib)   ...       0.00 
freq.    2986.79  E(vib)   ...       0.00 
freq.    2996.95  E(vib)   ...       0.00 
freq.    3019.04  E(vib)   ...       0.00 
freq.    3050.44  E(vib)   ...       0.00 
freq.    3058.75  E(vib)   ...       0.00 
freq.    3065.85  E(vib)   ...       0.00 
freq.    3074.12  E(vib)   ...       0.00 
freq.    3116.42  E(vib)   ...       0.00 
freq.    3281.59  E(vib)   ...       0.00 
freq.    3570.38  E(vib)   ...       0.00 
freq.    3591.65  E(vib)   ...       0.00 

------------
INNER ENERGY
------------

The inner energy is: U= E(el) + E(ZPE) + E(vib) + E(rot) + E(trans)
    E(el)   - is the total energy from the electronic structure calculation
              = E(kin-el) + E(nuc-el) + E(el-el) + E(nuc-nuc)
    E(ZPE)  - the the zero temperature vibrational energy from the frequency calculation
    E(vib)  - the the finite temperature correction to E(ZPE) due to population
              of excited vibrational states
    E(rot)  - is the rotational thermal energy
    E(trans)- is the translational thermal energy

Summary of contributions to the inner energy U:
Electronic energy                ...    -44.28034969 Eh
Zero point energy                ...      0.27427481 Eh     172.11 kcal/mol
Thermal vibrational correction   ...      0.01485938 Eh       9.32 kcal/mol
Thermal rotational correction    ...      0.00141627 Eh       0.89 kcal/mol
Thermal translational correction ...      0.00141627 Eh       0.89 kcal/mol
-----------------------------------------------------------------------
Total thermal energy                    -43.98838296 Eh


Summary of corrections to the electronic energy:
(perhaps to be used in another calculation)
Total thermal correction                  0.01769192 Eh      11.10 kcal/mol
Non-thermal (ZPE) correction              0.27427481 Eh     172.11 kcal/mol
-----------------------------------------------------------------------
Total correction                          0.29196673 Eh     183.21 kcal/mol


--------
ENTHALPY
--------

The enthalpy is H = U + kB*T
                kB is Boltzmann's constant
Total free energy                 ...    -43.98838296 Eh 
Thermal Enthalpy correction       ...      0.00094421 Eh       0.59 kcal/mol
-----------------------------------------------------------------------
Total Enthalpy                    ...    -43.98743875 Eh


Note: Only C1 symmetry has been detected, increase convergence thresholds 
      if your molecule has a higher symmetry. Symmetry factor of 1.0 is   
      used for the rotational entropy correction. 
 

Note: Rotational entropy computed according to Herzberg 
Infrared and Raman Spectra, Chapter V,1, Van Nostrand Reinhold, 1945 
Point Group:  C1, Symmetry Number:   1  
Rotational constants in cm-1:     0.028277     0.009312     0.007376 

Vibrational entropy computed according to the QRRHO of S. Grimme
Chem.Eur.J. 2012 18 9955


-------
ENTROPY
-------

The entropy contributions are T*S = T*(S(el)+S(vib)+S(rot)+S(trans))
     S(el)   - electronic entropy
     S(vib)  - vibrational entropy
     S(rot)  - rotational entropy
     S(trans)- translational entropy
The entropies will be listed as mutliplied by the temperature to get
units of energy

Electronic entropy                ...      0.00000000 Eh      0.00 kcal/mol
Vibrational entropy               ...      0.02667289 Eh     16.74 kcal/mol
Rotational entropy                ...      0.01571961 Eh      9.86 kcal/mol
Translational entropy             ...      0.01983352 Eh     12.45 kcal/mol
-----------------------------------------------------------------------
Final entropy term                ...      0.06222603 Eh     39.05 kcal/mol

In case the symmetry of your molecule has not been determined correctly
or in case you have a reason to use a different symmetry number we print 
out the resulting rotational entropy values for sn=1,12 :
 --------------------------------------------------------
|  sn= 1 | S(rot)=       0.01571961 Eh      9.86 kcal/mol|
|  sn= 2 | S(rot)=       0.01506516 Eh      9.45 kcal/mol|
|  sn= 3 | S(rot)=       0.01468233 Eh      9.21 kcal/mol|
|  sn= 4 | S(rot)=       0.01441070 Eh      9.04 kcal/mol|
|  sn= 5 | S(rot)=       0.01420001 Eh      8.91 kcal/mol|
|  sn= 6 | S(rot)=       0.01402787 Eh      8.80 kcal/mol|
|  sn= 7 | S(rot)=       0.01388232 Eh      8.71 kcal/mol|
|  sn= 8 | S(rot)=       0.01375625 Eh      8.63 kcal/mol|
|  sn= 9 | S(rot)=       0.01364504 Eh      8.56 kcal/mol|
|  sn=10 | S(rot)=       0.01354556 Eh      8.50 kcal/mol|
|  sn=11 | S(rot)=       0.01345557 Eh      8.44 kcal/mol|
|  sn=12 | S(rot)=       0.01337341 Eh      8.39 kcal/mol|
 --------------------------------------------------------


-------------------
GIBBS FREE ENERGY
-------------------

The Gibbs free energy is G = H - T*S

Total enthalpy                    ...    -43.98743875 Eh 
Total entropy correction          ...     -0.06222603 Eh    -39.05 kcal/mol
-----------------------------------------------------------------------
Final Gibbs free energy         ...    -44.04966478 Eh

For completeness - the Gibbs free energy minus the electronic energy
G-E(el)                           ...      0.23068491 Eh    144.76 kcal/mol


Total Time for Numerical Frequencies  :        65.298 sec
Time for Reference State(s)           :         0.078 sec
Time for Displacements                :        59.426 sec

Timings for individual modules:

Sum of individual times         ...        0.154 sec (=   0.003 min)
XTB module                      ...        0.154 sec (=   0.003 min) 100.0 %
                             ****ORCA TERMINATED NORMALLY****
TOTAL RUN TIME: 0 days 0 hours 1 minutes 5 seconds 810 msec
(SLURM) EXECUTION TIME: 65.829797496 seconds.
