 Entering Gaussian System
 *********************************************
 Gaussian 98:
 frequency output generated by the xtb code
 *********************************************
                         Standard orientation:
 --------------------------------------------------------------------
  Center     Atomic     Atomic              Coordinates (Angstroms)
  Number     Number      Type              X           Y           Z
 --------------------------------------------------------------------
    1          6             0        2.734699   -1.244260   -0.396992
    2          6             0        3.119994    0.032220    0.342969
    3          6             0        1.324956    1.280254   -0.879591
    4          1             0       -0.190001    0.024541   -1.763611
    5          6             0        2.808245    1.247355   -0.523929
    6          1             0        1.100721    2.150339   -1.500900
    7          1             0        0.718180    1.360464    0.025430
    8          6             0        1.252727   -1.227684   -0.759435
    9          1             0        2.551802    0.097635    1.274511
   10          1             0        4.182822    0.013596    0.591964
   11          6             0        0.904347   -0.002625   -1.608347
   12          1             0        0.638717   -1.198988    0.143469
   13          1             0        0.992346   -2.127117   -1.320616
   14          1             0        3.391217    1.191377   -1.445673
   15          1             0        3.076934    2.166573    0.000810
   16          1             0        3.314867   -1.320745   -1.317912
   17          1             0        2.946250   -2.118504    0.221657
   18         35             0       -3.249491    0.450181    1.331715
   19          8             0        1.539918   -0.161590   -2.869595
   20          6             0        1.043261    0.661083   -3.896439
   21          1             0        1.311243    1.712169   -3.746927
   22          1             0        1.497022    0.300123   -4.817557
   23          1             0       -0.049275    0.585280   -3.967584
 --------------------------------------------------------------------
     1 basis functions        1 primitive gaussians
     1 alpha electrons        1 beta electrons

 Harmonic frequencies (cm**-1), IR intensities (KM/Mole),
 Raman scattering activities (A**4/amu), Raman depolarization ratios,
 reduced masses (AMU), force constants (mDyne/A) and normal coordinates:
                      1                      2                      3
                        a                      a                      a 
 Frequencies --    14.6791                26.5862                34.4869
 Red. masses --    20.2307                17.7194                43.1127
 Frc consts  --     0.0000                 0.0000                 0.0000
 IR Inten    --     0.4335                 0.5615                 0.8710
 Raman Activ --     0.0000                 0.0000                 0.0000
 Depolar     --     0.0000                 0.0000                 0.0000
 Atom AN      X      Y      Z        X      Y      Z        X      Y      Z
   1   6    -0.22   0.00   0.11     0.08   0.04  -0.03    -0.32  -0.00   0.17
   2   6    -0.23   0.02   0.09    -0.25   0.05   0.13    -0.20  -0.00   0.11
   3   6     0.05   0.09  -0.24    -0.37  -0.19   0.06    -0.04   0.12  -0.00
   4   1     0.02   0.05  -0.11    -0.01  -0.11  -0.06    -0.05   0.07   0.01
   5   6    -0.00  -0.01  -0.02    -0.40   0.07   0.21    -0.05  -0.02   0.03
   6   1     0.06   0.02  -0.09    -0.14  -0.05   0.03     0.02   0.03  -0.02
   7   1    -0.02   0.06  -0.10    -0.14  -0.11   0.00    -0.01   0.07  -0.00
   8   6    -0.17   0.10  -0.11     0.11  -0.21  -0.18    -0.31   0.14   0.13
   9   1    -0.10   0.03   0.00    -0.11  -0.04   0.02    -0.06   0.03   0.03
  10   1    -0.08  -0.02   0.07    -0.08   0.07   0.07    -0.06  -0.03   0.04
  11   6     0.05   0.09  -0.23    -0.04  -0.20  -0.10    -0.16   0.13   0.06
  12   1    -0.09   0.06  -0.06     0.00  -0.12  -0.07    -0.09   0.07   0.03
  13   1    -0.05   0.03  -0.03     0.10  -0.06  -0.09    -0.11   0.04   0.05
  14   1     0.04  -0.03   0.02    -0.08   0.08   0.08    -0.01  -0.04   0.01
  15   1    -0.00  -0.00  -0.01    -0.18   0.02   0.09     0.01  -0.00  -0.00
  16   1    -0.03  -0.03   0.06     0.05   0.07   0.01    -0.09  -0.03   0.05
  17   1    -0.11   0.01   0.05     0.05   0.01  -0.03    -0.12   0.00   0.06
  18  35    -0.10  -0.09   0.36     0.31   0.16   0.01     0.61  -0.15  -0.28
  19   8     0.26  -0.04  -0.14     0.13   0.04  -0.06    -0.19  -0.00   0.09
  20   6     0.45  -0.05  -0.24     0.07   0.04  -0.03    -0.09  -0.03   0.02
  21   1     0.15  -0.02  -0.07    -0.05   0.02   0.03    -0.00  -0.01  -0.01
  22   1     0.16  -0.04  -0.04     0.07   0.07  -0.00    -0.03  -0.03   0.01
  23   1     0.13   0.01  -0.12     0.03  -0.05  -0.05    -0.03   0.01   0.00
                      4                      5                      6
                        a                      a                      a 
 Frequencies --    64.1665               115.4801               163.6365
 Red. masses --     7.6347                 7.5429                 6.5606
 Frc consts  --     0.0000                 0.0000                 0.0000
 IR Inten    --     0.2825                 0.1985                 0.0531
 Raman Activ --     0.0000                 0.0000                 0.0000
 Depolar     --     0.0000                 0.0000                 0.0000
 Atom AN      X      Y      Z        X      Y      Z        X      Y      Z
   1   6    -0.01  -0.03   0.01     0.10   0.03   0.20    -0.04  -0.07   0.39
   2   6    -0.05  -0.10   0.15    -0.15   0.03   0.31    -0.03   0.13   0.04
   3   6     0.14   0.07   0.03     0.18  -0.00  -0.17     0.01  -0.11  -0.05
   4   1     0.04   0.05  -0.03     0.02  -0.01   0.04     0.01  -0.05  -0.01
   5   6     0.10  -0.03   0.20     0.11  -0.03   0.14     0.07  -0.13  -0.36
   6   1     0.08   0.03   0.00     0.10  -0.02  -0.09    -0.04  -0.03   0.01
   7   1     0.01   0.03  -0.01     0.01   0.05  -0.08     0.05  -0.05   0.02
   8   6     0.02   0.05  -0.11     0.18  -0.06  -0.13     0.05  -0.10  -0.03
   9   1    -0.04  -0.04   0.03    -0.13   0.02   0.04    -0.02   0.13  -0.00
  10   1    -0.02  -0.04   0.08    -0.07   0.02   0.19    -0.01   0.04   0.03
  11   6     0.12   0.13  -0.05     0.12  -0.04  -0.08     0.03  -0.11  -0.05
  12   1    -0.01   0.00  -0.04     0.00  -0.06  -0.07    -0.05  -0.05  -0.05
  13   1     0.01   0.03  -0.06     0.11  -0.01  -0.07     0.08  -0.03  -0.03
  14   1     0.06   0.00   0.07     0.09  -0.04   0.08    -0.04  -0.17  -0.13
  15   1     0.02  -0.02   0.08     0.01   0.00   0.03     0.09   0.01  -0.22
  16   1     0.02   0.01   0.02     0.10   0.02   0.10     0.06  -0.13   0.17
  17   1    -0.03  -0.03  -0.01     0.00   0.01   0.06    -0.09   0.03   0.22
  18  35    -0.03   0.01   0.02    -0.01   0.00   0.01    -0.00   0.00   0.00
  19   8     0.20   0.26  -0.05    -0.22  -0.08  -0.26     0.02   0.09  -0.10
  20   6    -0.38  -0.31  -0.20    -0.27   0.12  -0.05    -0.08   0.29   0.12
  21   1    -0.44  -0.01  -0.05     0.18  -0.02  -0.12    -0.23   0.11   0.21
  22   1     0.07   0.04  -0.02    -0.33  -0.11  -0.09     0.15   0.30   0.04
  23   1    -0.08  -0.41  -0.14    -0.11   0.26   0.20    -0.00  -0.10  -0.10
                      7                      8                      9
                        a                      a                      a 
 Frequencies --   216.6095               287.6631               311.1883
 Red. masses --     7.7703                 7.6783                 8.8629
 Frc consts  --     0.0000                 0.0000                 0.0000
 IR Inten    --     0.4026                 0.1598                 0.2539
 Raman Activ --     0.0000                 0.0000                 0.0000
 Depolar     --     0.0000                 0.0000                 0.0000
 Atom AN      X      Y      Z        X      Y      Z        X      Y      Z
   1   6    -0.09  -0.10   0.16    -0.10  -0.07   0.24    -0.03  -0.07  -0.13
   2   6     0.04   0.02  -0.11     0.37  -0.03  -0.05    -0.15  -0.06  -0.09
   3   6    -0.15  -0.04   0.19    -0.06  -0.14  -0.02     0.00   0.04  -0.34
   4   1     0.02  -0.02  -0.06     0.02  -0.02  -0.07     0.05  -0.06  -0.08
   5   6    -0.07  -0.05  -0.18    -0.11   0.10   0.27    -0.07   0.01  -0.04
   6   1    -0.10   0.01   0.10    -0.01  -0.01   0.03     0.07  -0.04  -0.20
   7   1     0.00  -0.08   0.09    -0.07  -0.10  -0.03    -0.06   0.12  -0.15
   8   6    -0.04  -0.04  -0.07    -0.08   0.13   0.14    -0.08   0.02   0.22
   9   1     0.06   0.05  -0.00     0.29  -0.01   0.10    -0.08  -0.04  -0.05
  10   1     0.02   0.00  -0.08     0.16  -0.02  -0.23    -0.05   0.00   0.02
  11   6     0.05   0.03  -0.01     0.07  -0.07  -0.21     0.15  -0.14  -0.07
  12   1    -0.05  -0.03  -0.05    -0.03   0.17   0.03     0.04   0.15   0.10
  13   1     0.01  -0.00  -0.05    -0.06  -0.02   0.15    -0.13  -0.03   0.17
  14   1    -0.10  -0.06  -0.10     0.02   0.19   0.10     0.04   0.04   0.02
  15   1     0.04  -0.01  -0.10    -0.15   0.00   0.18    -0.06  -0.01   0.03
  16   1     0.01  -0.12   0.07    -0.03  -0.15   0.08    -0.07   0.02  -0.08
  17   1    -0.08   0.01   0.12    -0.10   0.01   0.15     0.05  -0.03  -0.07
  18  35     0.00   0.00   0.00     0.00  -0.00   0.00    -0.00   0.00   0.00
  19   8     0.38   0.39   0.11    -0.00  -0.07  -0.31     0.43   0.02   0.03
  20   6    -0.09  -0.12  -0.07    -0.08   0.11  -0.13    -0.17   0.11   0.37
  21   1     0.16  -0.04  -0.29    -0.02   0.02   0.01    -0.08   0.04   0.13
  22   1    -0.30  -0.28  -0.06    -0.04   0.08  -0.06    -0.17   0.11   0.02
  23   1    -0.05   0.11   0.25    -0.02   0.03  -0.02    -0.06  -0.01   0.26
                     10                     11                     12
                        a                      a                      a 
 Frequencies --   372.2254               397.1681               481.3603
 Red. masses --     7.5353                 8.3773                 8.3242
 Frc consts  --     0.0000                 0.0000                 0.0000
 IR Inten    --     0.1128                 0.1769                 0.2711
 Raman Activ --     0.0000                 0.0000                 0.0000
 Depolar     --     0.0000                 0.0000                 0.0000
 Atom AN      X      Y      Z        X      Y      Z        X      Y      Z
   1   6     0.19   0.07  -0.06    -0.21   0.31  -0.13    -0.15   0.30   0.01
   2   6    -0.02  -0.08   0.24    -0.05   0.16   0.09     0.24   0.08   0.19
   3   6    -0.12  -0.13   0.07     0.15  -0.27   0.27     0.09  -0.21  -0.22
   4   1    -0.02  -0.06  -0.02     0.04   0.07  -0.08    -0.06  -0.03  -0.01
   5   6    -0.07  -0.33  -0.08     0.22   0.10  -0.03     0.08  -0.10   0.04
   6   1    -0.02  -0.00   0.07    -0.12   0.01   0.26     0.14  -0.13  -0.21
   7   1    -0.02  -0.07   0.03     0.13  -0.30   0.15    -0.01   0.14  -0.10
   8   6     0.09   0.24   0.33    -0.23   0.02  -0.04    -0.19  -0.23   0.02
   9   1    -0.07  -0.05   0.03    -0.06   0.08  -0.00     0.20   0.05   0.13
  10   1    -0.02   0.03   0.13    -0.03  -0.04   0.08     0.11  -0.04  -0.10
  11   6    -0.06  -0.04  -0.08     0.10  -0.06  -0.16    -0.24  -0.21   0.05
  12   1     0.13   0.27   0.16    -0.09   0.03  -0.03    -0.11  -0.16  -0.03
  13   1    -0.11  -0.01   0.29    -0.03  -0.02   0.02     0.09  -0.08  -0.04
  14   1    -0.08  -0.24  -0.05     0.05  -0.00  -0.01     0.06  -0.06   0.04
  15   1     0.06  -0.04  -0.16     0.05   0.06  -0.05    -0.04   0.02  -0.05
  16   1    -0.00   0.14  -0.06    -0.11   0.19  -0.08    -0.11   0.23  -0.06
  17   1     0.11  -0.05  -0.13     0.03   0.05  -0.12     0.08   0.02  -0.13
  18  35     0.00   0.00  -0.00    -0.00  -0.00   0.00     0.00  -0.00  -0.00
  19   8    -0.03   0.17  -0.14     0.15  -0.23  -0.16     0.03   0.29   0.13
  20   6     0.02   0.08  -0.25    -0.07  -0.03   0.10     0.02   0.05  -0.06
  21   1     0.02   0.02  -0.11    -0.01  -0.02   0.09    -0.00   0.03  -0.10
  22   1     0.02  -0.02  -0.05    -0.09   0.06  -0.03     0.03  -0.05   0.02
  23   1     0.01   0.03  -0.09    -0.03  -0.00   0.11     0.01   0.00  -0.03
                     13                     14                     15
                        a                      a                      a 
 Frequencies --   493.3782               653.5697               809.5160
 Red. masses --     8.6674                 8.4367                 4.6611
 Frc consts  --     0.0000                 0.0000                 0.0000
 IR Inten    --     0.1800                 0.2530                 0.0618
 Raman Activ --     0.0000                 0.0000                 0.0000
 Depolar     --     0.0000                 0.0000                 0.0000
 Atom AN      X      Y      Z        X      Y      Z        X      Y      Z
   1   6     0.02   0.15  -0.01    -0.11  -0.04   0.04     0.03  -0.10   0.23
   2   6     0.21  -0.07   0.21    -0.06   0.00   0.01    -0.01  -0.14   0.00
   3   6    -0.17   0.14  -0.04    -0.07   0.35   0.17    -0.03   0.05  -0.26
   4   1    -0.01   0.03  -0.09     0.11   0.01   0.05     0.00  -0.02   0.01
   5   6    -0.18  -0.29   0.03    -0.12   0.05   0.04    -0.05  -0.14  -0.23
   6   1     0.06   0.08   0.01     0.01   0.04  -0.04    -0.18   0.13   0.16
   7   1    -0.11   0.04  -0.05    -0.09   0.14  -0.01     0.15  -0.23   0.06
   8   6     0.06   0.28  -0.26    -0.08  -0.31   0.20     0.03   0.11   0.25
   9   1     0.19  -0.04   0.14     0.13  -0.00   0.09     0.00   0.06  -0.00
  10   1     0.10   0.01  -0.11     0.02  -0.01  -0.17    -0.00   0.03  -0.00
  11   6    -0.06   0.20  -0.16     0.38   0.00   0.19     0.03   0.16   0.02
  12   1    -0.03  -0.03  -0.10    -0.09  -0.14   0.01    -0.17  -0.22  -0.05
  13   1     0.10   0.11  -0.16     0.01  -0.04  -0.04     0.19   0.13  -0.18
  14   1    -0.13  -0.23  -0.03    -0.17  -0.17  -0.07     0.17   0.22   0.05
  15   1     0.06  -0.04  -0.13     0.19   0.02  -0.12    -0.21  -0.12   0.18
  16   1     0.04   0.09   0.02    -0.15   0.16  -0.08    -0.17   0.22  -0.07
  17   1    -0.06  -0.02  -0.07     0.19  -0.04  -0.11     0.20  -0.14  -0.17
  18  35     0.00   0.00   0.00     0.00  -0.00  -0.00    -0.00   0.00   0.00
  19   8     0.10  -0.27   0.03     0.05  -0.13  -0.26     0.01   0.02   0.01
  20   6    -0.02  -0.10   0.27    -0.04   0.08  -0.18    -0.01   0.01  -0.02
  21   1    -0.01  -0.04   0.14    -0.00   0.01   0.00    -0.00   0.00  -0.00
  22   1    -0.07   0.05   0.02    -0.01   0.06  -0.07    -0.00  -0.00  -0.00
  23   1    -0.01  -0.03   0.14    -0.01   0.03  -0.05    -0.00   0.00  -0.00
                     16                     17                     18
                        a                      a                      a 
 Frequencies --   843.4043               869.0942               914.0965
 Red. masses --     8.7456                 7.1264                 7.0142
 Frc consts  --     0.0000                 0.0000                 0.0000
 IR Inten    --     0.5009                 0.2314                 0.3116
 Raman Activ --     0.0000                 0.0000                 0.0000
 Depolar     --     0.0000                 0.0000                 0.0000
 Atom AN      X      Y      Z        X      Y      Z        X      Y      Z
   1   6    -0.17   0.05  -0.02    -0.08   0.27  -0.02    -0.06   0.29   0.01
   2   6    -0.28   0.03  -0.03     0.03  -0.00  -0.29    -0.37  -0.05  -0.19
   3   6     0.17  -0.25  -0.12     0.04  -0.27   0.19     0.11   0.17   0.04
   4   1     0.11   0.02   0.15     0.05   0.01   0.05    -0.07  -0.07  -0.01
   5   6    -0.19  -0.06  -0.02    -0.12  -0.26   0.03     0.03  -0.22   0.04
   6   1    -0.05  -0.09  -0.03     0.23  -0.15  -0.14     0.03   0.11   0.11
   7   1     0.03  -0.15  -0.04    -0.12   0.15  -0.06     0.16   0.04   0.10
   8   6     0.16   0.12  -0.14     0.04   0.27   0.15     0.21  -0.07   0.06
   9   1     0.18   0.01   0.14    -0.18  -0.01  -0.19     0.16  -0.00   0.10
  10   1    -0.00  -0.01  -0.31    -0.05   0.02   0.13    -0.03  -0.07  -0.35
  11   6     0.49   0.02   0.07     0.14   0.02   0.22    -0.30  -0.06   0.03
  12   1     0.05   0.18  -0.04    -0.11  -0.15  -0.04     0.17  -0.04   0.09
  13   1    -0.08   0.04   0.01     0.22   0.13  -0.15     0.10  -0.09   0.11
  14   1     0.00  -0.08   0.03    -0.11   0.07  -0.05     0.14  -0.02   0.09
  15   1    -0.07   0.00  -0.04    -0.08  -0.10   0.08     0.03  -0.15   0.16
  16   1     0.01   0.09   0.02    -0.09  -0.10  -0.03     0.12   0.03   0.10
  17   1    -0.03   0.00  -0.03    -0.09   0.13   0.09    -0.04   0.15   0.12
  18  35    -0.00  -0.00  -0.00     0.00  -0.00  -0.00    -0.00   0.00  -0.00
  19   8    -0.23   0.12   0.17     0.06  -0.08  -0.08     0.14  -0.06  -0.08
  20   6     0.00  -0.03   0.10    -0.02   0.05  -0.09     0.01   0.01  -0.08
  21   1     0.02   0.00  -0.06    -0.01   0.01  -0.01    -0.01  -0.00   0.04
  22   1     0.10  -0.12   0.12    -0.01   0.04  -0.04    -0.06   0.08  -0.08
  23   1     0.01   0.00  -0.08    -0.00   0.01  -0.01    -0.00  -0.01   0.05
                     19                     20                     21
                        a                      a                      a 
 Frequencies --   935.7319               952.5775               964.0819
 Red. masses --     7.7406                 5.2830                 6.7921
 Frc consts  --     0.0000                 0.0000                 0.0000
 IR Inten    --     0.0976                 0.3148                 0.5981
 Raman Activ --     0.0000                 0.0000                 0.0000
 Depolar     --     0.0000                 0.0000                 0.0000
 Atom AN      X      Y      Z        X      Y      Z        X      Y      Z
   1   6     0.30  -0.11   0.00     0.02  -0.03  -0.24    -0.03  -0.21   0.00
   2   6    -0.04   0.26  -0.05    -0.03  -0.01   0.12    -0.04   0.04   0.20
   3   6     0.29  -0.12   0.02     0.05  -0.10  -0.26    -0.00  -0.16   0.15
   4   1    -0.01   0.31  -0.05    -0.01   0.02   0.06    -0.02   0.02   0.08
   5   6    -0.28  -0.21   0.04    -0.04   0.20   0.11    -0.02   0.07  -0.22
   6   1     0.21   0.05   0.08    -0.21  -0.01   0.04    -0.01  -0.17  -0.15
   7   1     0.06  -0.04  -0.01     0.11  -0.19   0.01     0.09   0.21   0.07
   8   6    -0.28  -0.22   0.02    -0.04   0.13   0.20     0.02   0.13  -0.18
   9   1     0.02  -0.00   0.01     0.05  -0.29   0.09     0.10   0.19   0.10
  10   1     0.01   0.32  -0.06     0.01   0.05  -0.05     0.02  -0.01  -0.07
  11   6    -0.07   0.28  -0.05    -0.07   0.02   0.24    -0.12   0.04   0.37
  12   1    -0.01  -0.05   0.05     0.02  -0.25   0.08     0.15   0.06   0.05
  13   1    -0.18  -0.02  -0.01     0.06   0.15  -0.17    -0.20   0.10  -0.06
  14   1    -0.02  -0.05   0.04     0.07  -0.27   0.09     0.05   0.17  -0.02
  15   1    -0.16  -0.02  -0.01     0.01   0.19  -0.22    -0.19   0.03   0.02
  16   1     0.07  -0.05  -0.00     0.02  -0.27  -0.03     0.12   0.15   0.06
  17   1     0.19   0.05   0.08    -0.17   0.07   0.11    -0.09  -0.19  -0.17
  18  35    -0.00  -0.00  -0.00    -0.00   0.00   0.00    -0.00  -0.00   0.00
  19   8     0.02  -0.01  -0.02     0.13  -0.06  -0.01     0.19  -0.16  -0.10
  20   6     0.01  -0.02   0.00    -0.03   0.08  -0.14    -0.00   0.05  -0.17
  21   1    -0.01  -0.00   0.03    -0.02   0.02  -0.01    -0.02   0.00   0.04
  22   1    -0.03   0.03  -0.03    -0.04   0.06  -0.07    -0.09   0.14  -0.14
  23   1     0.00  -0.01   0.04    -0.01   0.00   0.01    -0.00  -0.00   0.06
                     22                     23                     24
                        a                      a                      a 
 Frequencies --  1003.8032              1074.7077              1079.4782
 Red. masses --     8.0043                 6.6223                 9.7917
 Frc consts  --     0.0000                 0.0000                 0.0000
 IR Inten    --     0.1222                 0.7839                 1.1004
 Raman Activ --     0.0000                 0.0000                 0.0000
 Depolar     --     0.0000                 0.0000                 0.0000
 Atom AN      X      Y      Z        X      Y      Z        X      Y      Z
   1   6     0.09  -0.28   0.18    -0.01  -0.07  -0.06     0.04  -0.07   0.04
   2   6    -0.27   0.00  -0.17     0.01   0.10   0.06     0.01   0.13  -0.06
   3   6     0.13  -0.23   0.13     0.09   0.14   0.16     0.04   0.10   0.02
   4   1    -0.07   0.00  -0.06    -0.00  -0.18   0.01    -0.01  -0.21   0.03
   5   6     0.08   0.28   0.15    -0.09  -0.05  -0.06     0.00  -0.08   0.08
   6   1     0.17  -0.09  -0.06    -0.05  -0.03  -0.03    -0.02   0.03   0.03
   7   1    -0.09   0.04  -0.06     0.28   0.24   0.19     0.10   0.04   0.06
   8   6     0.13   0.25   0.10    -0.02   0.12  -0.05    -0.05   0.11  -0.17
   9   1     0.07  -0.00   0.04     0.01  -0.18   0.03    -0.02  -0.07  -0.02
  10   1    -0.03   0.00  -0.20     0.01   0.32  -0.01     0.00   0.27  -0.01
  11   6    -0.27  -0.01  -0.21    -0.03  -0.23   0.07     0.04  -0.23  -0.07
  12   1    -0.10  -0.04  -0.07    -0.17   0.10  -0.13    -0.19   0.19  -0.17
  13   1     0.17   0.08  -0.07     0.10  -0.02   0.02    -0.01  -0.00  -0.00
  14   1    -0.12  -0.12  -0.04     0.17  -0.06   0.11     0.08  -0.08   0.07
  15   1     0.20   0.11  -0.11    -0.11   0.01  -0.00     0.07  -0.06   0.05
  16   1    -0.12   0.12  -0.06    -0.16  -0.12  -0.10    -0.12  -0.03  -0.08
  17   1     0.21  -0.13  -0.11    -0.06  -0.04  -0.03     0.06  -0.03  -0.03
  18  35     0.00  -0.00   0.00    -0.00  -0.00   0.00     0.00   0.00  -0.00
  19   8    -0.01   0.04  -0.02    -0.06   0.16  -0.38     0.10  -0.23   0.50
  20   6     0.04  -0.05   0.06     0.09  -0.17   0.28    -0.17   0.23  -0.36
  21   1    -0.01  -0.01   0.02     0.03  -0.02  -0.02     0.01   0.01   0.03
  22   1    -0.02   0.01  -0.01     0.06  -0.09   0.10    -0.02   0.08  -0.08
  23   1     0.01  -0.02   0.04     0.02  -0.02  -0.02    -0.03   0.06  -0.04
                     25                     26                     27
                        a                      a                      a 
 Frequencies --  1094.1607              1108.7894              1126.8820
 Red. masses --     6.1462                 5.1929                 4.2973
 Frc consts  --     0.0000                 0.0000                 0.0000
 IR Inten    --     0.3715                 0.2004                 0.3410
 Raman Activ --     0.0000                 0.0000                 0.0000
 Depolar     --     0.0000                 0.0000                 0.0000
 Atom AN      X      Y      Z        X      Y      Z        X      Y      Z
   1   6     0.31   0.10   0.10    -0.10  -0.20  -0.17     0.11   0.02  -0.06
   2   6    -0.10  -0.04  -0.11    -0.01   0.38  -0.01    -0.08  -0.08   0.08
   3   6    -0.29  -0.08  -0.04    -0.09   0.03  -0.05    -0.00  -0.01   0.11
   4   1     0.02   0.03  -0.04    -0.00  -0.29  -0.00     0.04   0.06  -0.20
   5   6     0.27  -0.08   0.07     0.17  -0.19   0.18     0.01   0.06  -0.13
   6   1    -0.30  -0.20  -0.18     0.17   0.16   0.14     0.04  -0.04  -0.04
   7   1    -0.05   0.02  -0.00    -0.15  -0.14  -0.09     0.02   0.11   0.03
   8   6    -0.29   0.09  -0.09     0.01   0.06   0.08    -0.10   0.03   0.10
   9   1     0.04  -0.05   0.02     0.03   0.36  -0.00     0.05  -0.04   0.06
  10   1    -0.01   0.01  -0.09     0.00   0.12  -0.03     0.00  -0.04  -0.06
  11   6     0.05   0.02   0.15    -0.01  -0.12   0.03     0.05  -0.02  -0.14
  12   1    -0.12   0.06  -0.05     0.14  -0.17   0.12    -0.00  -0.11   0.04
  13   1    -0.22   0.13  -0.13    -0.19   0.20  -0.19     0.07   0.01  -0.02
  14   1     0.15  -0.07   0.07     0.02  -0.02   0.03     0.03   0.07  -0.02
  15   1     0.22  -0.14   0.15     0.11  -0.09   0.09    -0.06   0.02  -0.01
  16   1     0.12   0.05   0.05     0.03  -0.03  -0.01     0.13  -0.01   0.05
  17   1     0.26   0.15   0.14    -0.10  -0.07  -0.06    -0.07  -0.01   0.00
  18  35     0.00  -0.00   0.00    -0.00   0.00   0.00    -0.00   0.00   0.00
  19   8    -0.01   0.02  -0.13     0.03   0.03  -0.10     0.15   0.05   0.07
  20   6     0.01  -0.02   0.07    -0.06   0.01   0.09    -0.37  -0.12  -0.00
  21   1     0.00   0.00  -0.03     0.04  -0.00  -0.05     0.32  -0.17   0.25
  22   1     0.02  -0.03   0.03     0.08  -0.11   0.11     0.23  -0.00   0.15
  23   1     0.00  -0.01  -0.02    -0.01   0.04  -0.10    -0.08   0.39  -0.40
                     28                     29                     30
                        a                      a                      a 
 Frequencies --  1128.7626              1144.2764              1162.2351
 Red. masses --     4.6564                 3.3011                 6.4233
 Frc consts  --     0.0000                 0.0000                 0.0000
 IR Inten    --     0.3418                 0.3876                 0.4603
 Raman Activ --     0.0000                 0.0000                 0.0000
 Depolar     --     0.0000                 0.0000                 0.0000
 Atom AN      X      Y      Z        X      Y      Z        X      Y      Z
   1   6     0.14   0.03  -0.06     0.03  -0.04  -0.07     0.07   0.11   0.18
   2   6    -0.06  -0.10   0.07    -0.08   0.02   0.09     0.09  -0.18  -0.12
   3   6     0.10   0.06   0.09    -0.15  -0.03   0.15     0.26   0.08  -0.12
   4   1     0.03   0.17  -0.15     0.02  -0.21  -0.12    -0.04  -0.20   0.12
   5   6    -0.06   0.07  -0.10     0.10  -0.01  -0.12    -0.23   0.10   0.08
   6   1    -0.04  -0.05  -0.05     0.23   0.07   0.05     0.11   0.16   0.16
   7   1     0.02   0.03   0.02     0.03   0.18   0.06     0.12  -0.10   0.02
   8   6    -0.16   0.08   0.09     0.03  -0.02   0.07    -0.11   0.09  -0.16
   9   1     0.04   0.01   0.05     0.05  -0.07   0.07    -0.07  -0.06  -0.08
  10   1     0.01   0.14  -0.06    -0.01  -0.33  -0.05    -0.01  -0.20   0.09
  11   6     0.03  -0.16  -0.12     0.07   0.10  -0.16    -0.14  -0.22   0.21
  12   1     0.00  -0.14   0.06    -0.04  -0.01  -0.02    -0.02   0.09  -0.03
  13   1     0.13  -0.02   0.00    -0.11   0.11  -0.11    -0.23   0.12  -0.10
  14   1    -0.08   0.11  -0.08     0.19   0.00   0.08    -0.25   0.02  -0.11
  15   1     0.12  -0.09   0.10    -0.36   0.20  -0.17    -0.01   0.07  -0.10
  16   1     0.21   0.03   0.10    -0.05  -0.10  -0.05     0.10   0.17   0.09
  17   1    -0.24  -0.11  -0.09     0.26   0.19   0.18     0.16   0.06   0.04
  18  35    -0.00   0.00  -0.00     0.00   0.00  -0.00    -0.00   0.00   0.00
  19   8     0.01  -0.20   0.04    -0.03  -0.14   0.06     0.15  -0.03  -0.13
  20   6    -0.02   0.32   0.07    -0.01   0.17   0.02    -0.09   0.05   0.07
  21   1    -0.16   0.17  -0.40    -0.09   0.09  -0.19     0.05   0.01  -0.08
  22   1     0.06  -0.29   0.19     0.02  -0.14   0.09     0.09  -0.11   0.12
  23   1     0.02  -0.18  -0.02     0.01  -0.10   0.01    -0.01   0.05  -0.14
                     31                     32                     33
                        a                      a                      a 
 Frequencies --  1186.4534              1241.5624              1246.1062
 Red. masses --     6.9410                 4.3150                 3.6060
 Frc consts  --     0.0000                 0.0000                 0.0000
 IR Inten    --     0.5589                 0.3763                 0.1633
 Raman Activ --     0.0000                 0.0000                 0.0000
 Depolar     --     0.0000                 0.0000                 0.0000
 Atom AN      X      Y      Z        X      Y      Z        X      Y      Z
   1   6    -0.20  -0.06   0.14    -0.06   0.02   0.15    -0.08   0.15   0.20
   2   6     0.09   0.10  -0.15     0.13  -0.01  -0.32    -0.02  -0.14  -0.06
   3   6    -0.09  -0.06  -0.06    -0.05   0.01   0.02    -0.11  -0.09   0.06
   4   1    -0.01   0.22  -0.07     0.04  -0.05  -0.16    -0.00  -0.17   0.03
   5   6     0.02  -0.06   0.15    -0.08  -0.01   0.20     0.19   0.12  -0.18
   6   1    -0.15  -0.08  -0.06    -0.08  -0.05  -0.04     0.27   0.12   0.10
   7   1     0.04   0.01   0.03     0.23   0.17   0.15    -0.26  -0.09  -0.13
   8   6     0.24  -0.08  -0.14    -0.08   0.00   0.06    -0.01  -0.10  -0.06
   9   1    -0.07   0.00  -0.09    -0.10   0.03  -0.16    -0.02  -0.49   0.01
  10   1    -0.00   0.04   0.07    -0.01  -0.02   0.08     0.01   0.42  -0.04
  11   6    -0.15   0.26   0.13     0.15  -0.04  -0.17     0.02   0.11   0.06
  12   1     0.16   0.07   0.03     0.16  -0.16   0.14     0.14  -0.03   0.08
  13   1     0.05  -0.12   0.14    -0.07   0.07  -0.08    -0.14   0.01  -0.01
  14   1     0.11  -0.16   0.11     0.17  -0.26   0.18     0.14   0.03   0.01
  15   1    -0.01   0.03  -0.05    -0.11   0.14  -0.16    -0.01   0.03  -0.02
  16   1    -0.23   0.02  -0.08     0.24   0.27   0.18     0.00   0.13   0.06
  17   1     0.09  -0.03  -0.04    -0.13  -0.15  -0.15    -0.12  -0.08  -0.09
  18  35    -0.00  -0.00   0.00    -0.00   0.00   0.00     0.00   0.00  -0.00
  19   8     0.22  -0.20  -0.09    -0.13   0.05   0.07     0.01  -0.01  -0.02
  20   6    -0.20   0.17   0.09     0.06  -0.04  -0.04     0.00   0.01   0.01
  21   1     0.05   0.04  -0.18    -0.03  -0.01   0.05    -0.01   0.00  -0.01
  22   1     0.14  -0.20   0.21    -0.04   0.05  -0.05     0.00  -0.02   0.01
  23   1    -0.03   0.04  -0.22     0.01  -0.02   0.08     0.00  -0.00  -0.00
                     34                     35                     36
                        a                      a                      a 
 Frequencies --  1251.3480              1307.9326              1329.5219
 Red. masses --     3.6214                 5.7042                 3.8938
 Frc consts  --     0.0000                 0.0000                 0.0000
 IR Inten    --     0.3507                 0.3233                 0.1228
 Raman Activ --     0.0000                 0.0000                 0.0000
 Depolar     --     0.0000                 0.0000                 0.0000
 Atom AN      X      Y      Z        X      Y      Z        X      Y      Z
   1   6    -0.21   0.04   0.04     0.02  -0.03   0.12    -0.21  -0.11  -0.12
   2   6     0.08  -0.04   0.14     0.01   0.05  -0.01     0.01  -0.26   0.01
   3   6     0.14  -0.03   0.05     0.04   0.23   0.14     0.13   0.15   0.10
   4   1    -0.01  -0.07  -0.08     0.02   0.49  -0.01    -0.04  -0.12   0.19
   5   6    -0.13   0.05  -0.07    -0.02  -0.05  -0.12     0.15  -0.10   0.08
   6   1    -0.15  -0.15  -0.13     0.01   0.04   0.02    -0.20  -0.11  -0.10
   7   1     0.18   0.12   0.09    -0.26  -0.13  -0.13    -0.15  -0.09  -0.09
   8   6     0.16  -0.03   0.02    -0.00   0.20  -0.13    -0.11   0.13  -0.04
   9   1    -0.01  -0.14   0.03    -0.01  -0.07  -0.00     0.00   0.19  -0.02
  10   1     0.01   0.12   0.06    -0.00  -0.12   0.00     0.01   0.38  -0.01
  11   6    -0.02   0.01  -0.28     0.00  -0.50   0.02    -0.02   0.01  -0.08
  12   1     0.31  -0.17   0.19     0.21  -0.11   0.11     0.09  -0.09   0.07
  13   1    -0.28   0.21  -0.20    -0.05   0.08  -0.06     0.18  -0.09   0.08
  14   1    -0.16   0.11  -0.10     0.21  -0.06   0.11    -0.06   0.07  -0.05
  15   1     0.21  -0.16   0.16    -0.14   0.03  -0.04    -0.25   0.18  -0.18
  16   1    -0.21  -0.06  -0.08    -0.18  -0.03  -0.09     0.17   0.11   0.10
  17   1     0.20   0.15   0.13     0.09   0.01   0.02     0.28   0.19   0.17
  18  35    -0.00   0.00   0.00     0.00  -0.00  -0.00     0.00  -0.00  -0.00
  19   8    -0.04   0.01   0.07    -0.03   0.07   0.02     0.03  -0.01  -0.00
  20   6     0.00  -0.00  -0.01     0.02  -0.02  -0.03    -0.01   0.01   0.01
  21   1    -0.00  -0.00   0.02    -0.01  -0.01   0.02     0.01  -0.00  -0.01
  22   1     0.00   0.01  -0.01    -0.02   0.02  -0.03     0.01   0.00   0.01
  23   1    -0.00  -0.00   0.03     0.00   0.00   0.02     0.00  -0.01  -0.00
                     37                     38                     39
                        a                      a                      a 
 Frequencies --  1336.9101              1346.0570              1350.2615
 Red. masses --     3.7062                 4.8862                 4.7484
 Frc consts  --     0.0000                 0.0000                 0.0000
 IR Inten    --     0.3644                 0.1411                 0.1865
 Raman Activ --     0.0000                 0.0000                 0.0000
 Depolar     --     0.0000                 0.0000                 0.0000
 Atom AN      X      Y      Z        X      Y      Z        X      Y      Z
   1   6     0.07   0.07   0.06    -0.22  -0.16  -0.12     0.15  -0.03   0.10
   2   6    -0.10  -0.12  -0.00     0.07  -0.08   0.06    -0.01   0.08   0.01
   3   6    -0.00   0.03  -0.11    -0.27  -0.19  -0.17     0.11  -0.01   0.02
   4   1     0.11   0.01  -0.67     0.05   0.22  -0.10     0.03  -0.40  -0.12
   5   6     0.21  -0.09   0.17    -0.06   0.15  -0.05    -0.13   0.06  -0.07
   6   1    -0.03   0.05   0.04     0.31   0.22   0.19     0.02  -0.04  -0.04
   7   1     0.08  -0.01   0.03     0.21   0.14   0.13    -0.03  -0.09  -0.03
   8   6     0.05  -0.00  -0.08    -0.04   0.15  -0.07    -0.34   0.18  -0.26
   9   1     0.01   0.08   0.02     0.02   0.05   0.02     0.02   0.00   0.02
  10   1    -0.01   0.16  -0.07     0.01   0.14   0.07    -0.01  -0.20   0.02
  11   6     0.04  -0.07   0.26     0.10  -0.13   0.15     0.09   0.15   0.10
  12   1     0.06   0.05   0.01     0.07   0.00   0.03     0.30  -0.22   0.21
  13   1    -0.03   0.01  -0.01     0.20  -0.07   0.07     0.25  -0.24   0.23
  14   1    -0.26   0.15  -0.17     0.06  -0.02   0.04     0.06  -0.06   0.05
  15   1    -0.17   0.14  -0.13     0.23  -0.08   0.07     0.08  -0.08   0.08
  16   1    -0.17  -0.06  -0.09     0.15   0.09   0.09    -0.16  -0.10  -0.09
  17   1    -0.05  -0.00   0.01     0.28   0.16   0.14     0.07  -0.03  -0.02
  18  35    -0.00   0.00   0.00    -0.00  -0.00  -0.00    -0.00   0.00   0.00
  19   8    -0.13   0.03   0.04    -0.04   0.02   0.00    -0.05   0.00   0.01
  20   6     0.05  -0.03  -0.02     0.02  -0.01  -0.02     0.02  -0.01  -0.00
  21   1    -0.06   0.01  -0.00    -0.02   0.00   0.02    -0.01   0.00  -0.00
  22   1    -0.06   0.05  -0.06    -0.02   0.01  -0.02    -0.02   0.02  -0.02
  23   1    -0.00   0.04  -0.01     0.00   0.01   0.01     0.00   0.00   0.01
                     40                     41                     42
                        a                      a                      a 
 Frequencies --  1353.3702              1362.6634              1399.7315
 Red. masses --     5.2046                 4.6590                 2.4889
 Frc consts  --     0.0000                 0.0000                 0.0000
 IR Inten    --     0.0520                 0.2162                 0.1039
 Raman Activ --     0.0000                 0.0000                 0.0000
 Depolar     --     0.0000                 0.0000                 0.0000
 Atom AN      X      Y      Z        X      Y      Z        X      Y      Z
   1   6     0.19   0.22   0.05     0.16   0.05   0.12     0.02   0.02   0.01
   2   6    -0.03  -0.47   0.01    -0.12   0.05  -0.03    -0.01  -0.01  -0.01
   3   6    -0.04  -0.07   0.02    -0.25  -0.07  -0.14    -0.05   0.00   0.00
   4   1    -0.02  -0.01   0.10    -0.04   0.14   0.46    -0.01   0.02   0.11
   5   6    -0.12   0.20  -0.04     0.25  -0.12   0.17     0.01  -0.00   0.01
   6   1     0.10   0.05   0.05     0.04   0.09   0.07     0.04   0.00  -0.02
   7   1    -0.00   0.05   0.01     0.24   0.19   0.15     0.04  -0.01   0.04
   8   6    -0.00  -0.08  -0.02    -0.16   0.06  -0.09    -0.01   0.00   0.00
   9   1     0.02   0.55  -0.03     0.03  -0.07   0.03     0.01   0.02   0.00
  10   1     0.00   0.20  -0.02    -0.01   0.01  -0.06    -0.00   0.01   0.00
  11   6     0.00   0.02  -0.04     0.11  -0.05  -0.16     0.03  -0.01  -0.08
  12   1     0.03   0.02   0.02     0.17  -0.14   0.12     0.01  -0.03   0.01
  13   1    -0.11   0.05  -0.06     0.04  -0.05   0.04    -0.02   0.00  -0.00
  14   1     0.19  -0.17   0.15    -0.26   0.16  -0.17     0.01   0.01   0.00
  15   1     0.06   0.04  -0.03    -0.11   0.09  -0.08     0.00   0.01  -0.02
  16   1    -0.24  -0.18  -0.15    -0.18  -0.07  -0.10    -0.02  -0.02  -0.01
  17   1    -0.11   0.02   0.02    -0.09  -0.07  -0.05    -0.01  -0.01  -0.01
  18  35     0.00  -0.00  -0.00    -0.00  -0.00  -0.00     0.00  -0.00  -0.00
  19   8     0.02  -0.00  -0.01     0.05   0.01  -0.01     0.04  -0.05   0.09
  20   6    -0.01   0.02  -0.01    -0.02   0.02  -0.02     0.08  -0.14   0.28
  21   1     0.01  -0.01   0.02     0.04  -0.02   0.04    -0.13   0.10  -0.45
  22   1     0.02  -0.03   0.02     0.06  -0.04   0.05    -0.31   0.37  -0.28
  23   1     0.00  -0.02   0.02     0.00  -0.03   0.06     0.02   0.23  -0.51
                     43                     44                     45
                        a                      a                      a 
 Frequencies --  1460.4277              1467.7750              1475.3122
 Red. masses --     1.5926                 1.8811                 2.0603
 Frc consts  --     0.0000                 0.0000                 0.0000
 IR Inten    --     0.0348                 0.0189                 0.0612
 Raman Activ --     0.0000                 0.0000                 0.0000
 Depolar     --     0.0000                 0.0000                 0.0000
 Atom AN      X      Y      Z        X      Y      Z        X      Y      Z
   1   6    -0.01   0.01   0.01     0.10  -0.12  -0.04     0.07  -0.08  -0.01
   2   6     0.00   0.01   0.01     0.01  -0.01   0.02    -0.03   0.02  -0.07
   3   6     0.05  -0.05  -0.01    -0.04   0.02   0.01     0.02  -0.00   0.01
   4   1     0.00  -0.00   0.01     0.00  -0.00  -0.01    -0.01  -0.03   0.01
   5   6     0.02   0.02  -0.01    -0.11  -0.09   0.04    -0.10  -0.11   0.04
   6   1    -0.12   0.05   0.11     0.07  -0.04  -0.08    -0.03  -0.01   0.00
   7   1    -0.07   0.16  -0.06     0.04  -0.08   0.04    -0.02  -0.00  -0.02
   8   6    -0.03  -0.01   0.00     0.12   0.10  -0.04    -0.16  -0.16   0.05
   9   1    -0.02  -0.00  -0.01    -0.05  -0.01  -0.03     0.14  -0.03   0.09
  10   1     0.00  -0.01  -0.02     0.01  -0.01  -0.05    -0.04  -0.02   0.16
  11   6     0.01  -0.00  -0.01     0.01   0.02   0.00    -0.02   0.02  -0.00
  12   1     0.03   0.04   0.02    -0.17  -0.34  -0.11     0.22   0.44   0.15
  13   1     0.04   0.01  -0.04    -0.25  -0.10   0.27     0.34   0.11  -0.35
  14   1    -0.04  -0.07  -0.02     0.15   0.30   0.08     0.14   0.29   0.07
  15   1    -0.05  -0.02   0.06     0.23   0.07  -0.26     0.21   0.07  -0.24
  16   1     0.02  -0.04   0.01    -0.13   0.35  -0.12    -0.10   0.20  -0.08
  17   1     0.03  -0.02  -0.03    -0.24   0.14   0.28    -0.16   0.06   0.16
  18  35     0.00  -0.00   0.00    -0.00   0.00   0.00     0.00  -0.00  -0.00
  19   8     0.02   0.03   0.00     0.00   0.00   0.00     0.00  -0.00  -0.00
  20   6     0.13   0.16   0.03     0.02   0.04  -0.00    -0.01   0.01   0.01
  21   1    -0.06  -0.04   0.42    -0.00  -0.01   0.10     0.04  -0.01  -0.01
  22   1    -0.51  -0.42  -0.08    -0.10  -0.09  -0.01    -0.01   0.01  -0.01
  23   1     0.05  -0.19  -0.44     0.01  -0.05  -0.08     0.00  -0.04  -0.02
                     46                     47                     48
                        a                      a                      a 
 Frequencies --  1477.7706              1485.6725              1488.1746
 Red. masses --     1.8891                 1.8433                 1.7457
 Frc consts  --     0.0000                 0.0000                 0.0000
 IR Inten    --     0.0837                 0.0890                 0.0501
 Raman Activ --     0.0000                 0.0000                 0.0000
 Depolar     --     0.0000                 0.0000                 0.0000
 Atom AN      X      Y      Z        X      Y      Z        X      Y      Z
   1   6     0.08  -0.12  -0.05     0.06  -0.09  -0.02    -0.04   0.07   0.02
   2   6    -0.05  -0.01  -0.16     0.06   0.02   0.09    -0.06  -0.01  -0.11
   3   6    -0.01   0.03   0.01     0.11  -0.13  -0.03    -0.06   0.07   0.02
   4   1     0.00   0.01   0.00    -0.00  -0.02   0.03    -0.01   0.01   0.04
   5   6     0.10   0.12  -0.06     0.01   0.03  -0.02    -0.03  -0.04   0.02
   6   1     0.03  -0.01  -0.04    -0.25   0.12   0.27     0.12  -0.09  -0.16
   7   1     0.02  -0.04   0.01    -0.16   0.34  -0.14     0.08  -0.19   0.07
   8   6     0.02   0.00   0.00    -0.03  -0.01  -0.00     0.02   0.00   0.00
   9   1     0.35  -0.00   0.21    -0.20  -0.01  -0.12     0.23   0.01   0.14
  10   1    -0.09   0.03   0.40     0.06  -0.03  -0.22    -0.07   0.02   0.25
  11   6    -0.00  -0.00  -0.01     0.00   0.01  -0.01    -0.02   0.01  -0.01
  12   1    -0.02  -0.03  -0.02     0.03   0.03   0.02    -0.02  -0.02  -0.02
  13   1    -0.03  -0.01   0.02     0.04  -0.00  -0.02    -0.03   0.00   0.02
  14   1    -0.16  -0.35  -0.09    -0.02  -0.09  -0.01     0.05   0.11   0.03
  15   1    -0.26  -0.09   0.29    -0.04  -0.03   0.07     0.07   0.04  -0.10
  16   1    -0.12   0.33  -0.11    -0.08   0.22  -0.07     0.06  -0.17   0.05
  17   1    -0.22   0.12   0.25    -0.14   0.08   0.17     0.10  -0.06  -0.13
  18  35    -0.00   0.00  -0.00    -0.00  -0.00   0.00    -0.00  -0.00   0.00
  19   8    -0.00  -0.00   0.00     0.03  -0.03   0.00     0.04  -0.02  -0.01
  20   6    -0.00   0.00   0.00     0.07  -0.10  -0.05     0.13  -0.07  -0.08
  21   1     0.01  -0.00  -0.00    -0.39   0.10  -0.02    -0.51   0.10   0.18
  22   1    -0.01   0.00  -0.00     0.11  -0.06   0.07    -0.01  -0.26   0.09
  23   1     0.00  -0.01  -0.01    -0.04   0.42   0.11    -0.04   0.46   0.04
                     49                     50                     51
                        a                      a                      a 
 Frequencies --  1498.5830              2797.9744              2891.6024
 Red. masses --     1.9955                 1.7122                 1.8555
 Frc consts  --     0.0000                 0.0000                 0.0000
 IR Inten    --     0.0284                 0.5228                 0.3780
 Raman Activ --     0.0000                 0.0000                 0.0000
 Depolar     --     0.0000                 0.0000                 0.0000
 Atom AN      X      Y      Z        X      Y      Z        X      Y      Z
   1   6    -0.04   0.07   0.01    -0.00  -0.00   0.00    -0.00  -0.00   0.00
   2   6    -0.07   0.00  -0.15    -0.00   0.00   0.00    -0.00   0.00   0.00
   3   6     0.14  -0.14  -0.03     0.01   0.00   0.01     0.00  -0.00   0.00
   4   1     0.01  -0.01  -0.03    -0.96   0.02  -0.13     0.00  -0.00   0.01
   5   6    -0.06  -0.08   0.02    -0.00   0.00   0.00     0.00   0.00   0.00
   6   1    -0.29   0.14   0.31     0.00  -0.01   0.01    -0.00   0.01  -0.01
   7   1    -0.19   0.38  -0.16     0.01   0.00  -0.02     0.00  -0.00  -0.00
   8   6     0.06   0.06  -0.02     0.00  -0.00   0.00    -0.00  -0.00   0.00
   9   1     0.32  -0.01   0.19     0.00  -0.00  -0.00     0.00  -0.00  -0.00
  10   1    -0.09   0.01   0.35    -0.00   0.00   0.00    -0.00   0.00   0.00
  11   6     0.01  -0.00   0.01     0.25  -0.00   0.05    -0.00  -0.00  -0.00
  12   1    -0.08  -0.17  -0.05     0.01  -0.00  -0.02     0.00  -0.00  -0.00
  13   1    -0.13  -0.04   0.13     0.00   0.01   0.01     0.00   0.00   0.00
  14   1     0.08   0.18   0.04    -0.00  -0.00  -0.00     0.00   0.00  -0.00
  15   1     0.12   0.04  -0.14     0.00  -0.01  -0.00    -0.00  -0.00  -0.00
  16   1     0.05  -0.15   0.05    -0.00   0.00  -0.00     0.00   0.00  -0.00
  17   1     0.09  -0.05  -0.12     0.00   0.00  -0.00    -0.00   0.00  -0.00
  18  35     0.00  -0.00   0.00     0.00  -0.00  -0.00    -0.00  -0.00   0.00
  19   8    -0.01   0.00   0.01     0.02  -0.00  -0.01     0.01  -0.00   0.01
  20   6    -0.04  -0.01   0.02    -0.00   0.00   0.00     0.25   0.12   0.03
  21   1     0.10  -0.01  -0.10    -0.00  -0.02  -0.00    -0.06  -0.38  -0.07
  22   1     0.05   0.10  -0.01     0.00  -0.00  -0.01     0.05   0.02  -0.01
  23   1     0.00  -0.06   0.03     0.00   0.00  -0.01    -0.88  -0.05  -0.04
                     52                     53                     54
                        a                      a                      a 
 Frequencies --  2925.3724              2957.0398              2959.3800
 Red. masses --     1.5109                 1.8963                 1.9445
 Frc consts  --     0.0000                 0.0000                 0.0000
 IR Inten    --     0.3109                 0.2188                 0.2990
 Raman Activ --     0.0000                 0.0000                 0.0000
 Depolar     --     0.0000                 0.0000                 0.0000
 Atom AN      X      Y      Z        X      Y      Z        X      Y      Z
   1   6     0.00  -0.00   0.00    -0.01  -0.02   0.04    -0.00  -0.00   0.01
   2   6    -0.00   0.00   0.00     0.21  -0.01  -0.16    -0.00   0.00   0.01
   3   6    -0.00   0.01  -0.01    -0.00  -0.02   0.03    -0.04  -0.14   0.23
   4   1    -0.02  -0.00   0.00    -0.00   0.00   0.00    -0.00   0.00  -0.00
   5   6    -0.00   0.00  -0.00    -0.01   0.05   0.07     0.03  -0.03  -0.06
   6   1     0.01  -0.05   0.04    -0.02   0.09  -0.06    -0.15   0.57  -0.40
   7   1     0.00   0.00  -0.00     0.03  -0.01  -0.04     0.31  -0.06  -0.45
   8   6    -0.00   0.00   0.00    -0.00   0.01   0.01     0.01  -0.02  -0.04
   9   1     0.00  -0.00  -0.01    -0.43   0.05   0.70     0.03  -0.00  -0.05
  10   1    -0.00   0.00  -0.00    -0.32   0.00  -0.10    -0.01  -0.00   0.00
  11   6     0.00   0.00  -0.00    -0.00  -0.00   0.00    -0.00  -0.01   0.01
  12   1     0.01  -0.00  -0.01     0.01  -0.00  -0.02    -0.08   0.00   0.11
  13   1    -0.00  -0.01  -0.00    -0.01  -0.02  -0.01     0.02   0.07   0.04
  14   1     0.00  -0.00  -0.00     0.12  -0.00  -0.18    -0.13   0.01   0.20
  15   1     0.00   0.00   0.00    -0.06  -0.18  -0.10     0.03   0.07   0.03
  16   1    -0.00  -0.00  -0.00     0.06  -0.01  -0.10     0.02  -0.00  -0.02
  17   1    -0.00   0.01  -0.00    -0.02   0.08  -0.05    -0.00   0.01  -0.01
  18  35    -0.00   0.00   0.00    -0.00  -0.00  -0.00    -0.00  -0.00   0.00
  19   8     0.01  -0.02   0.01     0.00  -0.00   0.00     0.00  -0.00   0.00
  20   6     0.04  -0.20  -0.05    -0.00  -0.00  -0.00    -0.00  -0.01  -0.00
  21   1     0.24   0.84   0.13     0.00   0.01   0.00     0.01   0.05   0.01
  22   1    -0.02  -0.02   0.02     0.00  -0.00  -0.00    -0.00   0.00   0.00
  23   1    -0.40  -0.07  -0.04    -0.00  -0.00  -0.00    -0.01  -0.00  -0.00
                     55                     56                     57
                        a                      a                      a 
 Frequencies --  2964.6213              2967.3473              2969.9996
 Red. masses --     1.8781                 1.8945                 1.8118
 Frc consts  --     0.0000                 0.0000                 0.0000
 IR Inten    --     0.2689                 0.1932                 0.2370
 Raman Activ --     0.0000                 0.0000                 0.0000
 Depolar     --     0.0000                 0.0000                 0.0000
 Atom AN      X      Y      Z        X      Y      Z        X      Y      Z
   1   6     0.00   0.04  -0.06     0.01   0.11  -0.13     0.03  -0.13   0.10
   2   6    -0.09   0.01   0.02     0.06   0.00   0.02    -0.08  -0.00  -0.03
   3   6     0.03  -0.05   0.02    -0.00  -0.03   0.03     0.00  -0.02   0.01
   4   1     0.00   0.00   0.00     0.00  -0.00   0.00     0.00  -0.00   0.00
   5   6     0.01   0.18   0.17    -0.00  -0.02  -0.01     0.02   0.01  -0.02
   6   1    -0.05   0.20  -0.15    -0.02   0.10  -0.07    -0.02   0.08  -0.05
   7   1    -0.05  -0.00   0.08     0.02  -0.01  -0.03     0.00  -0.00  -0.00
   8   6    -0.01  -0.01  -0.00    -0.07   0.08   0.18    -0.02   0.11   0.16
   9   1     0.08  -0.01  -0.14     0.03  -0.00  -0.03    -0.04   0.00   0.03
  10   1     0.25  -0.00   0.06    -0.25   0.01  -0.05     0.35  -0.01   0.07
  11   6     0.00  -0.00   0.00    -0.00   0.00   0.01    -0.00   0.00   0.00
  12   1     0.01  -0.00  -0.02     0.36  -0.01  -0.52     0.21   0.00  -0.30
  13   1     0.01   0.04   0.03    -0.09  -0.27  -0.15    -0.12  -0.41  -0.25
  14   1     0.15   0.01  -0.21    -0.01  -0.00   0.01    -0.06   0.01   0.10
  15   1    -0.19  -0.67  -0.39     0.03   0.09   0.05    -0.01  -0.06  -0.04
  16   1    -0.06   0.01   0.09    -0.13   0.03   0.19    -0.00  -0.02   0.02
  17   1     0.04  -0.15   0.10     0.10  -0.41   0.29    -0.11   0.49  -0.36
  18  35     0.00   0.00  -0.00    -0.00   0.00   0.00    -0.00   0.00   0.00
  19   8     0.00  -0.00   0.00     0.00  -0.00  -0.00     0.00  -0.00  -0.00
  20   6    -0.00  -0.00  -0.00     0.00   0.00  -0.00    -0.00   0.00  -0.00
  21   1     0.01   0.02   0.00    -0.00  -0.00  -0.00    -0.00  -0.00  -0.00
  22   1    -0.00  -0.00   0.00    -0.00   0.00   0.00    -0.00   0.00   0.00
  23   1    -0.00  -0.00  -0.00     0.00   0.00  -0.00     0.01   0.00   0.00
                     58                     59                     60
                        a                      a                      a 
 Frequencies --  2977.4543              2981.2407              2982.2689
 Red. masses --     1.5738                 1.5792                 1.5463
 Frc consts  --     0.0000                 0.0000                 0.0000
 IR Inten    --     0.4174                 0.3485                 0.4429
 Raman Activ --     0.0000                 0.0000                 0.0000
 Depolar     --     0.0000                 0.0000                 0.0000
 Atom AN      X      Y      Z        X      Y      Z        X      Y      Z
   1   6    -0.01   0.06  -0.07     0.02   0.02  -0.04    -0.02   0.02   0.01
   2   6    -0.10  -0.00  -0.13    -0.02  -0.00   0.01     0.07   0.00   0.02
   3   6    -0.03   0.05   0.01    -0.12   0.09   0.09    -0.00   0.04  -0.04
   4   1     0.01   0.00   0.00     0.01   0.00   0.00    -0.00   0.00  -0.00
   5   6     0.04  -0.01  -0.08    -0.04   0.02   0.08     0.13   0.08  -0.11
   6   1     0.04  -0.16   0.13     0.06  -0.30   0.25     0.04  -0.14   0.11
   7   1     0.10  -0.00  -0.16     0.35  -0.03  -0.55    -0.01   0.01   0.02
   8   6    -0.04  -0.05  -0.00     0.06   0.08  -0.00     0.04   0.06  -0.00
   9   1    -0.25   0.03   0.35     0.02  -0.00  -0.04     0.02   0.00  -0.01
  10   1     0.61  -0.01   0.12     0.05   0.00   0.01    -0.27   0.01  -0.06
  11   6    -0.00  -0.00   0.00    -0.00   0.01   0.00     0.00   0.00  -0.00
  12   1     0.08  -0.01  -0.13    -0.14   0.02   0.22    -0.11   0.02   0.17
  13   1     0.05   0.22   0.14    -0.09  -0.33  -0.22    -0.06  -0.23  -0.15
  14   1    -0.18   0.02   0.28     0.16  -0.02  -0.26    -0.37   0.06   0.61
  15   1     0.01   0.02  -0.00    -0.02  -0.05  -0.02    -0.08  -0.34  -0.22
  16   1    -0.04   0.01   0.06    -0.07   0.01   0.11     0.07  -0.00  -0.11
  17   1     0.06  -0.24   0.17     0.02  -0.07   0.05     0.02  -0.07   0.06
  18  35    -0.00   0.00   0.00    -0.00  -0.00   0.00     0.00  -0.00  -0.00
  19   8    -0.00   0.00   0.00    -0.00   0.00  -0.00    -0.00   0.00  -0.00
  20   6     0.00   0.00  -0.00     0.00   0.01   0.00     0.00   0.00  -0.00
  21   1    -0.00  -0.01  -0.00    -0.01  -0.03  -0.01    -0.00  -0.01  -0.00
  22   1    -0.00   0.00   0.01     0.00   0.00   0.00    -0.00   0.00   0.00
  23   1    -0.00   0.00  -0.00     0.01   0.00   0.00     0.00   0.00   0.00
                     61                     62                     63
                        a                      a                      a 
 Frequencies --  2984.8474              2993.5643              3017.2563
 Red. masses --     1.5570                 1.6530                 1.6877
 Frc consts  --     0.0000                 0.0000                 0.0000
 IR Inten    --     0.3403                 0.4055                 0.2123
 Raman Activ --     0.0000                 0.0000                 0.0000
 Depolar     --     0.0000                 0.0000                 0.0000
 Atom AN      X      Y      Z        X      Y      Z        X      Y      Z
   1   6     0.00   0.06  -0.07    -0.14   0.06   0.17    -0.00   0.00  -0.00
   2   6    -0.04  -0.00  -0.06    -0.05   0.00   0.01    -0.00  -0.00  -0.00
   3   6     0.07  -0.07  -0.04    -0.01  -0.00   0.01    -0.00  -0.00   0.00
   4   1    -0.03   0.00  -0.00     0.00   0.00   0.00     0.01   0.00  -0.00
   5   6    -0.02  -0.05  -0.02    -0.02  -0.01   0.03     0.00  -0.00  -0.00
   6   1    -0.05   0.22  -0.17    -0.00   0.01  -0.01    -0.00   0.00  -0.00
   7   1    -0.21   0.01   0.33     0.02  -0.00  -0.03     0.00  -0.00  -0.00
   8   6     0.10   0.10  -0.04    -0.01   0.03   0.05     0.00   0.00   0.00
   9   1    -0.11   0.01   0.16     0.04  -0.00  -0.06    -0.00   0.00   0.00
  10   1     0.26  -0.01   0.05     0.14  -0.00   0.03     0.01  -0.00   0.00
  11   6     0.01   0.00  -0.00    -0.00   0.00   0.00    -0.00   0.00  -0.00
  12   1    -0.25   0.03   0.40     0.07  -0.00  -0.10     0.00  -0.00  -0.00
  13   1    -0.10  -0.40  -0.27    -0.04  -0.12  -0.07    -0.00  -0.00  -0.00
  14   1     0.02  -0.01  -0.04     0.07  -0.01  -0.11    -0.00   0.00   0.01
  15   1     0.05   0.19   0.11     0.00   0.03   0.02     0.00   0.00  -0.00
  16   1    -0.06   0.01   0.09     0.47  -0.04  -0.76    -0.00   0.00   0.00
  17   1     0.05  -0.22   0.16     0.02  -0.18   0.16     0.00  -0.00   0.00
  18  35     0.00  -0.00  -0.00    -0.00   0.00   0.00    -0.00  -0.00   0.00
  19   8    -0.00  -0.00  -0.00     0.00   0.00  -0.00    -0.00  -0.00   0.01
  20   6     0.00  -0.01  -0.00     0.00   0.00   0.00    -0.11   0.08   0.21
  21   1     0.01   0.02   0.00    -0.00  -0.00  -0.00    -0.01   0.05   0.03
  22   1    -0.00   0.00   0.00     0.00  -0.00   0.00     0.41  -0.33  -0.81
  23   1    -0.01  -0.00  -0.00     0.00   0.00   0.00    -0.02   0.02   0.03
