(SLURM) JOB ID:         136

                                 *****************
                                 * O   R   C   A *
                                 *****************

           --- An Ab Initio, DFT and Semiempirical electronic structure package ---

                  #######################################################
                  #                        -***-                        #
                  #          Department of theory and spectroscopy      #
                  #               Directorship: Frank Neese             #
                  #        Max Planck Institute fuer Kohlenforschung    #
                  #                Kaiser Wilhelm Platz 1               #
                  #                 D-45470 Muelheim/Ruhr               #
                  #                      Germany                        #
                  #                                                     #
                  #                  All rights reserved                #
                  #                        -***-                        #
                  #######################################################


                         Program Version 4.2.1 -  RELEASE  -


 With contributions from (in alphabetic order):
   Daniel Aravena         : Magnetic Suceptibility
   Michael Atanasov       : Ab Initio Ligand Field Theory (pilot matlab implementation)
   Alexander A. Auer      : GIAO ZORA, VPT2
   Ute Becker             : Parallelization
   Giovanni Bistoni       : ED, misc. LED, open-shell LED, HFLD
   Martin Brehm           : Molecular dynamics
   Dmytro Bykov           : SCF Hessian
   Vijay G. Chilkuri      : MRCI spin determinant printing, contributions to CSF-ICE
   Dipayan Datta          : RHF DLPNO-CCSD density
   Achintya Kumar Dutta   : EOM-CC, STEOM-CC
   Dmitry Ganyushin       : Spin-Orbit,Spin-Spin,Magnetic field MRCI
   Miquel Garcia          : C-PCM Hessian, Gaussian charge scheme
   Yang Guo               : DLPNO-NEVPT2, CIM, IAO-localization
   Andreas Hansen         : Spin unrestricted coupled pair/coupled cluster methods
   Benjamin Helmich-Paris : CASSCF linear response (MC-RPA)
   Lee Huntington         : MR-EOM, pCC
   Robert Izsak           : Overlap fitted RIJCOSX, COSX-SCS-MP3, EOM
   Christian Kollmar      : KDIIS, OOCD, Brueckner-CCSD(T), CCSD density
   Simone Kossmann        : Meta GGA functionals, TD-DFT gradient, OOMP2, MP2 Hessian
   Martin Krupicka        : AUTO-CI
   Lucas Lang             : DCDCAS
   Dagmar Lenk            : GEPOL surface, SMD
   Dimitrios Liakos       : Extrapolation schemes; Compound Job, initial MDCI parallelization
   Dimitrios Manganas     : Further ROCIS development; embedding schemes
   Dimitrios Pantazis     : SARC Basis sets
   Taras Petrenko         : DFT Hessian,TD-DFT gradient, ASA, ECA, R-Raman, ABS, FL, XAS/XES, NRVS
   Peter Pinski           : DLPNO-MP2, DLPNO-MP2 Gradient
   Christoph Reimann      : Effective Core Potentials
   Marius Retegan         : Local ZFS, SOC
   Christoph Riplinger    : Optimizer, TS searches, QM/MM, DLPNO-CCSD(T), (RO)-DLPNO pert. Triples
   Tobias Risthaus        : Range-separated hybrids, TD-DFT gradient, RPA, STAB
   Michael Roemelt        : Original ROCIS implementation
   Masaaki Saitow         : Open-shell DLPNO-CCSD energy and density
   Barbara Sandhoefer     : DKH picture change effects
   Avijit Sen             : IP-ROCIS
   Kantharuban Sivalingam : CASSCF convergence, NEVPT2, FIC-MRCI
   Bernardo de Souza      : ESD, SOC TD-DFT
   Georgi Stoychev        : AutoAux, RI-MP2 NMR
   Willem Van den Heuvel  : Paramagnetic NMR
   Boris Wezisla          : Elementary symmetry handling
   Frank Wennmohs         : Technical directorship


 We gratefully acknowledge several colleagues who have allowed us to
 interface, adapt or use parts of their codes:
   Stefan Grimme, W. Hujo, H. Kruse,             : VdW corrections, initial TS optimization,
                  C. Bannwarth                     DFT functionals, gCP, sTDA/sTD-DF
   Ed Valeev, F. Pavosevic, A. Kumar             : LibInt (2-el integral package), F12 methods
   Garnet Chan, S. Sharma, J. Yang, R. Olivares  : DMRG
   Ulf Ekstrom                                   : XCFun DFT Library
   Mihaly Kallay                                 : mrcc  (arbitrary order and MRCC methods)
   Andreas Klamt, Michael Diedenhofen            : otool_cosmo (COSMO solvation model)
   Jiri Pittner, Ondrej Demel                    : Mk-CCSD
   Frank Weinhold                                : gennbo (NPA and NBO analysis)
   Christopher J. Cramer and Donald G. Truhlar   : smd solvation model
   Lars Goerigk                                  : TD-DFT with DH, B97 family of functionals
   V. Asgeirsson, H. Jonsson                     : NEB implementation
   FAccTs GmbH                                   : IRC, NEB, NEB-TS, Multilevel, MM, QM/MM, CI optimization
   S Lehtola, MJT Oliveira, MAL Marques          : LibXC Library


 Your calculation uses the libint2 library for the computation of 2-el integrals
 For citations please refer to: http://libint.valeyev.net

 Your ORCA version has been built with support for libXC version: 4.2.3
 For citations please refer to: https://tddft.org/programs/libxc/

 This ORCA versions uses:
   CBLAS   interface :  Fast vector & matrix operations
   LAPACKE interface :  Fast linear algebra routines
   SCALAPACK package :  Parallel linear algebra routines




***************************************
The coordinates will be read from file: init.xyz
***************************************


Your calculation utilizes the SMD solvation module
Please cite in your paper:
A.V. Marenich, C.J. Cramer, D.G. Truhlar J. Phys. Chem. B, 113, (2009), 6378 

Your calculation utilizes the semiempirical GFN2-xTB method
Please cite in your paper:
C. Bannwarth, Ehlert S., S. Grimme,  J. Chem. Theory Comput., 15, (2019), 1652.
   

----- Orbital basis set information -----
Your calculation utilizes the basis: def2-SVP
   F. Weigend and R. Ahlrichs, Phys. Chem. Chem. Phys. 7, 3297 (2005).

================================================================================
                                        WARNINGS
                       Please study these warnings very carefully!
================================================================================

WARNING: Gradients needed for Numerical Frequencies
  ===> : Setting RunTyp to EnGrad

WARNING: The environment variable RSH_COMMAND is not set!
  ===> : All Displacements for the Numerical Hessian calculation
         will be started on localhost

WARNING: Found dipole moment calculation with XTB calculation
  ===> : Switching off dipole moment calculation


INFO   : the flag for use of LIBINT has been found!

================================================================================
                                       INPUT FILE
================================================================================
NAME = /tmp/slurm-scratch/freq.136/freq.inp
|  1> ! XTB2 NumFreq
|  2> %maxcore 1450
|  3> 
|  4> * xyzfile 0 1 init.xyz
|  5> 
|  6> %cpcm
|  7>  smd true
|  8>  smdsolvent "ch2cl2"
|  9> end
| 10> %pal nprocs 8 end
| 11> 
| 12>                          ****END OF INPUT****
================================================================================

                     *******************************
                     * Energy+Gradient Calculation *
                     *******************************

      -----------------------------------------------------------      
     |                   =====================                   |     
     |                           x T B                           |     
     |                   =====================                   |     
     |                         S. Grimme                         |     
     |          Mulliken Center for Theoretical Chemistry        |     
     |                    University of Bonn                     |     
      -----------------------------------------------------------      

   * xtb version 6.3.0 (preview) compiled by 'ehlert@majestix' on 2020-01-15

   This program is distributed in the hope that it will be useful,
   but WITHOUT ANY WARRANTY; without even the implied warranty of
   MERCHANTABILITY or FITNESS FOR A PARTICULAR PURPOSE.
   
   FOR NON-COMMERCIAL, ACADEMIA USE ONLY.
   
   Cite this work as:
   * S. Grimme, C. Bannwarth, P. Shushkov, J. Chem. Theory Comput., 2017,
     13, 1989-2009. DOI: 10.1021/acs.jctc.7b00118
   * C. Bannwarth, S. Ehlert and S. Grimme., J. Chem. Theory Comput., 2019,
     15, 1652-1671. DOI: 10.1021/acs.jctc.8b01176
   * P. Pracht, E. Caldeweyher, S. Ehlert, S. Grimme, ChemRxiv, 2019, preprint.
     DOI: 10.26434/chemrxiv.8326202.v1
   * S. Grimme, S. Spicher unpublished
   
   for DFT-D4:
   * E. Caldeweyher, C. Bannwarth and S. Grimme, J. Chem. Phys., 2017,
     147, 034112. DOI: 10.1063/1.4993215
   * E. Caldeweyher, S. Ehlert, A. Hansen, H. Neugebauer, S. Spicher,
     C. Bannwarth and S. Grimme, J. Chem. Phys., 2019, 150, 154122.
     DOI: 10.1063/1.5090222
   
   for sTDA-xTB:
   * S. Grimme and C. Bannwarth, J. Chem. Phys., 2016, 145, 054103.
     DOI: 10.1063/1.4959605
   
   in the mass-spec context:
   * V. Asgeirsson, C. Bauer and S. Grimme, Chem. Sci., 2017, 8, 4879.
     DOI: 10.1039/c7sc00601b
   
   for metadynamics refer to:
   * S. Grimme, J. Chem. Theory Comput., 2019, 155, 2847-2862
     DOI: 10.1021/acs.jctc.9b00143
   
   with help from (in alphabetical order)
   C. Bannwarth, F. Bohle, G. Brandenburg, E. Caldeweyher, M. Checinski,
   S. Dohm, S. Ehlert, S. Ehrlich, F. März, H. Neugebauer, J. Pisarek,
   P. Pracht, P. Shushkov, and S. Spicher.
   
 * started run on 2020/08/23 at 22:43:05.367     

           -------------------------------------------------
          |                Calculation Setup                |
           -------------------------------------------------

          program call               : /opt/orca/otool_xtb /tmp/slurm-scratch/freq.136/freq_XTB.xyz --grad -c 0 -u 0 -P 8 --namespace /tmp/slurm-scratch/freq.136/freq --gbsa CH2Cl2
          hostname                   : headnode-pbs
          calculation namespace      : /tmp/slurm-scratch/freq.136/freq
          coordinate file            : /tmp/slurm-scratch/freq.136/freq_XTB.xyz
          omp threads                :                     8
          number of atoms            :                    46
          number of electrons        :                   104
          charge                     :                     0
          spin                       :                   0.0
          first test random number   :      0.34049211160365


molecular fragmentation (1/2 indicates fragments):
1111111112222222111222222112222222222222222222
# atoms in fragment 1/2:    14    32
 fragment masses (1/2) :      106.12      146.27
CMA distance (Bohr)    :   9.408
constraining FC (au)   :  0.0500

########################################################################
# WARNING! Please study the warnings concerning your input carefully
#  - Process number higher than OMP_NUM_THREADS, I hope you know what you are doing.
########################################################################

           ------------------------------------------------- 
          |                 G F N 2 - x T B                 |
          | Geometry, Frequencies, Noncovalent interactions |
          |            JCTC 2019 parametrisation            |
           ------------------------------------------------- 
             k(s)              :                1.8500
             k(p)              :                2.2300
             k(d)              :                2.2300
             k(f)              :                2.0000
             kEN (H0ij)        :               -2.0000
             D4 a1             :                0.5200
             D4 a2             :                5.0000
             D4 s6             :                1.0000
             D4 s8             :                2.7000
             D4 s9             :                5.0000
             alphaj            :                2.0000

  Z AO/shell   Hii/eV     exponent
  1     Wed Apr 25 08:07:45 CEST 2018   EN: 2.200 GM2: 0.406  GM3: 0.0800  RAES: 1.40
     1s    -10.707211    1.230000
  6     Wed Apr 25 08:07:45 CEST 2018   EN: 2.550 GM2: 0.538  GM3: 0.1500  RAES: 3.00
     2s    -13.970922    2.096432
     2p    -10.063292    1.800000
  7     Wed Apr 25 08:07:45 CEST 2018   EN: 3.040 GM2: 0.461  GM3:-0.0640  RAES: 1.90
     2s    -16.686243    2.339881
     2p    -12.523956    2.014332
  8     Wed Apr 25 08:07:45 CEST 2018   EN: 3.440 GM2: 0.452  GM3:-0.0517  RAES: 1.80
     2s    -20.229985    2.439742
     2p    -15.503117    2.137023

 Solvent             : CH2Cl2
 Using internal parameter file: .param_gbsa2_CH2Cl2
 Gsolv ref. state (COSMO-RS): gsolv [1 M gas/solution]
 temperature (mdtemp)       :    298.150000000000     
 dielectric constant        :    8.93000000000000     
 rho                        :    1.33000000000000     
 mass                       :    84.9300000000000     
 surface tension            :    15.5689454083859     
 probe radius               :   0.719875900000000     
 Gshift (Eh)                :   4.440829173451759E-003
 c1                         :    1.49173776000000     
 soset                      :   0.000000000000000E+000
 HB correction              :  F
           ------------------------------------------------- 
          |        Self-Consistent Charge Iterations        |
           ------------------------------------------------- 

          ...................................................
          :                      SETUP                      :
          :.................................................:
          :  # basis functions                 100          :
          :  # atomic orbitals                 100          :
          :  # shells                           64          :
          :  # electrons                       104          :
          :  max. iterations                   250          :
          :  Hamiltonian                  GFN2-xTB          :
          :  GBSA solvation                   true          :
          :  PC potential                    false          :
          :  electronic temp.          300.0000000     K    :
          :  accuracy                    1.0000000          :
          :  -> integral cutoff          0.2500000E+02      :
          :  -> integral neglect         0.1000000E-07      :
          :  -> SCF convergence          0.1000000E-05 Eh   :
          :  -> wf. convergence          0.1000000E-03 e    :
          :  Broyden damping             0.4000000          :
          ...................................................
  Checking positiv definite overlap ...  done.
 

 iter      E             dE          RMSdq      gap      omega  full diag
   1    -56.9870102 -0.569870E+02  0.343E+00    2.37       0.0  T
   2    -57.0760057 -0.889955E-01  0.181E+00    2.14       1.0  T
   3    -57.0779304 -0.192468E-02  0.896E-01    2.24       1.0  T
   4    -57.0820456 -0.411522E-02  0.211E-01    2.02       1.0  T
   5    -57.0829594 -0.913784E-03  0.665E-02    2.05       1.0  T
   6    -57.0830013 -0.418680E-04  0.321E-02    2.06       1.0  T
   7    -57.0830173 -0.160380E-04  0.116E-02    2.06       1.3  T
   8    -57.0830183 -0.964050E-06  0.319E-03    2.06       4.6  T
   9    -57.0830184 -0.106594E-06  0.122E-03    2.06      12.1  T
  10    -57.0830184 -0.159979E-07  0.574E-04    2.06      25.7  T
  11    -57.0830184 -0.332805E-08  0.257E-04    2.06      57.5  T

   *** convergence criteria satisfied after 11 iterations ***

         #    Occupation            Energy/Eh            Energy/eV
      -------------------------------------------------------------
         1        2.0000           -0.7143260             -19.4378
       ...           ...                  ...                  ...
        46        2.0000           -0.4253739             -11.5750
        47        2.0000           -0.4226826             -11.5018
        48        2.0000           -0.4188672             -11.3980
        49        2.0000           -0.4170026             -11.3472
        50        2.0000           -0.4029559             -10.9650
        51        2.0000           -0.3792902             -10.3210
        52        2.0000           -0.3684904             -10.0271 (HOMO)
        53                         -0.2928360              -7.9685 (LUMO)
        54                         -0.2362679              -6.4292
        55                         -0.2031180              -5.5271
        56                         -0.0968615              -2.6357
        57                          0.0178692               0.4862
       ...                                ...                  ...
       100                          0.6481944              17.6383
      -------------------------------------------------------------
                  HL-Gap            0.0756544 Eh            2.0587 eV
             Fermi-level           -0.3306632 Eh           -8.9978 eV

 SCC (total)                   0 d,  0 h,  0 min,  0.117 sec
 SCC setup                      ...        0 min,  0.008 sec (  7.160%)
 Dispersion                     ...        0 min,  0.001 sec (  1.078%)
 integral evaluation            ...        0 min,  0.015 sec ( 12.656%)
 zeroth order Hamiltonian       ...        0 min,  0.000 sec (  0.037%)
 iterations                     ...        0 min,  0.075 sec ( 64.461%)
 molecular gradient             ...        0 min,  0.016 sec ( 13.979%)
 printout                       ...        0 min,  0.001 sec (  0.538%)

         :::::::::::::::::::::::::::::::::::::::::::::::::::::
         ::                     SUMMARY                     ::
         :::::::::::::::::::::::::::::::::::::::::::::::::::::
         :: total energy             -56.280805726000 Eh    ::
         :: total w/o Gsasa/hb       -56.256409149765 Eh    ::
         :: gradient norm              0.027045379488 Eh/a0 ::
         :: HOMO-LUMO gap              2.058661414134 eV    ::
         ::.................................................::
         :: SCC energy               -57.107415002316 Eh    ::
         :: -> isotropic ES            0.060459910162 Eh    ::
         :: -> anisotropic ES          0.007315764926 Eh    ::
         :: -> anisotropic XC          0.038437284327 Eh    ::
         :: -> dispersion             -0.035485963519 Eh    ::
         :: -> Gsolv                  -0.032499354046 Eh    ::
         ::    -> Gborn               -0.008102777811 Eh    ::
         ::    -> Gsasa               -0.028837405409 Eh    ::
         ::    -> Ghb                  0.000000000000 Eh    ::
         ::    -> Gshift               0.004440829173 Eh    ::
         :: repulsion energy           0.826312895031 Eh    ::
         :: add. restraining           0.000000000000 Eh    ::
         :::::::::::::::::::::::::::::::::::::::::::::::::::::

           -------------------------------------------------
          |                Property Printout                |
           -------------------------------------------------

    * Orbital Energies and Occupations

         #    Occupation            Energy/Eh            Energy/eV
      -------------------------------------------------------------
         1        2.0000           -0.7143260             -19.4378
       ...           ...                  ...                  ...
        40        2.0000           -0.4458304             -12.1317
        41        2.0000           -0.4403373             -11.9822
        42        2.0000           -0.4382580             -11.9256
        43        2.0000           -0.4352065             -11.8426
        44        2.0000           -0.4344296             -11.8214
        45        2.0000           -0.4327829             -11.7766
        46        2.0000           -0.4253739             -11.5750
        47        2.0000           -0.4226826             -11.5018
        48        2.0000           -0.4188672             -11.3980
        49        2.0000           -0.4170026             -11.3472
        50        2.0000           -0.4029559             -10.9650
        51        2.0000           -0.3792902             -10.3210
        52        2.0000           -0.3684904             -10.0271 (HOMO)
        53                         -0.2928360              -7.9685 (LUMO)
        54                         -0.2362679              -6.4292
        55                         -0.2031180              -5.5271
        56                         -0.0968615              -2.6357
        57                          0.0178692               0.4862
        58                          0.0365121               0.9935
        59                          0.0731542               1.9906
        60                          0.0865005               2.3538
        61                          0.0935703               2.5462
        62                          0.1042746               2.8375
        63                          0.1124649               3.0603
       ...                                ...                  ...
       100                          0.6481944              17.6383
      -------------------------------------------------------------
                  HL-Gap            0.0756544 Eh            2.0587 eV
             Fermi-level           -0.3306632 Eh           -8.9978 eV

     #   Z        covCN         q      C6AA      α(0)
     1   6 C      2.913    -0.024    28.595     8.769
     2   6 C      2.921    -0.021    28.536     8.760
     3   6 C      2.968    -0.009    28.249     8.718
     4   6 C      2.918    -0.015    28.377     8.735
     5   6 C      2.914    -0.026    28.652     8.777
     6   6 C      2.917    -0.017    28.442     8.745
     7   1 H      0.925     0.055     2.262     2.352
     8   1 H      0.925     0.047     2.351     2.398
     9   1 H      0.925     0.055     2.262     2.352
    10   7 N      2.628    -0.379    29.809     8.109
    11   1 H      0.860     0.163     1.317     1.797
    12   6 C      3.731     0.025    20.250     6.423
    13   1 H      0.923     0.001     3.042     2.728
    14   1 H      0.924     0.029     2.596     2.520
    15   1 H      0.860     0.141     1.463     1.895
    16   1 H      0.860     0.162     1.323     1.802
    17   6 C      2.767     0.213    23.499     7.939
    18   1 H      0.923     0.032     2.554     2.499
    19   8 O      0.856    -0.403    21.739     6.251
    20   6 C      3.802    -0.063    21.710     6.634
    21   1 H      0.924     0.039     2.466     2.456
    22   1 H      0.924     0.034     2.532     2.489
    23   6 C      3.800    -0.053    21.521     6.605
    24   1 H      0.924     0.029     2.596     2.519
    25   1 H      0.924     0.030     2.592     2.518
    26   1 H      0.925     0.050     2.314     2.379
    27   1 H      0.925     0.055     2.263     2.353
    28   1 H      0.860     0.143     1.450     1.886
    29   6 C      3.731     0.017    20.373     6.443
    30   1 H      0.924     0.031     2.566     2.505
    31   1 H      0.924     0.029     2.607     2.525
    32   6 C      3.800    -0.066    21.762     6.642
    33   1 H      0.924     0.029     2.602     2.523
    34   1 H      0.924     0.029     2.597     2.520
    35   6 C      3.799    -0.053    21.535     6.607
    36   1 H      0.924     0.031     2.570     2.507
    37   1 H      0.924     0.030     2.589     2.517
    38   7 N      2.627    -0.381    29.854     8.115
    39   6 C      3.749    -0.101    22.494     6.764
    40   1 H      0.924     0.037     2.492     2.469
    41   1 H      0.924     0.035     2.516     2.481
    42   1 H      0.924     0.034     2.526     2.485
    43   6 C      3.750    -0.102    22.507     6.766
    44   1 H      0.924     0.037     2.496     2.471
    45   1 H      0.924     0.036     2.505     2.475
    46   1 H      0.924     0.036     2.506     2.476

 Mol. C6AA /au·bohr⁶  :      17445.905074
 Mol. C8AA /au·bohr⁸  :     381489.667910
 Mol. α(0) /au        :        202.696417


Wiberg/Mayer (AO) data.
largest (>0.10) Wiberg bond orders for each atom
          total WBO             WBO to atom ...
     1  C   3.990        C    2 1.458    C    6 1.431    H   27 0.969    C    4 0.105
     2  C   3.988        C    1 1.458    C    3 1.369    H    7 0.966    C    5 0.104
     3  C   3.989        C    2 1.369    C    4 1.366    C   17 1.071
     4  C   3.990        C    5 1.463    C    3 1.366    H    8 0.967    C    1 0.105
     5  C   3.991        C    4 1.463    C    6 1.425    H   26 0.969    C    2 0.104
     6  C   3.988        C    1 1.431    C    5 1.425    H    9 0.970
     7  H   0.997        C    2 0.966
     8  H   0.998        C    4 0.967
     9  H   0.997        C    6 0.970
    10  N   3.007        C   12 1.020    H   15 0.967    H   11 0.944
    11  H   0.973        N   10 0.944
    12  C   3.985        N   10 1.020    C   20 1.005    H   14 0.974    H   13 0.970
    13  H   1.000        C   12 0.970
    14  H   0.999        C   12 0.974
    15  H   0.980        N   10 0.967
    16  H   0.974        N   38 0.949
    17  C   3.908        O   19 1.807    C    3 1.071    H   18 0.934
    18  H   0.998        C   17 0.934
    19  O   2.034        C   17 1.807
    20  C   3.996        C   23 1.007    C   12 1.005    H   22 0.976    H   21 0.975
    21  H   0.998        C   20 0.975
    22  H   0.999        C   20 0.976
    23  C   3.997        C   43 1.020    C   20 1.007    H   25 0.978    H   24 0.978
    24  H   0.999        C   23 0.978
    25  H   0.999        C   23 0.978
    26  H   0.997        C    5 0.969
    27  H   0.997        C    1 0.969
    28  H   0.980        N   38 0.966
    29  C   3.983        N   38 1.020    C   32 0.997    H   30 0.976    H   31 0.975
    30  H   0.999        C   29 0.976
    31  H   0.999        C   29 0.975
    32  C   3.997        C   35 1.007    C   29 0.997    H   33 0.977    H   34 0.977
    33  H   0.999        C   32 0.977
    34  H   0.999        C   32 0.977
    35  C   3.997        C   39 1.019    C   32 1.007    H   37 0.978    H   36 0.978
    36  H   0.999        C   35 0.978
    37  H   0.999        C   35 0.978
    38  N   3.014        C   29 1.020    H   28 0.966    H   16 0.949
    39  C   3.996        C   35 1.019    H   41 0.988    H   42 0.988    H   40 0.987
    40  H   0.998        C   39 0.987
    41  H   0.999        C   39 0.988
    42  H   0.999        C   39 0.988
    43  C   3.996        C   23 1.020    H   46 0.988    H   45 0.988    H   44 0.987
    44  H   0.998        C   43 0.987
    45  H   0.999        C   43 0.988
    46  H   0.999        C   43 0.988

molecular dipole:
                 x           y           z       tot (Debye)
 q only:        0.035       0.660      -1.233
   full:        0.138       0.332      -1.172       3.117
molecular quadrupole (traceless):
                xx          xy          yy          xz          yz          zz
 q only:        2.447      -1.791       2.466      -6.389      -1.605      -4.913
  q+dip:        4.103      -3.646       2.774      -6.742      -2.261      -6.877
   full:        3.400      -1.900       3.869      -5.809      -1.207      -7.270

           -------------------------------------------------
          |                Property Printout                |
           -------------------------------------------------

    * Orbital Energies and Occupations

         #    Occupation            Energy/Eh            Energy/eV
      -------------------------------------------------------------
         1        2.0000           -0.7143260             -19.4378
       ...           ...                  ...                  ...
        40        2.0000           -0.4458304             -12.1317
        41        2.0000           -0.4403373             -11.9822
        42        2.0000           -0.4382580             -11.9256
        43        2.0000           -0.4352065             -11.8426
        44        2.0000           -0.4344296             -11.8214
        45        2.0000           -0.4327829             -11.7766
        46        2.0000           -0.4253739             -11.5750
        47        2.0000           -0.4226826             -11.5018
        48        2.0000           -0.4188672             -11.3980
        49        2.0000           -0.4170026             -11.3472
        50        2.0000           -0.4029559             -10.9650
        51        2.0000           -0.3792902             -10.3210
        52        2.0000           -0.3684904             -10.0271 (HOMO)
        53                         -0.2928360              -7.9685 (LUMO)
        54                         -0.2362679              -6.4292
        55                         -0.2031180              -5.5271
        56                         -0.0968615              -2.6357
        57                          0.0178692               0.4862
        58                          0.0365121               0.9935
        59                          0.0731542               1.9906
        60                          0.0865005               2.3538
        61                          0.0935703               2.5462
        62                          0.1042746               2.8375
        63                          0.1124649               3.0603
       ...                                ...                  ...
       100                          0.6481944              17.6383
      -------------------------------------------------------------
                  HL-Gap            0.0756544 Eh            2.0587 eV
             Fermi-level           -0.3306632 Eh           -8.9978 eV

     #   Z        covCN         q      C6AA      α(0)
     1   6 C      2.913    -0.024    28.595     8.769
     2   6 C      2.921    -0.021    28.536     8.760
     3   6 C      2.968    -0.009    28.249     8.718
     4   6 C      2.918    -0.015    28.377     8.735
     5   6 C      2.914    -0.026    28.652     8.777
     6   6 C      2.917    -0.017    28.442     8.745
     7   1 H      0.925     0.055     2.262     2.352
     8   1 H      0.925     0.047     2.351     2.398
     9   1 H      0.925     0.055     2.262     2.352
    10   7 N      2.628    -0.379    29.809     8.109
    11   1 H      0.860     0.163     1.317     1.797
    12   6 C      3.731     0.025    20.250     6.423
    13   1 H      0.923     0.001     3.042     2.728
    14   1 H      0.924     0.029     2.596     2.520
    15   1 H      0.860     0.141     1.463     1.895
    16   1 H      0.860     0.162     1.323     1.802
    17   6 C      2.767     0.213    23.499     7.939
    18   1 H      0.923     0.032     2.554     2.499
    19   8 O      0.856    -0.403    21.739     6.251
    20   6 C      3.802    -0.063    21.710     6.634
    21   1 H      0.924     0.039     2.466     2.456
    22   1 H      0.924     0.034     2.532     2.489
    23   6 C      3.800    -0.053    21.521     6.605
    24   1 H      0.924     0.029     2.596     2.519
    25   1 H      0.924     0.030     2.592     2.518
    26   1 H      0.925     0.050     2.314     2.379
    27   1 H      0.925     0.055     2.263     2.353
    28   1 H      0.860     0.143     1.450     1.886
    29   6 C      3.731     0.017    20.373     6.443
    30   1 H      0.924     0.031     2.566     2.505
    31   1 H      0.924     0.029     2.607     2.525
    32   6 C      3.800    -0.066    21.762     6.642
    33   1 H      0.924     0.029     2.602     2.523
    34   1 H      0.924     0.029     2.597     2.520
    35   6 C      3.799    -0.053    21.535     6.607
    36   1 H      0.924     0.031     2.570     2.507
    37   1 H      0.924     0.030     2.589     2.517
    38   7 N      2.627    -0.381    29.854     8.115
    39   6 C      3.749    -0.101    22.494     6.764
    40   1 H      0.924     0.037     2.492     2.469
    41   1 H      0.924     0.035     2.516     2.481
    42   1 H      0.924     0.034     2.526     2.485
    43   6 C      3.750    -0.102    22.507     6.766
    44   1 H      0.924     0.037     2.496     2.471
    45   1 H      0.924     0.036     2.505     2.475
    46   1 H      0.924     0.036     2.506     2.476

 Mol. C6AA /au·bohr⁶  :      17445.905074
 Mol. C8AA /au·bohr⁸  :     381489.667910
 Mol. α(0) /au        :        202.696417


Wiberg/Mayer (AO) data.
largest (>0.10) Wiberg bond orders for each atom
          total WBO             WBO to atom ...
     1  C   3.990        C    2 1.458    C    6 1.431    H   27 0.969    C    4 0.105
     2  C   3.988        C    1 1.458    C    3 1.369    H    7 0.966    C    5 0.104
     3  C   3.989        C    2 1.369    C    4 1.366    C   17 1.071
     4  C   3.990        C    5 1.463    C    3 1.366    H    8 0.967    C    1 0.105
     5  C   3.991        C    4 1.463    C    6 1.425    H   26 0.969    C    2 0.104
     6  C   3.988        C    1 1.431    C    5 1.425    H    9 0.970
     7  H   0.997        C    2 0.966
     8  H   0.998        C    4 0.967
     9  H   0.997        C    6 0.970
    10  N   3.007        C   12 1.020    H   15 0.967    H   11 0.944
    11  H   0.973        N   10 0.944
    12  C   3.985        N   10 1.020    C   20 1.005    H   14 0.974    H   13 0.970
    13  H   1.000        C   12 0.970
    14  H   0.999        C   12 0.974
    15  H   0.980        N   10 0.967
    16  H   0.974        N   38 0.949
    17  C   3.908        O   19 1.807    C    3 1.071    H   18 0.934
    18  H   0.998        C   17 0.934
    19  O   2.034        C   17 1.807
    20  C   3.996        C   23 1.007    C   12 1.005    H   22 0.976    H   21 0.975
    21  H   0.998        C   20 0.975
    22  H   0.999        C   20 0.976
    23  C   3.997        C   43 1.020    C   20 1.007    H   25 0.978    H   24 0.978
    24  H   0.999        C   23 0.978
    25  H   0.999        C   23 0.978
    26  H   0.997        C    5 0.969
    27  H   0.997        C    1 0.969
    28  H   0.980        N   38 0.966
    29  C   3.983        N   38 1.020    C   32 0.997    H   30 0.976    H   31 0.975
    30  H   0.999        C   29 0.976
    31  H   0.999        C   29 0.975
    32  C   3.997        C   35 1.007    C   29 0.997    H   33 0.977    H   34 0.977
    33  H   0.999        C   32 0.977
    34  H   0.999        C   32 0.977
    35  C   3.997        C   39 1.019    C   32 1.007    H   37 0.978    H   36 0.978
    36  H   0.999        C   35 0.978
    37  H   0.999        C   35 0.978
    38  N   3.014        C   29 1.020    H   28 0.966    H   16 0.949
    39  C   3.996        C   35 1.019    H   41 0.988    H   42 0.988    H   40 0.987
    40  H   0.998        C   39 0.987
    41  H   0.999        C   39 0.988
    42  H   0.999        C   39 0.988
    43  C   3.996        C   23 1.020    H   46 0.988    H   45 0.988    H   44 0.987
    44  H   0.998        C   43 0.987
    45  H   0.999        C   43 0.988
    46  H   0.999        C   43 0.988

molecular dipole:
                 x           y           z       tot (Debye)
 q only:        0.035       0.660      -1.233
   full:        0.138       0.332      -1.172       3.117
molecular quadrupole (traceless):
                xx          xy          yy          xz          yz          zz
 q only:        2.447      -1.791       2.466      -6.389      -1.605      -4.913
  q+dip:        4.103      -3.646       2.774      -6.742      -2.261      -6.877
   full:        3.400      -1.900       3.869      -5.809      -1.207      -7.270


           -------------------------------------------------
          | TOTAL ENERGY              -56.280805726000 Eh   |
          | GRADIENT NORM               0.027045379488 Eh/α |
          | HOMO-LUMO GAP               2.058661414134 eV   |
           -------------------------------------------------

------------------------------------------------------------------------
 * finished run on 2020/08/23 at 22:43:05.595     
------------------------------------------------------------------------
 total:
 * wall-time:     0 d,  0 h,  0 min,  0.228 sec
 *  cpu-time:     0 d,  0 h,  0 min,  1.337 sec
 * ratio c/w:     5.857 speedup
 SCF:
 * wall-time:     0 d,  0 h,  0 min,  0.118 sec
 *  cpu-time:     0 d,  0 h,  0 min,  0.578 sec
 * ratio c/w:     4.909 speedup


-------------------------   --------------------
FINAL SINGLE POINT ENERGY       -56.280805726000
-------------------------   --------------------


----------------------------------------------------------------------------
                           ORCA NUMERICAL FREQUENCIES
                              (8-process run)
----------------------------------------------------------------------------

Number of atoms                ... 46
Central differences            ... used
Number of displacements        ... 276
Numerical increment            ... 5.000e-03 bohr
IR-spectrum generation         ... on
Raman-spectrum generation      ... off
Surface Crossing Hessian       ... off
List of participating nodes    ...  /tmp/slurm-scratch/freq.136/freq.hostnames

The output will be reduced. Please look at the following files:
SCF program output             ... >/tmp/slurm-scratch/freq.136/freq.lastscf
Integral program output        ... >/tmp/slurm-scratch/freq.136/freq.lastint
Gradient program output        ... >/tmp/slurm-scratch/freq.136/freq.lastgrad
Dipole moment program output   ... >/tmp/slurm-scratch/freq.136/freq.lastmom
AutoCI program output          ... >/tmp/slurm-scratch/freq.136/freq.lastautoci


         <<< Energy and Gradient at the input geometry >>>

        <<< Energy and Gradient at displaced geometries >>>
             <<<Displacing   1/coordinate 2 (+)>>>
             <<<Displacing   1/coordinate 3 (+)>>>
             <<<Displacing   2/coordinate 3 (+)>>>
             <<<Displacing   1/coordinate 2 (-)>>>
             <<<Displacing   1/coordinate 3 (-)>>>
             <<<Displacing   1/coordinate 1 (+)>>>
             <<<Displacing   2/coordinate 3 (-)>>>
             <<<Displacing   1/coordinate 1 (-)>>>
             <<<Displacing   3/coordinate 2 (+)>>>
             <<<Displacing   3/coordinate 1 (+)>>>
             <<<Displacing   2/coordinate 2 (+)>>>
             <<<Displacing   2/coordinate 1 (+)>>>
             <<<Displacing   3/coordinate 2 (-)>>>
             <<<Displacing   3/coordinate 1 (-)>>>
             <<<Displacing   2/coordinate 1 (-)>>>
             <<<Displacing   2/coordinate 2 (-)>>>
             <<<Displacing   3/coordinate 3 (+)>>>
             <<<Displacing   3/coordinate 3 (-)>>>
             <<<Displacing   5/coordinate 1 (+)>>>
             <<<Displacing   4/coordinate 3 (+)>>>
             <<<Displacing   4/coordinate 1 (+)>>>
             <<<Displacing   4/coordinate 2 (+)>>>
             <<<Displacing   4/coordinate 3 (-)>>>
             <<<Displacing   5/coordinate 1 (-)>>>
             <<<Displacing   6/coordinate 1 (+)>>>
             <<<Displacing   4/coordinate 1 (-)>>>
             <<<Displacing   4/coordinate 2 (-)>>>
             <<<Displacing   5/coordinate 2 (+)>>>
             <<<Displacing   6/coordinate 1 (-)>>>
             <<<Displacing   5/coordinate 2 (-)>>>
             <<<Displacing   5/coordinate 3 (+)>>>
             <<<Displacing   5/coordinate 3 (-)>>>
             <<<Displacing   6/coordinate 2 (+)>>>
             <<<Displacing   6/coordinate 2 (-)>>>
             <<<Displacing   7/coordinate 2 (+)>>>
             <<<Displacing   7/coordinate 2 (-)>>>
             <<<Displacing   6/coordinate 3 (+)>>>
             <<<Displacing   7/coordinate 1 (+)>>>
             <<<Displacing   6/coordinate 3 (-)>>>
             <<<Displacing   7/coordinate 3 (+)>>>
             <<<Displacing   7/coordinate 1 (-)>>>
             <<<Displacing   7/coordinate 3 (-)>>>
             <<<Displacing   8/coordinate 1 (+)>>>
             <<<Displacing   8/coordinate 1 (-)>>>
             <<<Displacing   8/coordinate 2 (+)>>>
             <<<Displacing   8/coordinate 2 (-)>>>
             <<<Displacing   8/coordinate 3 (+)>>>
             <<<Displacing   8/coordinate 3 (-)>>>
             <<<Displacing   9/coordinate 1 (+)>>>
             <<<Displacing   9/coordinate 1 (-)>>>
             <<<Displacing   9/coordinate 2 (+)>>>
             <<<Displacing   9/coordinate 2 (-)>>>
             <<<Displacing  10/coordinate 3 (+)>>>
             <<<Displacing  10/coordinate 3 (-)>>>
             <<<Displacing   9/coordinate 3 (+)>>>
             <<<Displacing  11/coordinate 1 (+)>>>
             <<<Displacing  10/coordinate 1 (+)>>>
             <<<Displacing  10/coordinate 2 (+)>>>
             <<<Displacing   9/coordinate 3 (-)>>>
             <<<Displacing  11/coordinate 1 (-)>>>
             <<<Displacing  10/coordinate 1 (-)>>>
             <<<Displacing  10/coordinate 2 (-)>>>
             <<<Displacing  11/coordinate 2 (+)>>>
             <<<Displacing  11/coordinate 2 (-)>>>
             <<<Displacing  11/coordinate 3 (+)>>>
             <<<Displacing  11/coordinate 3 (-)>>>
             <<<Displacing  12/coordinate 1 (+)>>>
             <<<Displacing  12/coordinate 1 (-)>>>
             <<<Displacing  12/coordinate 2 (+)>>>
             <<<Displacing  12/coordinate 2 (-)>>>
             <<<Displacing  12/coordinate 3 (+)>>>
             <<<Displacing  13/coordinate 3 (+)>>>
             <<<Displacing  13/coordinate 1 (+)>>>
             <<<Displacing  12/coordinate 3 (-)>>>
             <<<Displacing  13/coordinate 3 (-)>>>
             <<<Displacing  13/coordinate 2 (+)>>>
             <<<Displacing  13/coordinate 1 (-)>>>
             <<<Displacing  14/coordinate 1 (+)>>>
             <<<Displacing  13/coordinate 2 (-)>>>
             <<<Displacing  14/coordinate 1 (-)>>>
             <<<Displacing  14/coordinate 2 (+)>>>
             <<<Displacing  14/coordinate 2 (-)>>>
             <<<Displacing  14/coordinate 3 (+)>>>
             <<<Displacing  14/coordinate 3 (-)>>>
             <<<Displacing  15/coordinate 1 (+)>>>
             <<<Displacing  15/coordinate 1 (-)>>>
             <<<Displacing  16/coordinate 1 (+)>>>
             <<<Displacing  15/coordinate 2 (+)>>>
             <<<Displacing  16/coordinate 1 (-)>>>
             <<<Displacing  15/coordinate 3 (+)>>>
             <<<Displacing  15/coordinate 2 (-)>>>
             <<<Displacing  15/coordinate 3 (-)>>>
             <<<Displacing  16/coordinate 3 (+)>>>
             <<<Displacing  16/coordinate 3 (-)>>>
             <<<Displacing  16/coordinate 2 (+)>>>
             <<<Displacing  16/coordinate 2 (-)>>>
             <<<Displacing  17/coordinate 1 (+)>>>
             <<<Displacing  17/coordinate 1 (-)>>>
             <<<Displacing  17/coordinate 2 (+)>>>
             <<<Displacing  17/coordinate 2 (-)>>>
             <<<Displacing  17/coordinate 3 (+)>>>
             <<<Displacing  17/coordinate 3 (-)>>>
             <<<Displacing  18/coordinate 1 (+)>>>
             <<<Displacing  18/coordinate 1 (-)>>>
             <<<Displacing  18/coordinate 2 (+)>>>
             <<<Displacing  18/coordinate 2 (-)>>>
             <<<Displacing  18/coordinate 3 (+)>>>
             <<<Displacing  18/coordinate 3 (-)>>>
             <<<Displacing  19/coordinate 1 (+)>>>
             <<<Displacing  19/coordinate 1 (-)>>>
             <<<Displacing  19/coordinate 2 (+)>>>
             <<<Displacing  19/coordinate 2 (-)>>>
             <<<Displacing  19/coordinate 3 (+)>>>
             <<<Displacing  19/coordinate 3 (-)>>>
             <<<Displacing  20/coordinate 1 (+)>>>
             <<<Displacing  20/coordinate 1 (-)>>>
             <<<Displacing  20/coordinate 2 (+)>>>
             <<<Displacing  20/coordinate 2 (-)>>>
             <<<Displacing  20/coordinate 3 (+)>>>
             <<<Displacing  20/coordinate 3 (-)>>>
             <<<Displacing  21/coordinate 1 (+)>>>
             <<<Displacing  21/coordinate 1 (-)>>>
             <<<Displacing  21/coordinate 2 (+)>>>
             <<<Displacing  21/coordinate 3 (+)>>>
             <<<Displacing  21/coordinate 2 (-)>>>
             <<<Displacing  22/coordinate 1 (+)>>>
             <<<Displacing  21/coordinate 3 (-)>>>
             <<<Displacing  22/coordinate 1 (-)>>>
             <<<Displacing  22/coordinate 2 (+)>>>
             <<<Displacing  22/coordinate 2 (-)>>>
             <<<Displacing  22/coordinate 3 (+)>>>
             <<<Displacing  22/coordinate 3 (-)>>>
             <<<Displacing  23/coordinate 2 (+)>>>
             <<<Displacing  23/coordinate 2 (-)>>>
             <<<Displacing  23/coordinate 1 (+)>>>
             <<<Displacing  23/coordinate 1 (-)>>>
             <<<Displacing  24/coordinate 2 (+)>>>
             <<<Displacing  23/coordinate 3 (+)>>>
             <<<Displacing  24/coordinate 2 (-)>>>
             <<<Displacing  23/coordinate 3 (-)>>>
             <<<Displacing  24/coordinate 1 (+)>>>
             <<<Displacing  24/coordinate 1 (-)>>>
             <<<Displacing  24/coordinate 3 (+)>>>
             <<<Displacing  24/coordinate 3 (-)>>>
             <<<Displacing  25/coordinate 1 (+)>>>
             <<<Displacing  25/coordinate 1 (-)>>>
             <<<Displacing  25/coordinate 2 (+)>>>
             <<<Displacing  25/coordinate 2 (-)>>>
             <<<Displacing  25/coordinate 3 (+)>>>
             <<<Displacing  25/coordinate 3 (-)>>>
             <<<Displacing  26/coordinate 1 (+)>>>
             <<<Displacing  26/coordinate 1 (-)>>>
             <<<Displacing  26/coordinate 2 (+)>>>
             <<<Displacing  26/coordinate 3 (+)>>>
             <<<Displacing  26/coordinate 2 (-)>>>
             <<<Displacing  26/coordinate 3 (-)>>>
             <<<Displacing  27/coordinate 1 (+)>>>
             <<<Displacing  27/coordinate 2 (+)>>>
             <<<Displacing  27/coordinate 1 (-)>>>
             <<<Displacing  27/coordinate 2 (-)>>>
             <<<Displacing  27/coordinate 3 (+)>>>
             <<<Displacing  27/coordinate 3 (-)>>>
             <<<Displacing  28/coordinate 1 (+)>>>
             <<<Displacing  28/coordinate 1 (-)>>>
             <<<Displacing  28/coordinate 2 (+)>>>
             <<<Displacing  28/coordinate 2 (-)>>>
             <<<Displacing  29/coordinate 1 (+)>>>
             <<<Displacing  29/coordinate 1 (-)>>>
             <<<Displacing  28/coordinate 3 (+)>>>
             <<<Displacing  28/coordinate 3 (-)>>>
             <<<Displacing  29/coordinate 2 (+)>>>
             <<<Displacing  29/coordinate 2 (-)>>>
             <<<Displacing  29/coordinate 3 (+)>>>
             <<<Displacing  29/coordinate 3 (-)>>>
             <<<Displacing  30/coordinate 1 (+)>>>
             <<<Displacing  30/coordinate 1 (-)>>>
             <<<Displacing  30/coordinate 2 (+)>>>
             <<<Displacing  30/coordinate 2 (-)>>>
             <<<Displacing  30/coordinate 3 (+)>>>
             <<<Displacing  30/coordinate 3 (-)>>>
             <<<Displacing  31/coordinate 1 (+)>>>
             <<<Displacing  31/coordinate 1 (-)>>>
             <<<Displacing  31/coordinate 3 (+)>>>
             <<<Displacing  31/coordinate 2 (+)>>>
             <<<Displacing  31/coordinate 3 (-)>>>
             <<<Displacing  31/coordinate 2 (-)>>>
             <<<Displacing  32/coordinate 1 (+)>>>
             <<<Displacing  32/coordinate 1 (-)>>>
             <<<Displacing  32/coordinate 2 (+)>>>
             <<<Displacing  32/coordinate 2 (-)>>>
             <<<Displacing  32/coordinate 3 (+)>>>
             <<<Displacing  32/coordinate 3 (-)>>>
             <<<Displacing  33/coordinate 1 (+)>>>
             <<<Displacing  33/coordinate 2 (+)>>>
             <<<Displacing  33/coordinate 1 (-)>>>
             <<<Displacing  33/coordinate 2 (-)>>>
             <<<Displacing  33/coordinate 3 (+)>>>
             <<<Displacing  33/coordinate 3 (-)>>>
             <<<Displacing  34/coordinate 2 (+)>>>
             <<<Displacing  34/coordinate 2 (-)>>>
             <<<Displacing  34/coordinate 1 (+)>>>
             <<<Displacing  34/coordinate 1 (-)>>>
             <<<Displacing  34/coordinate 3 (+)>>>
             <<<Displacing  34/coordinate 3 (-)>>>
             <<<Displacing  35/coordinate 1 (+)>>>
             <<<Displacing  35/coordinate 1 (-)>>>
             <<<Displacing  35/coordinate 2 (+)>>>
             <<<Displacing  35/coordinate 2 (-)>>>
             <<<Displacing  36/coordinate 1 (+)>>>
             <<<Displacing  36/coordinate 1 (-)>>>
             <<<Displacing  36/coordinate 2 (+)>>>
             <<<Displacing  35/coordinate 3 (+)>>>
             <<<Displacing  36/coordinate 2 (-)>>>
             <<<Displacing  35/coordinate 3 (-)>>>
             <<<Displacing  37/coordinate 1 (+)>>>
             <<<Displacing  36/coordinate 3 (+)>>>
             <<<Displacing  37/coordinate 1 (-)>>>
             <<<Displacing  36/coordinate 3 (-)>>>
             <<<Displacing  37/coordinate 2 (+)>>>
             <<<Displacing  37/coordinate 2 (-)>>>
             <<<Displacing  38/coordinate 1 (+)>>>
             <<<Displacing  37/coordinate 3 (+)>>>
             <<<Displacing  38/coordinate 1 (-)>>>
             <<<Displacing  37/coordinate 3 (-)>>>
             <<<Displacing  38/coordinate 2 (+)>>>
             <<<Displacing  38/coordinate 2 (-)>>>
             <<<Displacing  38/coordinate 3 (+)>>>
             <<<Displacing  39/coordinate 1 (+)>>>
             <<<Displacing  38/coordinate 3 (-)>>>
             <<<Displacing  39/coordinate 1 (-)>>>
             <<<Displacing  39/coordinate 2 (+)>>>
             <<<Displacing  39/coordinate 3 (+)>>>
             <<<Displacing  39/coordinate 2 (-)>>>
             <<<Displacing  39/coordinate 3 (-)>>>
             <<<Displacing  40/coordinate 1 (+)>>>
             <<<Displacing  40/coordinate 1 (-)>>>
             <<<Displacing  40/coordinate 2 (+)>>>
             <<<Displacing  40/coordinate 2 (-)>>>
             <<<Displacing  40/coordinate 3 (+)>>>
             <<<Displacing  40/coordinate 3 (-)>>>
             <<<Displacing  41/coordinate 1 (+)>>>
             <<<Displacing  41/coordinate 1 (-)>>>
             <<<Displacing  41/coordinate 2 (+)>>>
             <<<Displacing  41/coordinate 3 (+)>>>
             <<<Displacing  41/coordinate 2 (-)>>>
             <<<Displacing  41/coordinate 3 (-)>>>
             <<<Displacing  42/coordinate 1 (+)>>>
             <<<Displacing  42/coordinate 1 (-)>>>
             <<<Displacing  42/coordinate 2 (+)>>>
             <<<Displacing  42/coordinate 2 (-)>>>
             <<<Displacing  42/coordinate 3 (+)>>>
             <<<Displacing  42/coordinate 3 (-)>>>
             <<<Displacing  43/coordinate 1 (+)>>>
             <<<Displacing  43/coordinate 1 (-)>>>
             <<<Displacing  43/coordinate 2 (+)>>>
             <<<Displacing  43/coordinate 2 (-)>>>
             <<<Displacing  43/coordinate 3 (+)>>>
             <<<Displacing  43/coordinate 3 (-)>>>
             <<<Displacing  44/coordinate 2 (+)>>>
             <<<Displacing  44/coordinate 1 (+)>>>
             <<<Displacing  44/coordinate 2 (-)>>>
             <<<Displacing  44/coordinate 1 (-)>>>
             <<<Displacing  44/coordinate 3 (+)>>>
             <<<Displacing  44/coordinate 3 (-)>>>
             <<<Displacing  45/coordinate 1 (+)>>>
             <<<Displacing  45/coordinate 1 (-)>>>
             <<<Displacing  45/coordinate 2 (+)>>>
             <<<Displacing  45/coordinate 2 (-)>>>
             <<<Displacing  45/coordinate 3 (+)>>>
             <<<Displacing  45/coordinate 3 (-)>>>
             <<<Displacing  46/coordinate 1 (+)>>>
             <<<Displacing  46/coordinate 1 (-)>>>
             <<<Displacing  46/coordinate 2 (+)>>>
             <<<Displacing  46/coordinate 2 (-)>>>
             <<<Displacing  46/coordinate 3 (+)>>>
             <<<Displacing  46/coordinate 3 (-)>>>

-----------------------
VIBRATIONAL FREQUENCIES
-----------------------

Scaling factor for frequencies =  1.000000000 (already applied!)

   0:         0.00 cm**-1
   1:         0.00 cm**-1
   2:         0.00 cm**-1
   3:         0.00 cm**-1
   4:         0.00 cm**-1
   5:         0.00 cm**-1
   6:       -52.29 cm**-1 ***imaginary mode***
   7:       -27.02 cm**-1 ***imaginary mode***
   8:        26.60 cm**-1
   9:        32.87 cm**-1
  10:        40.47 cm**-1
  11:        43.63 cm**-1
  12:        49.40 cm**-1
  13:        56.62 cm**-1
  14:        63.83 cm**-1
  15:        76.83 cm**-1
  16:        82.63 cm**-1
  17:        85.02 cm**-1
  18:       112.02 cm**-1
  19:       116.63 cm**-1
  20:       133.36 cm**-1
  21:       140.86 cm**-1
  22:       151.19 cm**-1
  23:       202.91 cm**-1
  24:       205.44 cm**-1
  25:       217.50 cm**-1
  26:       256.48 cm**-1
  27:       260.64 cm**-1
  28:       275.22 cm**-1
  29:       320.43 cm**-1
  30:       380.92 cm**-1
  31:       391.75 cm**-1
  32:       392.91 cm**-1
  33:       397.05 cm**-1
  34:       425.91 cm**-1
  35:       431.94 cm**-1
  36:       438.92 cm**-1
  37:       444.34 cm**-1
  38:       586.52 cm**-1
  39:       627.13 cm**-1
  40:       659.91 cm**-1
  41:       745.75 cm**-1
  42:       768.94 cm**-1
  43:       771.32 cm**-1
  44:       816.86 cm**-1
  45:       822.40 cm**-1
  46:       827.29 cm**-1
  47:       878.66 cm**-1
  48:       897.69 cm**-1
  49:       919.28 cm**-1
  50:       920.51 cm**-1
  51:       922.47 cm**-1
  52:       933.76 cm**-1
  53:       934.22 cm**-1
  54:       936.34 cm**-1
  55:       937.44 cm**-1
  56:       972.27 cm**-1
  57:       980.89 cm**-1
  58:       984.95 cm**-1
  59:      1011.39 cm**-1
  60:      1015.87 cm**-1
  61:      1059.74 cm**-1
  62:      1065.80 cm**-1
  63:      1068.23 cm**-1
  64:      1086.79 cm**-1
  65:      1099.71 cm**-1
  66:      1103.54 cm**-1
  67:      1112.64 cm**-1
  68:      1123.10 cm**-1
  69:      1135.64 cm**-1
  70:      1149.92 cm**-1
  71:      1174.70 cm**-1
  72:      1178.04 cm**-1
  73:      1203.15 cm**-1
  74:      1206.59 cm**-1
  75:      1209.25 cm**-1
  76:      1235.97 cm**-1
  77:      1261.67 cm**-1
  78:      1269.43 cm**-1
  79:      1272.52 cm**-1
  80:      1276.73 cm**-1
  81:      1279.54 cm**-1
  82:      1281.82 cm**-1
  83:      1293.93 cm**-1
  84:      1302.05 cm**-1
  85:      1309.81 cm**-1
  86:      1336.65 cm**-1
  87:      1353.98 cm**-1
  88:      1359.41 cm**-1
  89:      1372.94 cm**-1
  90:      1379.60 cm**-1
  91:      1426.40 cm**-1
  92:      1427.35 cm**-1
  93:      1427.62 cm**-1
  94:      1448.69 cm**-1
  95:      1491.92 cm**-1
  96:      1502.69 cm**-1
  97:      1503.41 cm**-1
  98:      1505.12 cm**-1
  99:      1505.99 cm**-1
 100:      1506.52 cm**-1
 101:      1508.68 cm**-1
 102:      1508.71 cm**-1
 103:      1511.99 cm**-1
 104:      1512.14 cm**-1
 105:      1556.25 cm**-1
 106:      1561.00 cm**-1
 107:      1568.68 cm**-1
 108:      1569.23 cm**-1
 109:      1665.58 cm**-1
 110:      2834.88 cm**-1
 111:      2850.49 cm**-1
 112:      2928.06 cm**-1
 113:      2928.65 cm**-1
 114:      2941.98 cm**-1
 115:      2942.58 cm**-1
 116:      2952.46 cm**-1
 117:      2955.24 cm**-1
 118:      2960.68 cm**-1
 119:      2963.21 cm**-1
 120:      2965.04 cm**-1
 121:      2974.47 cm**-1
 122:      2977.34 cm**-1
 123:      2978.07 cm**-1
 124:      2978.41 cm**-1
 125:      2983.30 cm**-1
 126:      2983.74 cm**-1
 127:      2995.69 cm**-1
 128:      2995.84 cm**-1
 129:      3056.84 cm**-1
 130:      3059.73 cm**-1
 131:      3065.55 cm**-1
 132:      3071.88 cm**-1
 133:      3077.27 cm**-1
 134:      3321.36 cm**-1
 135:      3380.55 cm**-1
 136:      3401.62 cm**-1
 137:      3409.78 cm**-1


------------
NORMAL MODES
------------

These modes are the cartesian displacements weighted by the diagonal matrix
M(i,i)=1/sqrt(m[i]) where m[i] is the mass of the displaced atom
Thus, these vectors are normalized but *not* orthogonal

                  0          1          2          3          4          5    
      0       0.000000   0.000000   0.000000   0.000000   0.000000   0.000000
      1       0.000000   0.000000   0.000000   0.000000   0.000000   0.000000
      2       0.000000   0.000000   0.000000   0.000000   0.000000   0.000000
      3       0.000000   0.000000   0.000000   0.000000   0.000000   0.000000
      4       0.000000   0.000000   0.000000   0.000000   0.000000   0.000000
      5       0.000000   0.000000   0.000000   0.000000   0.000000   0.000000
      6       0.000000   0.000000   0.000000   0.000000   0.000000   0.000000
      7       0.000000   0.000000   0.000000   0.000000   0.000000   0.000000
      8       0.000000   0.000000   0.000000   0.000000   0.000000   0.000000
      9       0.000000   0.000000   0.000000   0.000000   0.000000   0.000000
     10       0.000000   0.000000   0.000000   0.000000   0.000000   0.000000
     11       0.000000   0.000000   0.000000   0.000000   0.000000   0.000000
     12       0.000000   0.000000   0.000000   0.000000   0.000000   0.000000
     13       0.000000   0.000000   0.000000   0.000000   0.000000   0.000000
     14       0.000000   0.000000   0.000000   0.000000   0.000000   0.000000
     15       0.000000   0.000000   0.000000   0.000000   0.000000   0.000000
     16       0.000000   0.000000   0.000000   0.000000   0.000000   0.000000
     17       0.000000   0.000000   0.000000   0.000000   0.000000   0.000000
     18       0.000000   0.000000   0.000000   0.000000   0.000000   0.000000
     19       0.000000   0.000000   0.000000   0.000000   0.000000   0.000000
     20       0.000000   0.000000   0.000000   0.000000   0.000000   0.000000
     21       0.000000   0.000000   0.000000   0.000000   0.000000   0.000000
     22       0.000000   0.000000   0.000000   0.000000   0.000000   0.000000
     23       0.000000   0.000000   0.000000   0.000000   0.000000   0.000000
     24       0.000000   0.000000   0.000000   0.000000   0.000000   0.000000
     25       0.000000   0.000000   0.000000   0.000000   0.000000   0.000000
     26       0.000000   0.000000   0.000000   0.000000   0.000000   0.000000
     27       0.000000   0.000000   0.000000   0.000000   0.000000   0.000000
     28       0.000000   0.000000   0.000000   0.000000   0.000000   0.000000
     29       0.000000   0.000000   0.000000   0.000000   0.000000   0.000000
     30       0.000000   0.000000   0.000000   0.000000   0.000000   0.000000
     31       0.000000   0.000000   0.000000   0.000000   0.000000   0.000000
     32       0.000000   0.000000   0.000000   0.000000   0.000000   0.000000
     33       0.000000   0.000000   0.000000   0.000000   0.000000   0.000000
     34       0.000000   0.000000   0.000000   0.000000   0.000000   0.000000
     35       0.000000   0.000000   0.000000   0.000000   0.000000   0.000000
     36       0.000000   0.000000   0.000000   0.000000   0.000000   0.000000
     37       0.000000   0.000000   0.000000   0.000000   0.000000   0.000000
     38       0.000000   0.000000   0.000000   0.000000   0.000000   0.000000
     39       0.000000   0.000000   0.000000   0.000000   0.000000   0.000000
     40       0.000000   0.000000   0.000000   0.000000   0.000000   0.000000
     41       0.000000   0.000000   0.000000   0.000000   0.000000   0.000000
     42       0.000000   0.000000   0.000000   0.000000   0.000000   0.000000
     43       0.000000   0.000000   0.000000   0.000000   0.000000   0.000000
     44       0.000000   0.000000   0.000000   0.000000   0.000000   0.000000
     45       0.000000   0.000000   0.000000   0.000000   0.000000   0.000000
     46       0.000000   0.000000   0.000000   0.000000   0.000000   0.000000
     47       0.000000   0.000000   0.000000   0.000000   0.000000   0.000000
     48       0.000000   0.000000   0.000000   0.000000   0.000000   0.000000
     49       0.000000   0.000000   0.000000   0.000000   0.000000   0.000000
     50       0.000000   0.000000   0.000000   0.000000   0.000000   0.000000
     51       0.000000   0.000000   0.000000   0.000000   0.000000   0.000000
     52       0.000000   0.000000   0.000000   0.000000   0.000000   0.000000
     53       0.000000   0.000000   0.000000   0.000000   0.000000   0.000000
     54       0.000000   0.000000   0.000000   0.000000   0.000000   0.000000
     55       0.000000   0.000000   0.000000   0.000000   0.000000   0.000000
     56       0.000000   0.000000   0.000000   0.000000   0.000000   0.000000
     57       0.000000   0.000000   0.000000   0.000000   0.000000   0.000000
     58       0.000000   0.000000   0.000000   0.000000   0.000000   0.000000
     59       0.000000   0.000000   0.000000   0.000000   0.000000   0.000000
     60       0.000000   0.000000   0.000000   0.000000   0.000000   0.000000
     61       0.000000   0.000000   0.000000   0.000000   0.000000   0.000000
     62       0.000000   0.000000   0.000000   0.000000   0.000000   0.000000
     63       0.000000   0.000000   0.000000   0.000000   0.000000   0.000000
     64       0.000000   0.000000   0.000000   0.000000   0.000000   0.000000
     65       0.000000   0.000000   0.000000   0.000000   0.000000   0.000000
     66       0.000000   0.000000   0.000000   0.000000   0.000000   0.000000
     67       0.000000   0.000000   0.000000   0.000000   0.000000   0.000000
     68       0.000000   0.000000   0.000000   0.000000   0.000000   0.000000
     69       0.000000   0.000000   0.000000   0.000000   0.000000   0.000000
     70       0.000000   0.000000   0.000000   0.000000   0.000000   0.000000
     71       0.000000   0.000000   0.000000   0.000000   0.000000   0.000000
     72       0.000000   0.000000   0.000000   0.000000   0.000000   0.000000
     73       0.000000   0.000000   0.000000   0.000000   0.000000   0.000000
     74       0.000000   0.000000   0.000000   0.000000   0.000000   0.000000
     75       0.000000   0.000000   0.000000   0.000000   0.000000   0.000000
     76       0.000000   0.000000   0.000000   0.000000   0.000000   0.000000
     77       0.000000   0.000000   0.000000   0.000000   0.000000   0.000000
     78       0.000000   0.000000   0.000000   0.000000   0.000000   0.000000
     79       0.000000   0.000000   0.000000   0.000000   0.000000   0.000000
     80       0.000000   0.000000   0.000000   0.000000   0.000000   0.000000
     81       0.000000   0.000000   0.000000   0.000000   0.000000   0.000000
     82       0.000000   0.000000   0.000000   0.000000   0.000000   0.000000
     83       0.000000   0.000000   0.000000   0.000000   0.000000   0.000000
     84       0.000000   0.000000   0.000000   0.000000   0.000000   0.000000
     85       0.000000   0.000000   0.000000   0.000000   0.000000   0.000000
     86       0.000000   0.000000   0.000000   0.000000   0.000000   0.000000
     87       0.000000   0.000000   0.000000   0.000000   0.000000   0.000000
     88       0.000000   0.000000   0.000000   0.000000   0.000000   0.000000
     89       0.000000   0.000000   0.000000   0.000000   0.000000   0.000000
     90       0.000000   0.000000   0.000000   0.000000   0.000000   0.000000
     91       0.000000   0.000000   0.000000   0.000000   0.000000   0.000000
     92       0.000000   0.000000   0.000000   0.000000   0.000000   0.000000
     93       0.000000   0.000000   0.000000   0.000000   0.000000   0.000000
     94       0.000000   0.000000   0.000000   0.000000   0.000000   0.000000
     95       0.000000   0.000000   0.000000   0.000000   0.000000   0.000000
     96       0.000000   0.000000   0.000000   0.000000   0.000000   0.000000
     97       0.000000   0.000000   0.000000   0.000000   0.000000   0.000000
     98       0.000000   0.000000   0.000000   0.000000   0.000000   0.000000
     99       0.000000   0.000000   0.000000   0.000000   0.000000   0.000000
    100       0.000000   0.000000   0.000000   0.000000   0.000000   0.000000
    101       0.000000   0.000000   0.000000   0.000000   0.000000   0.000000
    102       0.000000   0.000000   0.000000   0.000000   0.000000   0.000000
    103       0.000000   0.000000   0.000000   0.000000   0.000000   0.000000
    104       0.000000   0.000000   0.000000   0.000000   0.000000   0.000000
    105       0.000000   0.000000   0.000000   0.000000   0.000000   0.000000
    106       0.000000   0.000000   0.000000   0.000000   0.000000   0.000000
    107       0.000000   0.000000   0.000000   0.000000   0.000000   0.000000
    108       0.000000   0.000000   0.000000   0.000000   0.000000   0.000000
    109       0.000000   0.000000   0.000000   0.000000   0.000000   0.000000
    110       0.000000   0.000000   0.000000   0.000000   0.000000   0.000000
    111       0.000000   0.000000   0.000000   0.000000   0.000000   0.000000
    112       0.000000   0.000000   0.000000   0.000000   0.000000   0.000000
    113       0.000000   0.000000   0.000000   0.000000   0.000000   0.000000
    114       0.000000   0.000000   0.000000   0.000000   0.000000   0.000000
    115       0.000000   0.000000   0.000000   0.000000   0.000000   0.000000
    116       0.000000   0.000000   0.000000   0.000000   0.000000   0.000000
    117       0.000000   0.000000   0.000000   0.000000   0.000000   0.000000
    118       0.000000   0.000000   0.000000   0.000000   0.000000   0.000000
    119       0.000000   0.000000   0.000000   0.000000   0.000000   0.000000
    120       0.000000   0.000000   0.000000   0.000000   0.000000   0.000000
    121       0.000000   0.000000   0.000000   0.000000   0.000000   0.000000
    122       0.000000   0.000000   0.000000   0.000000   0.000000   0.000000
    123       0.000000   0.000000   0.000000   0.000000   0.000000   0.000000
    124       0.000000   0.000000   0.000000   0.000000   0.000000   0.000000
    125       0.000000   0.000000   0.000000   0.000000   0.000000   0.000000
    126       0.000000   0.000000   0.000000   0.000000   0.000000   0.000000
    127       0.000000   0.000000   0.000000   0.000000   0.000000   0.000000
    128       0.000000   0.000000   0.000000   0.000000   0.000000   0.000000
    129       0.000000   0.000000   0.000000   0.000000   0.000000   0.000000
    130       0.000000   0.000000   0.000000   0.000000   0.000000   0.000000
    131       0.000000   0.000000   0.000000   0.000000   0.000000   0.000000
    132       0.000000   0.000000   0.000000   0.000000   0.000000   0.000000
    133       0.000000   0.000000   0.000000   0.000000   0.000000   0.000000
    134       0.000000   0.000000   0.000000   0.000000   0.000000   0.000000
    135       0.000000   0.000000   0.000000   0.000000   0.000000   0.000000
    136       0.000000   0.000000   0.000000   0.000000   0.000000   0.000000
    137       0.000000   0.000000   0.000000   0.000000   0.000000   0.000000
                  6          7          8          9         10         11    
      0       0.042866   0.019684   0.007257  -0.072293  -0.113336  -0.033591
      1       0.004936   0.022480  -0.107068   0.097962  -0.119768  -0.060106
      2      -0.013172   0.008537   0.048659   0.068967   0.029658  -0.037508
      3       0.061416   0.017887   0.005044  -0.051066  -0.075688  -0.023275
      4       0.022471   0.019088  -0.089964   0.064502  -0.079633  -0.023419
      5      -0.000733   0.006607   0.052978   0.066693   0.056593  -0.022118
      6       0.079400   0.010516   0.006859  -0.041994  -0.027666  -0.011221
      7       0.040416   0.006525  -0.074707   0.035387  -0.019012   0.008105
      8       0.005270  -0.000886   0.069289   0.024564   0.083749   0.004174
      9       0.073508   0.005894   0.011623  -0.054926  -0.022492  -0.012285
     10       0.033884  -0.001053  -0.076057   0.041265  -0.004524  -0.001737
     11      -0.004575  -0.005072   0.082095  -0.014030   0.081402   0.012098
     12       0.052527   0.008160   0.013458  -0.075628  -0.062684  -0.023876
     13       0.014664   0.003884  -0.093163   0.076063  -0.047638  -0.040172
     14      -0.018182  -0.002452   0.077470  -0.010743   0.052505  -0.004482
     15       0.038393   0.014663   0.011154  -0.084716  -0.107130  -0.033758
     16       0.001734   0.014811  -0.109016   0.103927  -0.103797  -0.068395
     17      -0.021111   0.004124   0.060773   0.030524   0.027683  -0.028669
     18       0.063654   0.021471   0.001449  -0.041269  -0.080977  -0.023503
     19       0.022570   0.024514  -0.089857   0.060273  -0.093780  -0.017292
     20       0.004621   0.009940   0.043543   0.095403   0.057446  -0.029047
     21       0.083388  -0.001596   0.015386  -0.052122   0.015744  -0.003607
     22       0.043841  -0.011502  -0.061705   0.015608   0.043701   0.022172
     23      -0.001889  -0.010506   0.095368  -0.046169   0.102306   0.031310
     24       0.024001   0.015890   0.012898  -0.101687  -0.136394  -0.041532
     25      -0.011942   0.017256  -0.122580   0.130008  -0.134735  -0.096921
     26      -0.030984   0.005391   0.057218   0.032057   0.006554  -0.040639
     27      -0.221502  -0.091173  -0.116930  -0.043643   0.063937   0.028248
     28      -0.150721  -0.041892   0.006057  -0.097765  -0.023414  -0.015915
     29      -0.075321  -0.050303  -0.031390  -0.105040  -0.107406   0.087057
     30      -0.107420  -0.097588  -0.139417  -0.033290   0.104747   0.062930
     31      -0.039967  -0.032731  -0.017249  -0.099457   0.017443   0.011408
     32      -0.016716  -0.084122  -0.037521  -0.070631  -0.091956   0.122230
     33      -0.042841  -0.031198  -0.135368  -0.030274   0.091175   0.043268
     34      -0.029138  -0.039148   0.017707  -0.028901  -0.025735   0.042434
     35       0.028588  -0.025865  -0.035332  -0.080697  -0.097952   0.109445
     36       0.099351  -0.043688  -0.224632  -0.065005   0.137848   0.135103
     37      -0.083106  -0.033480   0.054228  -0.012864  -0.044732   0.006509
     38       0.224585  -0.005792  -0.055097  -0.029408  -0.075100   0.187286
     39       0.019153   0.001017  -0.129352  -0.017248   0.095069   0.031586
     40       0.187833  -0.050501  -0.071481  -0.029755   0.024372   0.173404
     41      -0.051721  -0.065038  -0.041174  -0.097106  -0.103834   0.121413
     42      -0.255408  -0.120764  -0.118434  -0.045101   0.067914   0.034229
     43      -0.451327  -0.051901   0.042506  -0.152551  -0.090407  -0.101827
     44      -0.002673  -0.017858  -0.034039  -0.096522  -0.103220   0.091332
     45       0.044854  -0.113915  -0.068910  -0.019802   0.100851   0.052690
     46       0.017627   0.008129   0.020824  -0.083544   0.076076   0.039522
     47      -0.010339  -0.002688  -0.071629   0.086441  -0.040530   0.102847
     48       0.092482   0.002775  -0.002308  -0.021021   0.008692  -0.000413
     49       0.050288  -0.005301  -0.063669  -0.006867   0.019932   0.049668
     50       0.009798  -0.009213   0.068209   0.018462   0.108063   0.020300
     51       0.058594   0.004027   0.001865  -0.027593   0.004157  -0.001840
     52       0.011855  -0.004373  -0.053305  -0.029361   0.015262   0.055507
     53      -0.013007  -0.006182   0.062088   0.041144   0.105416   0.007052
     54       0.099271  -0.014870  -0.021722  -0.008110   0.032096   0.006990
     55       0.063443  -0.027038  -0.075179  -0.023371   0.049272   0.075828
     56       0.017910  -0.021547   0.068127  -0.009879   0.124850   0.045516
     57      -0.128996   0.002566  -0.047590   0.013698   0.054642  -0.052265
     58      -0.097713  -0.025562   0.098399   0.028677  -0.062168  -0.010401
     59      -0.019341   0.021881  -0.006118  -0.101688  -0.103985   0.006988
     60      -0.246904   0.014804   0.038595   0.036371  -0.007354  -0.140230
     61      -0.054840  -0.031524   0.063248   0.015219  -0.040103   0.022797
     62      -0.171338   0.005725   0.021905  -0.188161  -0.195887  -0.082951
     63      -0.172399  -0.025570  -0.048496  -0.017017   0.015144  -0.043312
     64      -0.278596  -0.012677   0.190476   0.003285  -0.158357  -0.149737
     65       0.038121   0.055667  -0.007233  -0.063589  -0.053468  -0.000429
     66       0.000450   0.054916  -0.074894   0.071223   0.160107  -0.043084
     67       0.015033  -0.020467   0.102265   0.137116   0.003397   0.081116
     68       0.048882   0.041302  -0.014944  -0.059420  -0.053933   0.028854
     69       0.069922   0.051588  -0.133877   0.048842   0.200217   0.019815
     70      -0.008093  -0.018379   0.125564   0.149825  -0.009416   0.058723
     71       0.183692   0.059338  -0.036244   0.027727   0.034612   0.113339
     72       0.052659   0.080340  -0.079202   0.103663   0.206158  -0.048300
     73       0.139946  -0.022633   0.040382   0.162138   0.075602   0.193132
     74      -0.018231   0.010088  -0.008036  -0.099813  -0.112242   0.032351
     75       0.047150   0.004284   0.016878  -0.085754  -0.058735  -0.024569
     76       0.010415  -0.001522  -0.093770   0.080271  -0.036023  -0.047279
     77      -0.026915  -0.006281   0.086825  -0.040858   0.050091   0.001517
     78       0.031453   0.024842   0.006007  -0.079349  -0.147164  -0.041537
     79      -0.007340   0.030488  -0.118766   0.118418  -0.162844  -0.082062
     80      -0.016788   0.013284   0.036104   0.099658   0.010270  -0.056026
     81      -0.095714   0.189706  -0.033431   0.060971   0.000686   0.209628
     82      -0.016092   0.081850   0.055498  -0.066320   0.041277   0.133546
     83      -0.035684   0.056331  -0.082516   0.102894  -0.052333   0.091222
     84      -0.037165   0.053825   0.033719   0.044925  -0.020515   0.107293
     85       0.047392  -0.054706  -0.005799  -0.110106   0.117910   0.003724
     86       0.052333  -0.141636  -0.078800   0.058791  -0.010543  -0.074110
     87      -0.136595   0.301515   0.084879   0.075584  -0.105133   0.228690
     88       0.061549  -0.091270  -0.027088  -0.109365   0.137957   0.028317
     89       0.085268  -0.221709  -0.079551   0.042521   0.008396  -0.161792
     90       0.029659  -0.115083   0.017086   0.027040   0.023737   0.016617
     91       0.099578  -0.176820  -0.059126  -0.138533   0.183969  -0.079662
     92       0.119253  -0.313643  -0.081255   0.045800   0.022611  -0.160002
     93       0.000162  -0.046979   0.066530   0.042242  -0.026028   0.033195
     94      -0.010523   0.087928   0.071062  -0.097565   0.040676   0.007235
     95      -0.036226   0.089593  -0.076454   0.071468  -0.052387   0.032279
     96      -0.062488   0.117140   0.079862   0.061318  -0.071866   0.128270
     97      -0.059818   0.215584   0.119749  -0.058469  -0.040063   0.108302
     98      -0.098751   0.253898  -0.075792   0.082507  -0.083318   0.118618
     99       0.093427  -0.288374   0.017963   0.008108   0.064787  -0.095219
    100      -0.023798   0.117984   0.094691  -0.105577   0.028524  -0.027652
    101      -0.066093   0.171980  -0.080409   0.097424  -0.082365   0.135528
    102      -0.006586  -0.036933   0.143965   0.060703  -0.092265   0.006100
    103       0.015050   0.019322   0.053156  -0.128458   0.087525  -0.079055
    104       0.000727  -0.012594  -0.070405   0.032282  -0.009385  -0.113261
    105      -0.057595   0.106332   0.179331   0.081759  -0.155118   0.096966
    106       0.012952   0.024848   0.034226  -0.114929   0.088444  -0.030412
    107       0.028139  -0.089141  -0.065958   0.006420   0.020320  -0.213584
    108       0.025900  -0.130632   0.137915   0.050753  -0.065207  -0.061146
    109       0.053220  -0.082688   0.009130  -0.164463   0.160767  -0.169541
    110       0.029722  -0.098813  -0.063023   0.031805   0.000397  -0.169112
    111      -0.036395   0.058049  -0.038392   0.030324   0.034603   0.139059
    112       0.026683  -0.008719   0.012366  -0.095853   0.094042   0.063679
    113       0.020937  -0.070489  -0.076284   0.075707  -0.027783   0.028754
    114       0.009050  -0.087781   0.179100   0.063696  -0.108847  -0.048954
    115      -0.004981   0.072800   0.116133  -0.130910   0.039826  -0.110259
    116      -0.033268   0.090988  -0.080377   0.026869  -0.016039  -0.056180
    117       0.007714  -0.090001   0.226523   0.071841  -0.145739  -0.075343
    118       0.004643   0.046222   0.106885  -0.145414   0.062191  -0.148758
    119      -0.018997   0.048556  -0.070626   0.008469  -0.000049  -0.129481
    120      -0.015803  -0.014109   0.184285   0.069542  -0.129509   0.002167
    121      -0.026241   0.130886   0.150155  -0.108553  -0.010311  -0.058479
    122      -0.057490   0.164918  -0.087942   0.025187  -0.022353  -0.009704
    123       0.046006  -0.194981   0.151786   0.051804  -0.063323  -0.113070
    124      -0.007942   0.080136   0.137041  -0.140730   0.033150  -0.145913
    125      -0.047770   0.134404  -0.089722   0.043108  -0.030667   0.012731
    126      -0.027750   0.075620  -0.022513   0.116188   0.156166  -0.106515
    127      -0.006564  -0.015135   0.153258   0.192309  -0.006771   0.057037
    128       0.031330   0.076960  -0.005596  -0.076046  -0.041665  -0.062018
    129       0.031925   0.106074  -0.036230   0.143198   0.212932  -0.111578
    130       0.045042  -0.015223   0.158434   0.251728   0.025151   0.110838
    131       0.061805   0.086743  -0.008872  -0.054438  -0.016465  -0.052003
    132      -0.078530   0.080428   0.029159   0.143702   0.128168  -0.159889
    133       0.012143  -0.017144   0.133300   0.180866   0.003415   0.077037
    134      -0.054525   0.066202   0.006120  -0.139258  -0.101623  -0.125285
    135      -0.057432   0.055127  -0.022675   0.093841   0.124384  -0.094078
    136      -0.092679  -0.009462   0.204753   0.184020  -0.056113  -0.034412
    137       0.074839   0.104538  -0.007306  -0.045423   0.003290  -0.075470
                 12         13         14         15         16         17    
      0      -0.110170   0.009514  -0.076289  -0.068042  -0.007019  -0.001273
      1       0.033031   0.013492  -0.097725  -0.081401  -0.010930   0.014596
      2       0.098902   0.003283  -0.070656  -0.028760  -0.001367   0.040021
      3       0.000662  -0.038515  -0.076857  -0.052913  -0.006824  -0.010573
      4      -0.010061  -0.038061  -0.115652  -0.097300  -0.000387  -0.075456
      5       0.128431  -0.031315  -0.076376  -0.028031   0.001935   0.007910
      6       0.076957  -0.042091   0.004274   0.020337  -0.007607  -0.005391
      7      -0.029729  -0.029545  -0.005108  -0.013105   0.004379  -0.114049
      8       0.035640  -0.018537  -0.020184   0.003835   0.008027  -0.042189
      9       0.037646   0.006230   0.081720   0.073925  -0.007502   0.011182
     10      -0.006702   0.036239   0.119329   0.082802   0.000808  -0.059985
     11      -0.087740   0.032325   0.039570   0.034948   0.012879  -0.059831
     12      -0.073285   0.054967   0.082150   0.062568  -0.007241   0.021814
     13       0.037195   0.088273   0.138450   0.106170  -0.009004   0.032209
     14      -0.116440   0.067526   0.045616   0.037706   0.009919  -0.026904
     15      -0.147546   0.056643   0.005338  -0.007150  -0.007601   0.016560
     16       0.057070   0.076961   0.032550   0.025330  -0.015764   0.070269
     17      -0.023386   0.052887  -0.007849   0.007171   0.002424   0.023366
     18       0.029669  -0.073001  -0.136541  -0.095336  -0.006932  -0.022027
     19      -0.030241  -0.084400  -0.213542  -0.176502   0.001811  -0.116682
     20       0.221086  -0.068361  -0.122588  -0.051555  -0.000952   0.021965
     21       0.094575   0.005725   0.138165   0.120742  -0.007033   0.020169
     22      -0.023571   0.045644   0.198479   0.138232   0.005919  -0.086188
     23      -0.158246   0.043819   0.079952   0.057239   0.018197  -0.098444
     24      -0.234385   0.094408   0.008162  -0.014932  -0.008049   0.025857
     25       0.091932   0.117616   0.050049   0.043879  -0.024392   0.143241
     26      -0.046360   0.080336  -0.001366   0.009869  -0.000483   0.049876
     27       0.030440   0.066614  -0.052318   0.024179  -0.072381  -0.009981
     28      -0.010516  -0.116579  -0.033477   0.105904   0.168498   0.054323
     29       0.047859   0.101607  -0.001446  -0.022710  -0.054933  -0.009781
[...]
  13:        56.62    0.000000  (  0.000000   0.000000   0.000000)
  14:        63.83    0.000000  (  0.000000   0.000000   0.000000)
  15:        76.83    0.000000  (  0.000000   0.000000   0.000000)
  16:        82.63    0.000000  (  0.000000   0.000000   0.000000)
  17:        85.02    0.000000  (  0.000000   0.000000   0.000000)
  18:       112.02    0.000000  (  0.000000   0.000000   0.000000)
  19:       116.63    0.000000  (  0.000000   0.000000   0.000000)
  20:       133.36    0.000000  (  0.000000   0.000000   0.000000)
  21:       140.86    0.000000  (  0.000000   0.000000   0.000000)
  22:       151.19    0.000000  (  0.000000   0.000000   0.000000)
  23:       202.91    0.000000  (  0.000000   0.000000   0.000000)
  24:       205.44    0.000000  (  0.000000   0.000000   0.000000)
  25:       217.50    0.000000  (  0.000000   0.000000   0.000000)
  26:       256.48    0.000000  (  0.000000   0.000000   0.000000)
  27:       260.64    0.000000  (  0.000000   0.000000   0.000000)
  28:       275.22    0.000000  (  0.000000   0.000000   0.000000)
  29:       320.43    0.000000  (  0.000000   0.000000   0.000000)
  30:       380.92    0.000000  (  0.000000   0.000000   0.000000)
  31:       391.75    0.000000  (  0.000000   0.000000   0.000000)
  32:       392.91    0.000000  (  0.000000   0.000000   0.000000)
  33:       397.05    0.000000  (  0.000000   0.000000   0.000000)
  34:       425.91    0.000000  (  0.000000   0.000000   0.000000)
  35:       431.94    0.000000  (  0.000000   0.000000   0.000000)
  36:       438.92    0.000000  (  0.000000   0.000000   0.000000)
  37:       444.34    0.000000  (  0.000000   0.000000   0.000000)
  38:       586.52    0.000000  (  0.000000   0.000000   0.000000)
  39:       627.13    0.000000  (  0.000000   0.000000   0.000000)
  40:       659.91    0.000000  (  0.000000   0.000000   0.000000)
  41:       745.75    0.000000  (  0.000000   0.000000   0.000000)
  42:       768.94    0.000000  (  0.000000   0.000000   0.000000)
  43:       771.32    0.000000  (  0.000000   0.000000   0.000000)
  44:       816.86    0.000000  (  0.000000   0.000000   0.000000)
  45:       822.40    0.000000  (  0.000000   0.000000   0.000000)
  46:       827.29    0.000000  (  0.000000   0.000000   0.000000)
  47:       878.66    0.000000  (  0.000000   0.000000   0.000000)
  48:       897.69    0.000000  (  0.000000   0.000000   0.000000)
  49:       919.28    0.000000  (  0.000000   0.000000   0.000000)
  50:       920.51    0.000000  (  0.000000   0.000000   0.000000)
  51:       922.47    0.000000  (  0.000000   0.000000   0.000000)
  52:       933.76    0.000000  (  0.000000   0.000000   0.000000)
  53:       934.22    0.000000  (  0.000000   0.000000   0.000000)
  54:       936.34    0.000000  (  0.000000   0.000000   0.000000)
  55:       937.44    0.000000  (  0.000000   0.000000   0.000000)
  56:       972.27    0.000000  (  0.000000   0.000000   0.000000)
  57:       980.89    0.000000  (  0.000000   0.000000   0.000000)
  58:       984.95    0.000000  (  0.000000   0.000000   0.000000)
  59:      1011.39    0.000000  (  0.000000   0.000000   0.000000)
  60:      1015.87    0.000000  (  0.000000   0.000000   0.000000)
  61:      1059.74    0.000000  (  0.000000   0.000000   0.000000)
  62:      1065.80    0.000000  (  0.000000   0.000000   0.000000)
  63:      1068.23    0.000000  (  0.000000   0.000000   0.000000)
  64:      1086.79    0.000000  (  0.000000   0.000000   0.000000)
  65:      1099.71    0.000000  (  0.000000   0.000000   0.000000)
  66:      1103.54    0.000000  (  0.000000   0.000000   0.000000)
  67:      1112.64    0.000000  (  0.000000   0.000000   0.000000)
  68:      1123.10    0.000000  (  0.000000   0.000000   0.000000)
  69:      1135.64    0.000000  (  0.000000   0.000000   0.000000)
  70:      1149.92    0.000000  (  0.000000   0.000000   0.000000)
  71:      1174.70    0.000000  (  0.000000   0.000000   0.000000)
  72:      1178.04    0.000000  (  0.000000   0.000000   0.000000)
  73:      1203.15    0.000000  (  0.000000   0.000000   0.000000)
  74:      1206.59    0.000000  (  0.000000   0.000000   0.000000)
  75:      1209.25    0.000000  (  0.000000   0.000000   0.000000)
  76:      1235.97    0.000000  (  0.000000   0.000000   0.000000)
  77:      1261.67    0.000000  (  0.000000   0.000000   0.000000)
  78:      1269.43    0.000000  (  0.000000   0.000000   0.000000)
  79:      1272.52    0.000000  (  0.000000   0.000000   0.000000)
  80:      1276.73    0.000000  (  0.000000   0.000000   0.000000)
  81:      1279.54    0.000000  (  0.000000   0.000000   0.000000)
  82:      1281.82    0.000000  (  0.000000   0.000000   0.000000)
  83:      1293.93    0.000000  (  0.000000   0.000000   0.000000)
  84:      1302.05    0.000000  (  0.000000   0.000000   0.000000)
  85:      1309.81    0.000000  (  0.000000   0.000000   0.000000)
  86:      1336.65    0.000000  (  0.000000   0.000000   0.000000)
  87:      1353.98    0.000000  (  0.000000   0.000000   0.000000)
  88:      1359.41    0.000000  (  0.000000   0.000000   0.000000)
  89:      1372.94    0.000000  (  0.000000   0.000000   0.000000)
  90:      1379.60    0.000000  (  0.000000   0.000000   0.000000)
  91:      1426.40    0.000000  (  0.000000   0.000000   0.000000)
  92:      1427.35    0.000000  (  0.000000   0.000000   0.000000)
  93:      1427.62    0.000000  (  0.000000   0.000000   0.000000)
  94:      1448.69    0.000000  (  0.000000   0.000000   0.000000)
  95:      1491.92    0.000000  (  0.000000   0.000000   0.000000)
  96:      1502.69    0.000000  (  0.000000   0.000000   0.000000)
  97:      1503.41    0.000000  (  0.000000   0.000000   0.000000)
  98:      1505.12    0.000000  (  0.000000   0.000000   0.000000)
  99:      1505.99    0.000000  (  0.000000   0.000000   0.000000)
 100:      1506.52    0.000000  (  0.000000   0.000000   0.000000)
 101:      1508.68    0.000000  (  0.000000   0.000000   0.000000)
 102:      1508.71    0.000000  (  0.000000   0.000000   0.000000)
 103:      1511.99    0.000000  (  0.000000   0.000000   0.000000)
 104:      1512.14    0.000000  (  0.000000   0.000000   0.000000)
 105:      1556.25    0.000000  (  0.000000   0.000000   0.000000)
 106:      1561.00    0.000000  (  0.000000   0.000000   0.000000)
 107:      1568.68    0.000000  (  0.000000   0.000000   0.000000)
 108:      1569.23    0.000000  (  0.000000   0.000000   0.000000)
 109:      1665.58    0.000000  (  0.000000   0.000000   0.000000)
 110:      2834.88    0.000000  (  0.000000   0.000000   0.000000)
 111:      2850.49    0.000000  (  0.000000   0.000000   0.000000)
 112:      2928.06    0.000000  (  0.000000   0.000000   0.000000)
 113:      2928.65    0.000000  (  0.000000   0.000000   0.000000)
 114:      2941.98    0.000000  (  0.000000   0.000000   0.000000)
 115:      2942.58    0.000000  (  0.000000   0.000000   0.000000)
 116:      2952.46    0.000000  (  0.000000   0.000000   0.000000)
 117:      2955.24    0.000000  (  0.000000   0.000000   0.000000)
 118:      2960.68    0.000000  (  0.000000   0.000000   0.000000)
 119:      2963.21    0.000000  (  0.000000   0.000000   0.000000)
 120:      2965.04    0.000000  (  0.000000   0.000000   0.000000)
 121:      2974.47    0.000000  (  0.000000   0.000000   0.000000)
 122:      2977.34    0.000000  (  0.000000   0.000000   0.000000)
 123:      2978.07    0.000000  (  0.000000   0.000000   0.000000)
 124:      2978.41    0.000000  (  0.000000   0.000000   0.000000)
 125:      2983.30    0.000000  (  0.000000   0.000000   0.000000)
 126:      2983.74    0.000000  (  0.000000   0.000000   0.000000)
 127:      2995.69    0.000000  (  0.000000   0.000000   0.000000)
 128:      2995.84    0.000000  (  0.000000   0.000000   0.000000)
 129:      3056.84    0.000000  (  0.000000   0.000000   0.000000)
 130:      3059.73    0.000000  (  0.000000   0.000000   0.000000)
 131:      3065.55    0.000000  (  0.000000   0.000000   0.000000)
 132:      3071.88    0.000000  (  0.000000   0.000000   0.000000)
 133:      3077.27    0.000000  (  0.000000   0.000000   0.000000)
 134:      3321.36    0.000000  (  0.000000   0.000000   0.000000)
 135:      3380.55    0.000000  (  0.000000   0.000000   0.000000)
 136:      3401.62    0.000000  (  0.000000   0.000000   0.000000)
 137:      3409.78    0.000000  (  0.000000   0.000000   0.000000)

The first frequency considered to be a vibration is 8
The total number of vibrations considered is 130


--------------------------
THERMOCHEMISTRY AT 298.15K
--------------------------

Temperature         ... 298.15 K
Pressure            ... 1.00 atm
Total Mass          ... 252.40 AMU

Throughout the following assumptions are being made:
  (1) The electronic state is orbitally nondegenerate
  (2) There are no thermally accessible electronically excited states
  (3) Hindered rotations indicated by low frequency modes are not
      treated as such but are treated as vibrations and this may
      cause some error
  (4) All equations used are the standard statistical mechanics
      equations for an ideal gas
  (5) All vibrations are strictly harmonic

freq.      26.60  E(vib)   ...       0.56 
freq.      32.87  E(vib)   ...       0.55 
freq.      40.47  E(vib)   ...       0.54 
freq.      43.63  E(vib)   ...       0.53 
freq.      49.40  E(vib)   ...       0.52 
freq.      56.62  E(vib)   ...       0.52 
freq.      63.83  E(vib)   ...       0.51 
freq.      76.83  E(vib)   ...       0.49 
freq.      82.63  E(vib)   ...       0.48 
freq.      85.02  E(vib)   ...       0.48 
freq.     112.02  E(vib)   ...       0.45 
freq.     116.63  E(vib)   ...       0.44 
freq.     133.36  E(vib)   ...       0.42 
freq.     140.86  E(vib)   ...       0.41 
freq.     151.19  E(vib)   ...       0.40 
freq.     202.91  E(vib)   ...       0.35 
freq.     205.44  E(vib)   ...       0.35 
freq.     217.50  E(vib)   ...       0.33 
freq.     256.48  E(vib)   ...       0.30 
freq.     260.64  E(vib)   ...       0.30 
freq.     275.22  E(vib)   ...       0.28 
freq.     320.43  E(vib)   ...       0.25 
freq.     380.92  E(vib)   ...       0.21 
freq.     391.75  E(vib)   ...       0.20 
freq.     392.91  E(vib)   ...       0.20 
freq.     397.05  E(vib)   ...       0.20 
freq.     425.91  E(vib)   ...       0.18 
freq.     431.94  E(vib)   ...       0.18 
freq.     438.92  E(vib)   ...       0.17 
freq.     444.34  E(vib)   ...       0.17 
freq.     586.52  E(vib)   ...       0.11 
freq.     627.13  E(vib)   ...       0.09 
freq.     659.91  E(vib)   ...       0.08 
freq.     745.75  E(vib)   ...       0.06 
freq.     768.94  E(vib)   ...       0.06 
freq.     771.32  E(vib)   ...       0.05 
freq.     816.86  E(vib)   ...       0.05 
freq.     822.40  E(vib)   ...       0.05 
freq.     827.29  E(vib)   ...       0.04 
freq.     878.66  E(vib)   ...       0.04 
freq.     897.69  E(vib)   ...       0.03 
freq.     919.28  E(vib)   ...       0.03 
freq.     920.51  E(vib)   ...       0.03 
freq.     922.47  E(vib)   ...       0.03 
freq.     933.76  E(vib)   ...       0.03 
freq.     934.22  E(vib)   ...       0.03 
freq.     936.34  E(vib)   ...       0.03 
freq.     937.44  E(vib)   ...       0.03 
freq.     972.27  E(vib)   ...       0.03 
freq.     980.89  E(vib)   ...       0.02 
freq.     984.95  E(vib)   ...       0.02 
freq.    1011.39  E(vib)   ...       0.02 
freq.    1015.87  E(vib)   ...       0.02 
freq.    1059.74  E(vib)   ...       0.02 
freq.    1065.80  E(vib)   ...       0.02 
freq.    1068.23  E(vib)   ...       0.02 
freq.    1086.79  E(vib)   ...       0.02 
freq.    1099.71  E(vib)   ...       0.02 
freq.    1103.54  E(vib)   ...       0.02 
freq.    1112.64  E(vib)   ...       0.01 
freq.    1123.10  E(vib)   ...       0.01 
freq.    1135.64  E(vib)   ...       0.01 
freq.    1149.92  E(vib)   ...       0.01 
freq.    1174.70  E(vib)   ...       0.01 
freq.    1178.04  E(vib)   ...       0.01 
freq.    1203.15  E(vib)   ...       0.01 
freq.    1206.59  E(vib)   ...       0.01 
freq.    1209.25  E(vib)   ...       0.01 
freq.    1235.97  E(vib)   ...       0.01 
freq.    1261.67  E(vib)   ...       0.01 
freq.    1269.43  E(vib)   ...       0.01 
freq.    1272.52  E(vib)   ...       0.01 
freq.    1276.73  E(vib)   ...       0.01 
freq.    1279.54  E(vib)   ...       0.01 
freq.    1281.82  E(vib)   ...       0.01 
freq.    1293.93  E(vib)   ...       0.01 
freq.    1302.05  E(vib)   ...       0.01 
freq.    1309.81  E(vib)   ...       0.01 
freq.    1336.65  E(vib)   ...       0.01 
freq.    1353.98  E(vib)   ...       0.01 
freq.    1359.41  E(vib)   ...       0.01 
freq.    1372.94  E(vib)   ...       0.01 
freq.    1379.60  E(vib)   ...       0.01 
freq.    1426.40  E(vib)   ...       0.00 
freq.    1427.35  E(vib)   ...       0.00 
freq.    1427.62  E(vib)   ...       0.00 
freq.    1448.69  E(vib)   ...       0.00 
freq.    1491.92  E(vib)   ...       0.00 
freq.    1502.69  E(vib)   ...       0.00 
freq.    1503.41  E(vib)   ...       0.00 
freq.    1505.12  E(vib)   ...       0.00 
freq.    1505.99  E(vib)   ...       0.00 
freq.    1506.52  E(vib)   ...       0.00 
freq.    1508.68  E(vib)   ...       0.00 
freq.    1508.71  E(vib)   ...       0.00 
freq.    1511.99  E(vib)   ...       0.00 
freq.    1512.14  E(vib)   ...       0.00 
freq.    1556.25  E(vib)   ...       0.00 
freq.    1561.00  E(vib)   ...       0.00 
freq.    1568.68  E(vib)   ...       0.00 
freq.    1569.23  E(vib)   ...       0.00 
freq.    1665.58  E(vib)   ...       0.00 
freq.    2834.88  E(vib)   ...       0.00 
freq.    2850.49  E(vib)   ...       0.00 
freq.    2928.06  E(vib)   ...       0.00 
freq.    2928.65  E(vib)   ...       0.00 
freq.    2941.98  E(vib)   ...       0.00 
freq.    2942.58  E(vib)   ...       0.00 
freq.    2952.46  E(vib)   ...       0.00 
freq.    2955.24  E(vib)   ...       0.00 
freq.    2960.68  E(vib)   ...       0.00 
freq.    2963.21  E(vib)   ...       0.00 
freq.    2965.04  E(vib)   ...       0.00 
freq.    2974.47  E(vib)   ...       0.00 
freq.    2977.34  E(vib)   ...       0.00 
freq.    2978.07  E(vib)   ...       0.00 
freq.    2978.41  E(vib)   ...       0.00 
freq.    2983.30  E(vib)   ...       0.00 
freq.    2983.74  E(vib)   ...       0.00 
freq.    2995.69  E(vib)   ...       0.00 
freq.    2995.84  E(vib)   ...       0.00 
freq.    3056.84  E(vib)   ...       0.00 
freq.    3059.73  E(vib)   ...       0.00 
freq.    3065.55  E(vib)   ...       0.00 
freq.    3071.88  E(vib)   ...       0.00 
freq.    3077.27  E(vib)   ...       0.00 
freq.    3321.36  E(vib)   ...       0.00 
freq.    3380.55  E(vib)   ...       0.00 
freq.    3401.62  E(vib)   ...       0.00 
freq.    3409.78  E(vib)   ...       0.00 

------------
INNER ENERGY
------------

The inner energy is: U= E(el) + E(ZPE) + E(vib) + E(rot) + E(trans)
    E(el)   - is the total energy from the electronic structure calculation
              = E(kin-el) + E(nuc-el) + E(el-el) + E(nuc-nuc)
    E(ZPE)  - the the zero temperature vibrational energy from the frequency calculation
    E(vib)  - the the finite temperature correction to E(ZPE) due to population
              of excited vibrational states
    E(rot)  - is the rotational thermal energy
    E(trans)- is the translational thermal energy

Summary of contributions to the inner energy U:
Electronic energy                ...    -56.28080573 Eh
Zero point energy                ...      0.40171323 Eh     252.08 kcal/mol
Thermal vibrational correction   ...      0.01960978 Eh      12.31 kcal/mol
Thermal rotational correction    ...      0.00141627 Eh       0.89 kcal/mol
Thermal translational correction ...      0.00141627 Eh       0.89 kcal/mol
-----------------------------------------------------------------------
Total thermal energy                    -55.85665017 Eh


Summary of corrections to the electronic energy:
(perhaps to be used in another calculation)
Total thermal correction                  0.02244232 Eh      14.08 kcal/mol
Non-thermal (ZPE) correction              0.40171323 Eh     252.08 kcal/mol
-----------------------------------------------------------------------
Total correction                          0.42415556 Eh     266.16 kcal/mol


--------
ENTHALPY
--------

The enthalpy is H = U + kB*T
                kB is Boltzmann's constant
Total free energy                 ...    -55.85665017 Eh 
Thermal Enthalpy correction       ...      0.00094421 Eh       0.59 kcal/mol
-----------------------------------------------------------------------
Total Enthalpy                    ...    -55.85570596 Eh


Note: Only C1 symmetry has been detected, increase convergence thresholds 
      if your molecule has a higher symmetry. Symmetry factor of 1.0 is   
      used for the rotational entropy correction. 
 

Note: Rotational entropy computed according to Herzberg 
Infrared and Raman Spectra, Chapter V,1, Van Nostrand Reinhold, 1945 
Point Group:  C1, Symmetry Number:   1  
Rotational constants in cm-1:     0.009364     0.007482     0.004551 

Vibrational entropy computed according to the QRRHO of S. Grimme
Chem.Eur.J. 2012 18 9955


-------
ENTROPY
-------

The entropy contributions are T*S = T*(S(el)+S(vib)+S(rot)+S(trans))
     S(el)   - electronic entropy
     S(vib)  - vibrational entropy
     S(rot)  - rotational entropy
     S(trans)- translational entropy
The entropies will be listed as mutliplied by the temperature to get
units of energy

Electronic entropy                ...      0.00000000 Eh      0.00 kcal/mol
Vibrational entropy               ...      0.03603404 Eh     22.61 kcal/mol
Rotational entropy                ...      0.01657259 Eh     10.40 kcal/mol
Translational entropy             ...      0.02018250 Eh     12.66 kcal/mol
-----------------------------------------------------------------------
Final entropy term                ...      0.07278913 Eh     45.68 kcal/mol

In case the symmetry of your molecule has not been determined correctly
or in case you have a reason to use a different symmetry number we print 
out the resulting rotational entropy values for sn=1,12 :
 --------------------------------------------------------
|  sn= 1 | S(rot)=       0.01657259 Eh     10.40 kcal/mol|
|  sn= 2 | S(rot)=       0.01591813 Eh      9.99 kcal/mol|
|  sn= 3 | S(rot)=       0.01553530 Eh      9.75 kcal/mol|
|  sn= 4 | S(rot)=       0.01526368 Eh      9.58 kcal/mol|
|  sn= 5 | S(rot)=       0.01505299 Eh      9.45 kcal/mol|
|  sn= 6 | S(rot)=       0.01488084 Eh      9.34 kcal/mol|
|  sn= 7 | S(rot)=       0.01473530 Eh      9.25 kcal/mol|
|  sn= 8 | S(rot)=       0.01460922 Eh      9.17 kcal/mol|
|  sn= 9 | S(rot)=       0.01449801 Eh      9.10 kcal/mol|
|  sn=10 | S(rot)=       0.01439853 Eh      9.04 kcal/mol|
|  sn=11 | S(rot)=       0.01430854 Eh      8.98 kcal/mol|
|  sn=12 | S(rot)=       0.01422639 Eh      8.93 kcal/mol|
 --------------------------------------------------------


-------------------
GIBBS FREE ENERGY
-------------------

The Gibbs free energy is G = H - T*S

Total enthalpy                    ...    -55.85570596 Eh 
Total entropy correction          ...     -0.07278913 Eh    -45.68 kcal/mol
-----------------------------------------------------------------------
Final Gibbs free energy         ...    -55.92849509 Eh

For completeness - the Gibbs free energy minus the electronic energy
G-E(el)                           ...      0.35231063 Eh    221.08 kcal/mol


Total Time for Numerical Frequencies  :       153.796 sec
Time for Reference State(s)           :         0.165 sec
Time for Displacements                :       137.938 sec

Timings for individual modules:

Sum of individual times         ...        0.407 sec (=   0.007 min)
XTB module                      ...        0.407 sec (=   0.007 min) 100.0 %
                             ****ORCA TERMINATED NORMALLY****
TOTAL RUN TIME: 0 days 0 hours 2 minutes 34 seconds 750 msec
(SLURM) EXECUTION TIME: 154.805349162 seconds.
