(SLURM) JOB ID:         112

                                 *****************
                                 * O   R   C   A *
                                 *****************

           --- An Ab Initio, DFT and Semiempirical electronic structure package ---

                  #######################################################
                  #                        -***-                        #
                  #          Department of theory and spectroscopy      #
                  #               Directorship: Frank Neese             #
                  #        Max Planck Institute fuer Kohlenforschung    #
                  #                Kaiser Wilhelm Platz 1               #
                  #                 D-45470 Muelheim/Ruhr               #
                  #                      Germany                        #
                  #                                                     #
                  #                  All rights reserved                #
                  #                        -***-                        #
                  #######################################################


                         Program Version 4.2.1 -  RELEASE  -


 With contributions from (in alphabetic order):
   Daniel Aravena         : Magnetic Suceptibility
   Michael Atanasov       : Ab Initio Ligand Field Theory (pilot matlab implementation)
   Alexander A. Auer      : GIAO ZORA, VPT2
   Ute Becker             : Parallelization
   Giovanni Bistoni       : ED, misc. LED, open-shell LED, HFLD
   Martin Brehm           : Molecular dynamics
   Dmytro Bykov           : SCF Hessian
   Vijay G. Chilkuri      : MRCI spin determinant printing, contributions to CSF-ICE
   Dipayan Datta          : RHF DLPNO-CCSD density
   Achintya Kumar Dutta   : EOM-CC, STEOM-CC
   Dmitry Ganyushin       : Spin-Orbit,Spin-Spin,Magnetic field MRCI
   Miquel Garcia          : C-PCM Hessian, Gaussian charge scheme
   Yang Guo               : DLPNO-NEVPT2, CIM, IAO-localization
   Andreas Hansen         : Spin unrestricted coupled pair/coupled cluster methods
   Benjamin Helmich-Paris : CASSCF linear response (MC-RPA)
   Lee Huntington         : MR-EOM, pCC
   Robert Izsak           : Overlap fitted RIJCOSX, COSX-SCS-MP3, EOM
   Christian Kollmar      : KDIIS, OOCD, Brueckner-CCSD(T), CCSD density
   Simone Kossmann        : Meta GGA functionals, TD-DFT gradient, OOMP2, MP2 Hessian
   Martin Krupicka        : AUTO-CI
   Lucas Lang             : DCDCAS
   Dagmar Lenk            : GEPOL surface, SMD
   Dimitrios Liakos       : Extrapolation schemes; Compound Job, initial MDCI parallelization
   Dimitrios Manganas     : Further ROCIS development; embedding schemes
   Dimitrios Pantazis     : SARC Basis sets
   Taras Petrenko         : DFT Hessian,TD-DFT gradient, ASA, ECA, R-Raman, ABS, FL, XAS/XES, NRVS
   Peter Pinski           : DLPNO-MP2, DLPNO-MP2 Gradient
   Christoph Reimann      : Effective Core Potentials
   Marius Retegan         : Local ZFS, SOC
   Christoph Riplinger    : Optimizer, TS searches, QM/MM, DLPNO-CCSD(T), (RO)-DLPNO pert. Triples
   Tobias Risthaus        : Range-separated hybrids, TD-DFT gradient, RPA, STAB
   Michael Roemelt        : Original ROCIS implementation
   Masaaki Saitow         : Open-shell DLPNO-CCSD energy and density
   Barbara Sandhoefer     : DKH picture change effects
   Avijit Sen             : IP-ROCIS
   Kantharuban Sivalingam : CASSCF convergence, NEVPT2, FIC-MRCI
   Bernardo de Souza      : ESD, SOC TD-DFT
   Georgi Stoychev        : AutoAux, RI-MP2 NMR
   Willem Van den Heuvel  : Paramagnetic NMR
   Boris Wezisla          : Elementary symmetry handling
   Frank Wennmohs         : Technical directorship


 We gratefully acknowledge several colleagues who have allowed us to
 interface, adapt or use parts of their codes:
   Stefan Grimme, W. Hujo, H. Kruse,             : VdW corrections, initial TS optimization,
                  C. Bannwarth                     DFT functionals, gCP, sTDA/sTD-DF
   Ed Valeev, F. Pavosevic, A. Kumar             : LibInt (2-el integral package), F12 methods
   Garnet Chan, S. Sharma, J. Yang, R. Olivares  : DMRG
   Ulf Ekstrom                                   : XCFun DFT Library
   Mihaly Kallay                                 : mrcc  (arbitrary order and MRCC methods)
   Andreas Klamt, Michael Diedenhofen            : otool_cosmo (COSMO solvation model)
   Jiri Pittner, Ondrej Demel                    : Mk-CCSD
   Frank Weinhold                                : gennbo (NPA and NBO analysis)
   Christopher J. Cramer and Donald G. Truhlar   : smd solvation model
   Lars Goerigk                                  : TD-DFT with DH, B97 family of functionals
   V. Asgeirsson, H. Jonsson                     : NEB implementation
   FAccTs GmbH                                   : IRC, NEB, NEB-TS, Multilevel, MM, QM/MM, CI optimization
   S Lehtola, MJT Oliveira, MAL Marques          : LibXC Library


 Your calculation uses the libint2 library for the computation of 2-el integrals
 For citations please refer to: http://libint.valeyev.net

 Your ORCA version has been built with support for libXC version: 4.2.3
 For citations please refer to: https://tddft.org/programs/libxc/

 This ORCA versions uses:
   CBLAS   interface :  Fast vector & matrix operations
   LAPACKE interface :  Fast linear algebra routines
   SCALAPACK package :  Parallel linear algebra routines




***************************************
The coordinates will be read from file: init.xyz
***************************************


Your calculation utilizes the SMD solvation module
Please cite in your paper:
A.V. Marenich, C.J. Cramer, D.G. Truhlar J. Phys. Chem. B, 113, (2009), 6378 

Your calculation utilizes the semiempirical GFN2-xTB method
Please cite in your paper:
C. Bannwarth, Ehlert S., S. Grimme,  J. Chem. Theory Comput., 15, (2019), 1652.
   

----- Orbital basis set information -----
Your calculation utilizes the basis: def2-SVP
   F. Weigend and R. Ahlrichs, Phys. Chem. Chem. Phys. 7, 3297 (2005).

================================================================================
                                        WARNINGS
                       Please study these warnings very carefully!
================================================================================

WARNING: Gradients needed for Numerical Frequencies
  ===> : Setting RunTyp to EnGrad

WARNING: The environment variable RSH_COMMAND is not set!
  ===> : All Displacements for the Numerical Hessian calculation
         will be started on localhost

WARNING: Found dipole moment calculation with XTB calculation
  ===> : Switching off dipole moment calculation


INFO   : the flag for use of LIBINT has been found!

================================================================================
                                       INPUT FILE
================================================================================
NAME = /tmp/slurm-scratch/freq.112/freq.inp
|  1> ! XTB2 NumFreq
|  2> %maxcore 1450
|  3> 
|  4> * xyzfile 0 1 init.xyz
|  5> 
|  6> %cpcm
|  7>  smd true
|  8>  smdsolvent "ch2cl2"
|  9> end
| 10> %pal nprocs 8 end
| 11> 
| 12>                          ****END OF INPUT****
================================================================================

                     *******************************
                     * Energy+Gradient Calculation *
                     *******************************

      -----------------------------------------------------------      
     |                   =====================                   |     
     |                           x T B                           |     
     |                   =====================                   |     
     |                         S. Grimme                         |     
     |          Mulliken Center for Theoretical Chemistry        |     
     |                    University of Bonn                     |     
      -----------------------------------------------------------      

   * xtb version 6.3.0 (preview) compiled by 'ehlert@majestix' on 2020-01-15

   This program is distributed in the hope that it will be useful,
   but WITHOUT ANY WARRANTY; without even the implied warranty of
   MERCHANTABILITY or FITNESS FOR A PARTICULAR PURPOSE.
   
   FOR NON-COMMERCIAL, ACADEMIA USE ONLY.
   
   Cite this work as:
   * S. Grimme, C. Bannwarth, P. Shushkov, J. Chem. Theory Comput., 2017,
     13, 1989-2009. DOI: 10.1021/acs.jctc.7b00118
   * C. Bannwarth, S. Ehlert and S. Grimme., J. Chem. Theory Comput., 2019,
     15, 1652-1671. DOI: 10.1021/acs.jctc.8b01176
   * P. Pracht, E. Caldeweyher, S. Ehlert, S. Grimme, ChemRxiv, 2019, preprint.
     DOI: 10.26434/chemrxiv.8326202.v1
   * S. Grimme, S. Spicher unpublished
   
   for DFT-D4:
   * E. Caldeweyher, C. Bannwarth and S. Grimme, J. Chem. Phys., 2017,
     147, 034112. DOI: 10.1063/1.4993215
   * E. Caldeweyher, S. Ehlert, A. Hansen, H. Neugebauer, S. Spicher,
     C. Bannwarth and S. Grimme, J. Chem. Phys., 2019, 150, 154122.
     DOI: 10.1063/1.5090222
   
   for sTDA-xTB:
   * S. Grimme and C. Bannwarth, J. Chem. Phys., 2016, 145, 054103.
     DOI: 10.1063/1.4959605
   
   in the mass-spec context:
   * V. Asgeirsson, C. Bauer and S. Grimme, Chem. Sci., 2017, 8, 4879.
     DOI: 10.1039/c7sc00601b
   
   for metadynamics refer to:
   * S. Grimme, J. Chem. Theory Comput., 2019, 155, 2847-2862
     DOI: 10.1021/acs.jctc.9b00143
   
   with help from (in alphabetical order)
   C. Bannwarth, F. Bohle, G. Brandenburg, E. Caldeweyher, M. Checinski,
   S. Dohm, S. Ehlert, S. Ehrlich, F. März, H. Neugebauer, J. Pisarek,
   P. Pracht, P. Shushkov, and S. Spicher.
   
 * started run on 2020/08/21 at 20:16:27.978     

           -------------------------------------------------
          |                Calculation Setup                |
           -------------------------------------------------

          program call               : /opt/orca/otool_xtb /tmp/slurm-scratch/freq.112/freq_XTB.xyz --grad -c 0 -u 0 -P 8 --namespace /tmp/slurm-scratch/freq.112/freq --gbsa CH2Cl2
          hostname                   : headnode-pbs
          calculation namespace      : /tmp/slurm-scratch/freq.112/freq
          coordinate file            : /tmp/slurm-scratch/freq.112/freq_XTB.xyz
          omp threads                :                     8
          number of atoms            :                    33
          number of electrons        :                    80
          charge                     :                     0
          spin                       :                   0.0
          first test random number   :      0.74523872525677


molecular fragmentation (1/2 indicates fragments):
111111111121111211111112111111111
# atoms in fragment 1/2:    30     3
 fragment masses (1/2) :      179.26       18.02
CMA distance (Bohr)    :   6.956
constraining FC (au)   :  0.0500

########################################################################
# WARNING! Please study the warnings concerning your input carefully
#  - Process number higher than OMP_NUM_THREADS, I hope you know what you are doing.
########################################################################

           ------------------------------------------------- 
          |                 G F N 2 - x T B                 |
          | Geometry, Frequencies, Noncovalent interactions |
          |            JCTC 2019 parametrisation            |
           ------------------------------------------------- 
             k(s)              :                1.8500
             k(p)              :                2.2300
             k(d)              :                2.2300
             k(f)              :                2.0000
             kEN (H0ij)        :               -2.0000
             D4 a1             :                0.5200
             D4 a2             :                5.0000
             D4 s6             :                1.0000
             D4 s8             :                2.7000
             D4 s9             :                5.0000
             alphaj            :                2.0000

  Z AO/shell   Hii/eV     exponent
  1     Wed Apr 25 08:07:45 CEST 2018   EN: 2.200 GM2: 0.406  GM3: 0.0800  RAES: 1.40
     1s    -10.707211    1.230000
  6     Wed Apr 25 08:07:45 CEST 2018   EN: 2.550 GM2: 0.538  GM3: 0.1500  RAES: 3.00
     2s    -13.970922    2.096432
     2p    -10.063292    1.800000
  7     Wed Apr 25 08:07:45 CEST 2018   EN: 3.040 GM2: 0.461  GM3:-0.0640  RAES: 1.90
     2s    -16.686243    2.339881
     2p    -12.523956    2.014332
  8     Wed Apr 25 08:07:45 CEST 2018   EN: 3.440 GM2: 0.452  GM3:-0.0517  RAES: 1.80
     2s    -20.229985    2.439742
     2p    -15.503117    2.137023

 Solvent             : CH2Cl2
 Using internal parameter file: .param_gbsa2_CH2Cl2
 Gsolv ref. state (COSMO-RS): gsolv [1 M gas/solution]
 temperature (mdtemp)       :    298.150000000000     
 dielectric constant        :    8.93000000000000     
 rho                        :    1.33000000000000     
 mass                       :    84.9300000000000     
 surface tension            :    15.5689454083859     
 probe radius               :   0.719875900000000     
 Gshift (Eh)                :   4.440829173451759E-003
 c1                         :    1.49173776000000     
 soset                      :   0.000000000000000E+000
 HB correction              :  F
           ------------------------------------------------- 
          |        Self-Consistent Charge Iterations        |
           ------------------------------------------------- 

          ...................................................
          :                      SETUP                      :
          :.................................................:
          :  # basis functions                  75          :
          :  # atomic orbitals                  75          :
          :  # shells                           47          :
          :  # electrons                        80          :
          :  max. iterations                   250          :
          :  Hamiltonian                  GFN2-xTB          :
          :  GBSA solvation                   true          :
          :  PC potential                    false          :
          :  electronic temp.          300.0000000     K    :
          :  accuracy                    1.0000000          :
          :  -> integral cutoff          0.2500000E+02      :
          :  -> integral neglect         0.1000000E-07      :
          :  -> SCF convergence          0.1000000E-05 Eh   :
          :  -> wf. convergence          0.1000000E-03 e    :
          :  Broyden damping             0.4000000          :
          ...................................................
  Checking positiv definite overlap ...  done.
 

 iter      E             dE          RMSdq      gap      omega  full diag
   1    -44.7925063 -0.447925E+02  0.347E+00    3.80       0.0  T
   2    -44.8365053 -0.439990E-01  0.195E+00    4.19       1.0  T
   3    -44.8362597  0.245554E-03  0.663E-01    4.18       1.0  T
   4    -44.8378196 -0.155984E-02  0.252E-01    4.20       1.0  T
   5    -44.8397257 -0.190613E-02  0.685E-02    4.19       1.0  T
   6    -44.8397436 -0.179559E-04  0.292E-02    4.20       1.0  T
   7    -44.8397444 -0.705940E-06  0.115E-02    4.20       1.5  T
   8    -44.8397464 -0.207291E-05  0.387E-03    4.20       4.5  T
   9    -44.8397466 -0.127493E-06  0.189E-03    4.20       9.2  T
  10    -44.8397466 -0.120823E-07  0.783E-04    4.20      22.2  T
  11    -44.8397466 -0.475249E-08  0.326E-04    4.20      53.4  T

   *** convergence criteria satisfied after 11 iterations ***

         #    Occupation            Energy/Eh            Energy/eV
      -------------------------------------------------------------
         1        2.0000           -0.6895444             -18.7635
       ...           ...                  ...                  ...
        34        2.0000           -0.4411268             -12.0037
        35        2.0000           -0.4294670             -11.6864
        36        2.0000           -0.4260458             -11.5933
        37        2.0000           -0.4137864             -11.2597
        38        2.0000           -0.4070007             -11.0751
        39        2.0000           -0.4056418             -11.0381
        40        2.0000           -0.3891700             -10.5899 (HOMO)
        41                         -0.2347071              -6.3867 (LUMO)
        42                         -0.2309379              -6.2841
        43                         -0.1107075              -3.0125
        44                         -0.0240528              -0.6545
        45                          0.0308053               0.8383
       ...                                ...                  ...
        75                          0.6149002              16.7323
      -------------------------------------------------------------
                  HL-Gap            0.1544629 Eh            4.2031 eV
             Fermi-level           -0.3119385 Eh           -8.4883 eV

 SCC (total)                   0 d,  0 h,  0 min,  0.045 sec
 SCC setup                      ...        0 min,  0.002 sec (  3.990%)
 Dispersion                     ...        0 min,  0.001 sec (  1.546%)
 integral evaluation            ...        0 min,  0.009 sec ( 20.468%)
 zeroth order Hamiltonian       ...        0 min,  0.000 sec (  0.067%)
 iterations                     ...        0 min,  0.022 sec ( 48.262%)
 molecular gradient             ...        0 min,  0.011 sec ( 24.100%)
 printout                       ...        0 min,  0.001 sec (  1.323%)

         :::::::::::::::::::::::::::::::::::::::::::::::::::::
         ::                     SUMMARY                     ::
         :::::::::::::::::::::::::::::::::::::::::::::::::::::
         :: total energy             -44.296441498827 Eh    ::
         :: total w/o Gsasa/hb       -44.279616099211 Eh    ::
         :: gradient norm              0.051017029287 Eh/a0 ::
         :: HOMO-LUMO gap              4.203148704112 eV    ::
         ::.................................................::
         :: SCC energy               -44.856571969709 Eh    ::
         :: -> isotropic ES            0.076019172676 Eh    ::
         :: -> anisotropic ES          0.000497885807 Eh    ::
         :: -> anisotropic XC          0.023136091843 Eh    ::
         :: -> dispersion             -0.026272994242 Eh    ::
         :: -> Gsolv                  -0.022483992409 Eh    ::
         ::    -> Gborn               -0.005658592793 Eh    ::
         ::    -> Gsasa               -0.021266228789 Eh    ::
         ::    -> Ghb                  0.000000000000 Eh    ::
         ::    -> Gshift               0.004440829173 Eh    ::
         :: repulsion energy           0.560052631014 Eh    ::
         :: add. restraining           0.000000000000 Eh    ::
         :::::::::::::::::::::::::::::::::::::::::::::::::::::

           -------------------------------------------------
          |                Property Printout                |
           -------------------------------------------------

    * Orbital Energies and Occupations

         #    Occupation            Energy/Eh            Energy/eV
      -------------------------------------------------------------
         1        2.0000           -0.6895444             -18.7635
       ...           ...                  ...                  ...
        28        2.0000           -0.4722806             -12.8514
        29        2.0000           -0.4711471             -12.8206
        30        2.0000           -0.4597505             -12.5104
        31        2.0000           -0.4482600             -12.1978
        32        2.0000           -0.4450606             -12.1107
        33        2.0000           -0.4431986             -12.0600
        34        2.0000           -0.4411268             -12.0037
        35        2.0000           -0.4294670             -11.6864
        36        2.0000           -0.4260458             -11.5933
        37        2.0000           -0.4137864             -11.2597
        38        2.0000           -0.4070007             -11.0751
        39        2.0000           -0.4056418             -11.0381
        40        2.0000           -0.3891700             -10.5899 (HOMO)
        41                         -0.2347071              -6.3867 (LUMO)
        42                         -0.2309379              -6.2841
        43                         -0.1107075              -3.0125
        44                         -0.0240528              -0.6545
        45                          0.0308053               0.8383
        46                          0.0454617               1.2371
        47                          0.0592696               1.6128
        48                          0.0694236               1.8891
        49                          0.0893317               2.4308
        50                          0.0925312               2.5179
        51                          0.1086900               2.9576
       ...                                ...                  ...
        75                          0.6149002              16.7323
      -------------------------------------------------------------
                  HL-Gap            0.1544629 Eh            4.2031 eV
             Fermi-level           -0.3119385 Eh           -8.4883 eV

     #   Z        covCN         q      C6AA      α(0)
     1   6 C      2.908    -0.030    28.740     8.790
     2   6 C      2.912    -0.037    28.932     8.820
     3   6 C      2.959    -0.016    28.398     8.741
     4   6 C      2.911    -0.034    28.852     8.808
     5   6 C      2.908    -0.029    28.731     8.789
     6   6 C      2.908    -0.030    28.746     8.792
     7   1 H      0.925     0.032     2.563     2.503
     8   1 H      0.925     0.052     2.292     2.368
     9   1 H      0.925     0.041     2.442     2.444
    10   7 N      2.674    -0.293    27.558     7.797
    11   1 H      0.798     0.308     0.697     1.312
    12   6 C      3.731     0.003    20.614     6.481
    13   1 H      0.923     0.043     2.407     2.426
    14   1 H      0.923     0.048     2.350     2.397
    15   1 H      0.860     0.150     1.403     1.855
    16   1 H      0.804     0.285     0.768     1.376
    17   1 H      0.802     0.320     0.664     1.280
    18   6 C      3.659     0.172    18.095     6.104
    19   1 H      0.923     0.027     2.632     2.537
    20   8 O      1.649    -0.487    22.618     6.420
    21   6 C      3.796    -0.063    21.718     6.636
    22   1 H      0.923     0.030     2.586     2.515
    23   1 H      0.923     0.033     2.549     2.497
    24   8 O      1.601    -0.624    25.778     6.852
    25   6 C      3.795    -0.053    21.534     6.608
    26   1 H      0.923     0.033     2.539     2.492
    27   1 H      0.923     0.033     2.551     2.498
    28   1 H      0.925     0.040     2.444     2.445
    29   1 H      0.925     0.041     2.433     2.439
    30   6 C      3.745    -0.100    22.485     6.764
    31   1 H      0.923     0.035     2.516     2.481
    32   1 H      0.923     0.037     2.492     2.469
    33   1 H      0.923     0.034     2.531     2.488

 Mol. C6AA /au·bohr⁶  :       9454.494436
 Mol. C8AA /au·bohr⁸  :     210483.254654
 Mol. α(0) /au        :        149.224013


Wiberg/Mayer (AO) data.
largest (>0.10) Wiberg bond orders for each atom
          total WBO             WBO to atom ...
     1  C   3.990        C    6 1.441    C    2 1.440    H   28 0.971    C    4 0.112
     2  C   3.990        C    1 1.440    C    3 1.418    H    7 0.968    C    5 0.111
     3  C   3.985        C    2 1.418    C    4 1.411    C   18 0.979    C    6 0.110
     4  C   3.990        C    5 1.446    C    3 1.411    H    8 0.965    C    1 0.112
     5  C   3.990        C    4 1.446    C    6 1.435    H   29 0.971    C    2 0.111
     6  C   3.990        C    1 1.441    C    5 1.435    H    9 0.971    C    3 0.110
     7  H   0.999        C    2 0.968
     8  H   0.997        C    4 0.965
     9  H   0.998        C    6 0.971
    10  N   3.137        C   12 0.995    C   18 0.979    H   15 0.951
    11  H   0.905        O   24 0.834
    12  C   3.975        C   21 1.001    N   10 0.995    H   14 0.975    H   13 0.972
    13  H   0.997        C   12 0.972
    14  H   0.998        C   12 0.975
    15  H   0.978        N   10 0.951
    16  H   0.919        O   24 0.916
    17  H   0.898        O   20 0.853
    18  C   3.949        O   20 0.983    N   10 0.979    C    3 0.979    H   19 0.953
    19  H   0.999        C   18 0.953
    20  O   1.944        C   18 0.983    H   17 0.853
    21  C   3.996        C   25 1.005    C   12 1.001    H   23 0.976    H   22 0.974
    22  H   0.999        C   21 0.974
    23  H   0.999        C   21 0.976
    24  O   1.828        H   16 0.916    H   11 0.834
    25  C   3.996        C   30 1.019    C   21 1.005    H   27 0.978    H   26 0.978
    26  H   0.999        C   25 0.978
    27  H   0.999        C   25 0.978
    28  H   0.998        C    1 0.971
    29  H   0.998        C    5 0.971
    30  C   3.996        C   25 1.019    H   33 0.988    H   31 0.988    H   32 0.987
    31  H   0.999        C   30 0.988
    32  H   0.998        C   30 0.987
    33  H   0.999        C   30 0.988

molecular dipole:
                 x           y           z       tot (Debye)
 q only:       -0.977      -0.401      -0.415
   full:       -1.365      -0.419      -0.472       3.822
molecular quadrupole (traceless):
                xx          xy          yy          xz          yz          zz
 q only:        1.861       4.101      -0.370      -7.073      -7.063      -1.492
  q+dip:        0.774       2.807       0.585      -9.477      -9.444      -1.360
   full:        1.445       4.433       0.275      -8.324      -8.604      -1.720

           -------------------------------------------------
          |                Property Printout                |
           -------------------------------------------------

    * Orbital Energies and Occupations

         #    Occupation            Energy/Eh            Energy/eV
      -------------------------------------------------------------
         1        2.0000           -0.6895444             -18.7635
       ...           ...                  ...                  ...
        28        2.0000           -0.4722806             -12.8514
        29        2.0000           -0.4711471             -12.8206
        30        2.0000           -0.4597505             -12.5104
        31        2.0000           -0.4482600             -12.1978
        32        2.0000           -0.4450606             -12.1107
        33        2.0000           -0.4431986             -12.0600
        34        2.0000           -0.4411268             -12.0037
        35        2.0000           -0.4294670             -11.6864
        36        2.0000           -0.4260458             -11.5933
        37        2.0000           -0.4137864             -11.2597
        38        2.0000           -0.4070007             -11.0751
        39        2.0000           -0.4056418             -11.0381
        40        2.0000           -0.3891700             -10.5899 (HOMO)
        41                         -0.2347071              -6.3867 (LUMO)
        42                         -0.2309379              -6.2841
        43                         -0.1107075              -3.0125
        44                         -0.0240528              -0.6545
        45                          0.0308053               0.8383
        46                          0.0454617               1.2371
        47                          0.0592696               1.6128
        48                          0.0694236               1.8891
        49                          0.0893317               2.4308
        50                          0.0925312               2.5179
        51                          0.1086900               2.9576
       ...                                ...                  ...
        75                          0.6149002              16.7323
      -------------------------------------------------------------
                  HL-Gap            0.1544629 Eh            4.2031 eV
             Fermi-level           -0.3119385 Eh           -8.4883 eV

     #   Z        covCN         q      C6AA      α(0)
     1   6 C      2.908    -0.030    28.740     8.790
     2   6 C      2.912    -0.037    28.932     8.820
     3   6 C      2.959    -0.016    28.398     8.741
     4   6 C      2.911    -0.034    28.852     8.808
     5   6 C      2.908    -0.029    28.731     8.789
     6   6 C      2.908    -0.030    28.746     8.792
     7   1 H      0.925     0.032     2.563     2.503
     8   1 H      0.925     0.052     2.292     2.368
     9   1 H      0.925     0.041     2.442     2.444
    10   7 N      2.674    -0.293    27.558     7.797
    11   1 H      0.798     0.308     0.697     1.312
    12   6 C      3.731     0.003    20.614     6.481
    13   1 H      0.923     0.043     2.407     2.426
    14   1 H      0.923     0.048     2.350     2.397
    15   1 H      0.860     0.150     1.403     1.855
    16   1 H      0.804     0.285     0.768     1.376
    17   1 H      0.802     0.320     0.664     1.280
    18   6 C      3.659     0.172    18.095     6.104
    19   1 H      0.923     0.027     2.632     2.537
    20   8 O      1.649    -0.487    22.618     6.420
    21   6 C      3.796    -0.063    21.718     6.636
    22   1 H      0.923     0.030     2.586     2.515
    23   1 H      0.923     0.033     2.549     2.497
    24   8 O      1.601    -0.624    25.778     6.852
    25   6 C      3.795    -0.053    21.534     6.608
    26   1 H      0.923     0.033     2.539     2.492
    27   1 H      0.923     0.033     2.551     2.498
    28   1 H      0.925     0.040     2.444     2.445
    29   1 H      0.925     0.041     2.433     2.439
    30   6 C      3.745    -0.100    22.485     6.764
    31   1 H      0.923     0.035     2.516     2.481
    32   1 H      0.923     0.037     2.492     2.469
    33   1 H      0.923     0.034     2.531     2.488

 Mol. C6AA /au·bohr⁶  :       9454.494436
 Mol. C8AA /au·bohr⁸  :     210483.254654
 Mol. α(0) /au        :        149.224013


Wiberg/Mayer (AO) data.
largest (>0.10) Wiberg bond orders for each atom
          total WBO             WBO to atom ...
     1  C   3.990        C    6 1.441    C    2 1.440    H   28 0.971    C    4 0.112
     2  C   3.990        C    1 1.440    C    3 1.418    H    7 0.968    C    5 0.111
     3  C   3.985        C    2 1.418    C    4 1.411    C   18 0.979    C    6 0.110
     4  C   3.990        C    5 1.446    C    3 1.411    H    8 0.965    C    1 0.112
     5  C   3.990        C    4 1.446    C    6 1.435    H   29 0.971    C    2 0.111
     6  C   3.990        C    1 1.441    C    5 1.435    H    9 0.971    C    3 0.110
     7  H   0.999        C    2 0.968
     8  H   0.997        C    4 0.965
     9  H   0.998        C    6 0.971
    10  N   3.137        C   12 0.995    C   18 0.979    H   15 0.951
    11  H   0.905        O   24 0.834
    12  C   3.975        C   21 1.001    N   10 0.995    H   14 0.975    H   13 0.972
    13  H   0.997        C   12 0.972
    14  H   0.998        C   12 0.975
    15  H   0.978        N   10 0.951
    16  H   0.919        O   24 0.916
    17  H   0.898        O   20 0.853
    18  C   3.949        O   20 0.983    N   10 0.979    C    3 0.979    H   19 0.953
    19  H   0.999        C   18 0.953
    20  O   1.944        C   18 0.983    H   17 0.853
    21  C   3.996        C   25 1.005    C   12 1.001    H   23 0.976    H   22 0.974
    22  H   0.999        C   21 0.974
    23  H   0.999        C   21 0.976
    24  O   1.828        H   16 0.916    H   11 0.834
    25  C   3.996        C   30 1.019    C   21 1.005    H   27 0.978    H   26 0.978
    26  H   0.999        C   25 0.978
    27  H   0.999        C   25 0.978
    28  H   0.998        C    1 0.971
    29  H   0.998        C    5 0.971
    30  C   3.996        C   25 1.019    H   33 0.988    H   31 0.988    H   32 0.987
    31  H   0.999        C   30 0.988
    32  H   0.998        C   30 0.987
    33  H   0.999        C   30 0.988

molecular dipole:
                 x           y           z       tot (Debye)
 q only:       -0.977      -0.401      -0.415
   full:       -1.365      -0.419      -0.472       3.822
molecular quadrupole (traceless):
                xx          xy          yy          xz          yz          zz
 q only:        1.861       4.101      -0.370      -7.073      -7.063      -1.492
  q+dip:        0.774       2.807       0.585      -9.477      -9.444      -1.360
   full:        1.445       4.433       0.275      -8.324      -8.604      -1.720


           -------------------------------------------------
          | TOTAL ENERGY              -44.296441498827 Eh   |
          | GRADIENT NORM               0.051017029287 Eh/α |
          | HOMO-LUMO GAP               4.203148704112 eV   |
           -------------------------------------------------

------------------------------------------------------------------------
 * finished run on 2020/08/21 at 20:16:28.121     
------------------------------------------------------------------------
 total:
 * wall-time:     0 d,  0 h,  0 min,  0.143 sec
 *  cpu-time:     0 d,  0 h,  0 min,  1.021 sec
 * ratio c/w:     7.140 speedup
 SCF:
 * wall-time:     0 d,  0 h,  0 min,  0.045 sec
 *  cpu-time:     0 d,  0 h,  0 min,  0.350 sec
 * ratio c/w:     7.728 speedup


-------------------------   --------------------
FINAL SINGLE POINT ENERGY       -44.296441498830
-------------------------   --------------------


----------------------------------------------------------------------------
                           ORCA NUMERICAL FREQUENCIES
                              (8-process run)
----------------------------------------------------------------------------

Number of atoms                ... 33
Central differences            ... used
Number of displacements        ... 198
Numerical increment            ... 5.000e-03 bohr
IR-spectrum generation         ... on
Raman-spectrum generation      ... off
Surface Crossing Hessian       ... off
List of participating nodes    ...  /tmp/slurm-scratch/freq.112/freq.hostnames

The output will be reduced. Please look at the following files:
SCF program output             ... >/tmp/slurm-scratch/freq.112/freq.lastscf
Integral program output        ... >/tmp/slurm-scratch/freq.112/freq.lastint
Gradient program output        ... >/tmp/slurm-scratch/freq.112/freq.lastgrad
Dipole moment program output   ... >/tmp/slurm-scratch/freq.112/freq.lastmom
AutoCI program output          ... >/tmp/slurm-scratch/freq.112/freq.lastautoci


         <<< Energy and Gradient at the input geometry >>>

        <<< Energy and Gradient at displaced geometries >>>
             <<<Displacing   1/coordinate 3 (+)>>>
             <<<Displacing   3/coordinate 2 (+)>>>
             <<<Displacing   1/coordinate 3 (-)>>>
             <<<Displacing   1/coordinate 1 (+)>>>
             <<<Displacing   1/coordinate 2 (+)>>>
             <<<Displacing   2/coordinate 2 (+)>>>
             <<<Displacing   3/coordinate 1 (+)>>>
             <<<Displacing   3/coordinate 2 (-)>>>
             <<<Displacing   2/coordinate 3 (+)>>>
             <<<Displacing   1/coordinate 1 (-)>>>
             <<<Displacing   1/coordinate 2 (-)>>>
             <<<Displacing   2/coordinate 2 (-)>>>
             <<<Displacing   3/coordinate 1 (-)>>>
             <<<Displacing   2/coordinate 3 (-)>>>
             <<<Displacing   2/coordinate 1 (+)>>>
             <<<Displacing   2/coordinate 1 (-)>>>
             <<<Displacing   3/coordinate 3 (+)>>>
             <<<Displacing   4/coordinate 1 (+)>>>
             <<<Displacing   3/coordinate 3 (-)>>>
             <<<Displacing   4/coordinate 1 (-)>>>
             <<<Displacing   5/coordinate 1 (+)>>>
             <<<Displacing   5/coordinate 2 (+)>>>
             <<<Displacing   5/coordinate 1 (-)>>>
             <<<Displacing   5/coordinate 3 (+)>>>
             <<<Displacing   5/coordinate 2 (-)>>>
             <<<Displacing   4/coordinate 3 (+)>>>
             <<<Displacing   5/coordinate 3 (-)>>>
             <<<Displacing   6/coordinate 1 (+)>>>
             <<<Displacing   4/coordinate 2 (+)>>>
             <<<Displacing   4/coordinate 3 (-)>>>
             <<<Displacing   6/coordinate 1 (-)>>>
             <<<Displacing   4/coordinate 2 (-)>>>
             <<<Displacing   6/coordinate 2 (+)>>>
             <<<Displacing   7/coordinate 1 (+)>>>
             <<<Displacing   6/coordinate 3 (+)>>>
             <<<Displacing   7/coordinate 2 (+)>>>
             <<<Displacing   6/coordinate 2 (-)>>>
             <<<Displacing   7/coordinate 1 (-)>>>
             <<<Displacing   6/coordinate 3 (-)>>>
             <<<Displacing   7/coordinate 2 (-)>>>
             <<<Displacing   7/coordinate 3 (+)>>>
             <<<Displacing   7/coordinate 3 (-)>>>
             <<<Displacing   8/coordinate 3 (+)>>>
             <<<Displacing   8/coordinate 3 (-)>>>
             <<<Displacing   8/coordinate 2 (+)>>>
             <<<Displacing   8/coordinate 2 (-)>>>
             <<<Displacing   8/coordinate 1 (+)>>>
             <<<Displacing   8/coordinate 1 (-)>>>
             <<<Displacing   9/coordinate 1 (+)>>>
             <<<Displacing  10/coordinate 1 (+)>>>
             <<<Displacing  10/coordinate 2 (+)>>>
             <<<Displacing   9/coordinate 2 (+)>>>
             <<<Displacing   9/coordinate 1 (-)>>>
             <<<Displacing   9/coordinate 3 (+)>>>
             <<<Displacing  10/coordinate 1 (-)>>>
             <<<Displacing  10/coordinate 2 (-)>>>
             <<<Displacing   9/coordinate 2 (-)>>>
             <<<Displacing   9/coordinate 3 (-)>>>
             <<<Displacing  10/coordinate 3 (+)>>>
             <<<Displacing  10/coordinate 3 (-)>>>
             <<<Displacing  11/coordinate 1 (+)>>>
             <<<Displacing  11/coordinate 1 (-)>>>
             <<<Displacing  11/coordinate 2 (+)>>>
             <<<Displacing  11/coordinate 2 (-)>>>
             <<<Displacing  11/coordinate 3 (+)>>>
             <<<Displacing  11/coordinate 3 (-)>>>
             <<<Displacing  12/coordinate 1 (+)>>>
             <<<Displacing  12/coordinate 3 (+)>>>
             <<<Displacing  12/coordinate 2 (+)>>>
             <<<Displacing  12/coordinate 3 (-)>>>
             <<<Displacing  12/coordinate 1 (-)>>>
             <<<Displacing  13/coordinate 1 (+)>>>
             <<<Displacing  12/coordinate 2 (-)>>>
             <<<Displacing  13/coordinate 1 (-)>>>
             <<<Displacing  13/coordinate 2 (+)>>>
             <<<Displacing  13/coordinate 3 (+)>>>
             <<<Displacing  13/coordinate 2 (-)>>>
             <<<Displacing  13/coordinate 3 (-)>>>
             <<<Displacing  14/coordinate 1 (+)>>>
             <<<Displacing  14/coordinate 1 (-)>>>
             <<<Displacing  14/coordinate 2 (+)>>>
             <<<Displacing  14/coordinate 2 (-)>>>
             <<<Displacing  15/coordinate 1 (+)>>>
             <<<Displacing  15/coordinate 1 (-)>>>
             <<<Displacing  15/coordinate 2 (+)>>>
             <<<Displacing  16/coordinate 1 (+)>>>
             <<<Displacing  14/coordinate 3 (+)>>>
             <<<Displacing  15/coordinate 2 (-)>>>
             <<<Displacing  16/coordinate 1 (-)>>>
             <<<Displacing  14/coordinate 3 (-)>>>
             <<<Displacing  15/coordinate 3 (+)>>>
             <<<Displacing  15/coordinate 3 (-)>>>
             <<<Displacing  16/coordinate 2 (+)>>>
             <<<Displacing  16/coordinate 2 (-)>>>
             <<<Displacing  16/coordinate 3 (+)>>>
             <<<Displacing  16/coordinate 3 (-)>>>
             <<<Displacing  17/coordinate 1 (+)>>>
             <<<Displacing  17/coordinate 1 (-)>>>
             <<<Displacing  18/coordinate 1 (+)>>>
             <<<Displacing  17/coordinate 2 (+)>>>
             <<<Displacing  18/coordinate 1 (-)>>>
             <<<Displacing  17/coordinate 2 (-)>>>
             <<<Displacing  17/coordinate 3 (+)>>>
             <<<Displacing  17/coordinate 3 (-)>>>
             <<<Displacing  18/coordinate 2 (+)>>>
             <<<Displacing  18/coordinate 3 (+)>>>
             <<<Displacing  18/coordinate 2 (-)>>>
             <<<Displacing  18/coordinate 3 (-)>>>
             <<<Displacing  19/coordinate 1 (+)>>>
             <<<Displacing  19/coordinate 2 (+)>>>
             <<<Displacing  19/coordinate 1 (-)>>>
             <<<Displacing  19/coordinate 2 (-)>>>
             <<<Displacing  20/coordinate 2 (+)>>>
             <<<Displacing  20/coordinate 2 (-)>>>
             <<<Displacing  19/coordinate 3 (+)>>>
             <<<Displacing  20/coordinate 1 (+)>>>
             <<<Displacing  19/coordinate 3 (-)>>>
             <<<Displacing  20/coordinate 1 (-)>>>
             <<<Displacing  21/coordinate 1 (+)>>>
             <<<Displacing  20/coordinate 3 (+)>>>
             <<<Displacing  21/coordinate 1 (-)>>>
             <<<Displacing  21/coordinate 2 (+)>>>
             <<<Displacing  20/coordinate 3 (-)>>>
             <<<Displacing  21/coordinate 2 (-)>>>
             <<<Displacing  22/coordinate 1 (+)>>>
             <<<Displacing  21/coordinate 3 (+)>>>
             <<<Displacing  22/coordinate 1 (-)>>>
             <<<Displacing  21/coordinate 3 (-)>>>
             <<<Displacing  22/coordinate 2 (+)>>>
             <<<Displacing  22/coordinate 2 (-)>>>
             <<<Displacing  22/coordinate 3 (+)>>>
             <<<Displacing  22/coordinate 3 (-)>>>
             <<<Displacing  23/coordinate 1 (+)>>>
             <<<Displacing  23/coordinate 1 (-)>>>
             <<<Displacing  24/coordinate 1 (+)>>>
             <<<Displacing  23/coordinate 2 (+)>>>
             <<<Displacing  23/coordinate 3 (+)>>>
             <<<Displacing  24/coordinate 1 (-)>>>
             <<<Displacing  23/coordinate 2 (-)>>>
             <<<Displacing  23/coordinate 3 (-)>>>
             <<<Displacing  24/coordinate 3 (+)>>>
             <<<Displacing  24/coordinate 3 (-)>>>
             <<<Displacing  24/coordinate 2 (+)>>>
             <<<Displacing  24/coordinate 2 (-)>>>
             <<<Displacing  25/coordinate 1 (+)>>>
             <<<Displacing  25/coordinate 1 (-)>>>
             <<<Displacing  25/coordinate 2 (+)>>>
             <<<Displacing  25/coordinate 3 (+)>>>
             <<<Displacing  25/coordinate 2 (-)>>>
             <<<Displacing  25/coordinate 3 (-)>>>
             <<<Displacing  26/coordinate 1 (+)>>>
             <<<Displacing  26/coordinate 3 (+)>>>
             <<<Displacing  26/coordinate 1 (-)>>>
             <<<Displacing  26/coordinate 2 (+)>>>
             <<<Displacing  26/coordinate 3 (-)>>>
             <<<Displacing  26/coordinate 2 (-)>>>
             <<<Displacing  27/coordinate 2 (+)>>>
             <<<Displacing  27/coordinate 2 (-)>>>
             <<<Displacing  27/coordinate 1 (+)>>>
             <<<Displacing  27/coordinate 1 (-)>>>
             <<<Displacing  28/coordinate 1 (+)>>>
             <<<Displacing  28/coordinate 1 (-)>>>
             <<<Displacing  27/coordinate 3 (+)>>>
             <<<Displacing  27/coordinate 3 (-)>>>
             <<<Displacing  28/coordinate 2 (+)>>>
             <<<Displacing  28/coordinate 2 (-)>>>
             <<<Displacing  28/coordinate 3 (+)>>>
             <<<Displacing  28/coordinate 3 (-)>>>
             <<<Displacing  29/coordinate 2 (+)>>>
             <<<Displacing  29/coordinate 2 (-)>>>
             <<<Displacing  30/coordinate 1 (+)>>>
             <<<Displacing  29/coordinate 1 (+)>>>
             <<<Displacing  30/coordinate 1 (-)>>>
             <<<Displacing  29/coordinate 1 (-)>>>
             <<<Displacing  29/coordinate 3 (+)>>>
             <<<Displacing  29/coordinate 3 (-)>>>
             <<<Displacing  30/coordinate 2 (+)>>>
             <<<Displacing  30/coordinate 2 (-)>>>
             <<<Displacing  30/coordinate 3 (+)>>>
             <<<Displacing  30/coordinate 3 (-)>>>
             <<<Displacing  31/coordinate 1 (+)>>>
             <<<Displacing  31/coordinate 1 (-)>>>
             <<<Displacing  31/coordinate 2 (+)>>>
             <<<Displacing  31/coordinate 2 (-)>>>
             <<<Displacing  31/coordinate 3 (+)>>>
             <<<Displacing  31/coordinate 3 (-)>>>
             <<<Displacing  32/coordinate 1 (+)>>>
             <<<Displacing  32/coordinate 2 (+)>>>
             <<<Displacing  32/coordinate 1 (-)>>>
             <<<Displacing  32/coordinate 2 (-)>>>
             <<<Displacing  32/coordinate 3 (+)>>>
             <<<Displacing  32/coordinate 3 (-)>>>
             <<<Displacing  33/coordinate 1 (+)>>>
             <<<Displacing  33/coordinate 1 (-)>>>
             <<<Displacing  33/coordinate 2 (+)>>>
             <<<Displacing  33/coordinate 3 (+)>>>
             <<<Displacing  33/coordinate 2 (-)>>>
             <<<Displacing  33/coordinate 3 (-)>>>

-----------------------
VIBRATIONAL FREQUENCIES
-----------------------

Scaling factor for frequencies =  1.000000000 (already applied!)

   0:         0.00 cm**-1
   1:         0.00 cm**-1
   2:         0.00 cm**-1
   3:         0.00 cm**-1
   4:         0.00 cm**-1
   5:         0.00 cm**-1
   6:        68.98 cm**-1
   7:        82.75 cm**-1
   8:        96.21 cm**-1
   9:       109.41 cm**-1
  10:       137.78 cm**-1
  11:       148.14 cm**-1
  12:       170.03 cm**-1
  13:       171.00 cm**-1
  14:       178.69 cm**-1
  15:       222.75 cm**-1
  16:       238.53 cm**-1
  17:       264.22 cm**-1
  18:       310.26 cm**-1
  19:       348.71 cm**-1
  20:       349.67 cm**-1
  21:       402.40 cm**-1
  22:       405.29 cm**-1
  23:       457.51 cm**-1
  24:       486.12 cm**-1
  25:       537.82 cm**-1
  26:       542.00 cm**-1
  27:       588.90 cm**-1
  28:       590.74 cm**-1
  29:       621.34 cm**-1
  30:       627.41 cm**-1
  31:       687.81 cm**-1
  32:       772.67 cm**-1
  33:       788.32 cm**-1
  34:       794.50 cm**-1
  35:       816.65 cm**-1
  36:       839.78 cm**-1
  37:       853.00 cm**-1
  38:       903.75 cm**-1
  39:       927.61 cm**-1
  40:       935.22 cm**-1
  41:       944.18 cm**-1
  42:       952.99 cm**-1
  43:       956.39 cm**-1
  44:       957.72 cm**-1
  45:       976.33 cm**-1
  46:      1001.42 cm**-1
  47:      1025.30 cm**-1
  48:      1055.12 cm**-1
  49:      1061.14 cm**-1
  50:      1075.65 cm**-1
  51:      1111.18 cm**-1
  52:      1119.99 cm**-1
  53:      1143.52 cm**-1
  54:      1186.19 cm**-1
  55:      1187.44 cm**-1
  56:      1200.20 cm**-1
  57:      1212.06 cm**-1
  58:      1225.43 cm**-1
  59:      1230.52 cm**-1
  60:      1261.02 cm**-1
  61:      1270.78 cm**-1
  62:      1282.95 cm**-1
  63:      1287.36 cm**-1
  64:      1304.60 cm**-1
  65:      1334.35 cm**-1
  66:      1345.28 cm**-1
  67:      1371.68 cm**-1
  68:      1373.63 cm**-1
  69:      1412.11 cm**-1
  70:      1434.09 cm**-1
  71:      1447.28 cm**-1
  72:      1484.89 cm**-1
  73:      1502.28 cm**-1
  74:      1507.95 cm**-1
  75:      1511.64 cm**-1
  76:      1515.27 cm**-1
  77:      1533.31 cm**-1
  78:      1542.62 cm**-1
  79:      1560.91 cm**-1
  80:      2808.88 cm**-1
  81:      2865.20 cm**-1
  82:      2868.98 cm**-1
  83:      2878.62 cm**-1
  84:      2894.31 cm**-1
  85:      2896.54 cm**-1
  86:      2902.84 cm**-1
  87:      2912.27 cm**-1
  88:      2917.13 cm**-1
  89:      2929.28 cm**-1
  90:      2929.94 cm**-1
  91:      2974.49 cm**-1
  92:      2984.44 cm**-1
  93:      2989.11 cm**-1
  94:      2999.09 cm**-1
  95:      3011.37 cm**-1
  96:      3179.72 cm**-1
  97:      3286.93 cm**-1
  98:      3421.95 cm**-1


------------
NORMAL MODES
------------

These modes are the cartesian displacements weighted by the diagonal matrix
M(i,i)=1/sqrt(m[i]) where m[i] is the mass of the displaced atom
Thus, these vectors are normalized but *not* orthogonal

                  0          1          2          3          4          5    
      0       0.000000   0.000000   0.000000   0.000000   0.000000   0.000000
      1       0.000000   0.000000   0.000000   0.000000   0.000000   0.000000
      2       0.000000   0.000000   0.000000   0.000000   0.000000   0.000000
      3       0.000000   0.000000   0.000000   0.000000   0.000000   0.000000
      4       0.000000   0.000000   0.000000   0.000000   0.000000   0.000000
      5       0.000000   0.000000   0.000000   0.000000   0.000000   0.000000
      6       0.000000   0.000000   0.000000   0.000000   0.000000   0.000000
      7       0.000000   0.000000   0.000000   0.000000   0.000000   0.000000
      8       0.000000   0.000000   0.000000   0.000000   0.000000   0.000000
      9       0.000000   0.000000   0.000000   0.000000   0.000000   0.000000
     10       0.000000   0.000000   0.000000   0.000000   0.000000   0.000000
     11       0.000000   0.000000   0.000000   0.000000   0.000000   0.000000
     12       0.000000   0.000000   0.000000   0.000000   0.000000   0.000000
     13       0.000000   0.000000   0.000000   0.000000   0.000000   0.000000
     14       0.000000   0.000000   0.000000   0.000000   0.000000   0.000000
     15       0.000000   0.000000   0.000000   0.000000   0.000000   0.000000
     16       0.000000   0.000000   0.000000   0.000000   0.000000   0.000000
     17       0.000000   0.000000   0.000000   0.000000   0.000000   0.000000
     18       0.000000   0.000000   0.000000   0.000000   0.000000   0.000000
     19       0.000000   0.000000   0.000000   0.000000   0.000000   0.000000
     20       0.000000   0.000000   0.000000   0.000000   0.000000   0.000000
     21       0.000000   0.000000   0.000000   0.000000   0.000000   0.000000
     22       0.000000   0.000000   0.000000   0.000000   0.000000   0.000000
     23       0.000000   0.000000   0.000000   0.000000   0.000000   0.000000
     24       0.000000   0.000000   0.000000   0.000000   0.000000   0.000000
     25       0.000000   0.000000   0.000000   0.000000   0.000000   0.000000
     26       0.000000   0.000000   0.000000   0.000000   0.000000   0.000000
     27       0.000000   0.000000   0.000000   0.000000   0.000000   0.000000
     28       0.000000   0.000000   0.000000   0.000000   0.000000   0.000000
     29       0.000000   0.000000   0.000000   0.000000   0.000000   0.000000
     30       0.000000   0.000000   0.000000   0.000000   0.000000   0.000000
     31       0.000000   0.000000   0.000000   0.000000   0.000000   0.000000
     32       0.000000   0.000000   0.000000   0.000000   0.000000   0.000000
     33       0.000000   0.000000   0.000000   0.000000   0.000000   0.000000
     34       0.000000   0.000000   0.000000   0.000000   0.000000   0.000000
     35       0.000000   0.000000   0.000000   0.000000   0.000000   0.000000
     36       0.000000   0.000000   0.000000   0.000000   0.000000   0.000000
     37       0.000000   0.000000   0.000000   0.000000   0.000000   0.000000
     38       0.000000   0.000000   0.000000   0.000000   0.000000   0.000000
     39       0.000000   0.000000   0.000000   0.000000   0.000000   0.000000
     40       0.000000   0.000000   0.000000   0.000000   0.000000   0.000000
     41       0.000000   0.000000   0.000000   0.000000   0.000000   0.000000
     42       0.000000   0.000000   0.000000   0.000000   0.000000   0.000000
     43       0.000000   0.000000   0.000000   0.000000   0.000000   0.000000
     44       0.000000   0.000000   0.000000   0.000000   0.000000   0.000000
     45       0.000000   0.000000   0.000000   0.000000   0.000000   0.000000
     46       0.000000   0.000000   0.000000   0.000000   0.000000   0.000000
     47       0.000000   0.000000   0.000000   0.000000   0.000000   0.000000
     48       0.000000   0.000000   0.000000   0.000000   0.000000   0.000000
     49       0.000000   0.000000   0.000000   0.000000   0.000000   0.000000
     50       0.000000   0.000000   0.000000   0.000000   0.000000   0.000000
     51       0.000000   0.000000   0.000000   0.000000   0.000000   0.000000
     52       0.000000   0.000000   0.000000   0.000000   0.000000   0.000000
     53       0.000000   0.000000   0.000000   0.000000   0.000000   0.000000
     54       0.000000   0.000000   0.000000   0.000000   0.000000   0.000000
     55       0.000000   0.000000   0.000000   0.000000   0.000000   0.000000
     56       0.000000   0.000000   0.000000   0.000000   0.000000   0.000000
     57       0.000000   0.000000   0.000000   0.000000   0.000000   0.000000
     58       0.000000   0.000000   0.000000   0.000000   0.000000   0.000000
     59       0.000000   0.000000   0.000000   0.000000   0.000000   0.000000
     60       0.000000   0.000000   0.000000   0.000000   0.000000   0.000000
     61       0.000000   0.000000   0.000000   0.000000   0.000000   0.000000
     62       0.000000   0.000000   0.000000   0.000000   0.000000   0.000000
     63       0.000000   0.000000   0.000000   0.000000   0.000000   0.000000
     64       0.000000   0.000000   0.000000   0.000000   0.000000   0.000000
     65       0.000000   0.000000   0.000000   0.000000   0.000000   0.000000
     66       0.000000   0.000000   0.000000   0.000000   0.000000   0.000000
     67       0.000000   0.000000   0.000000   0.000000   0.000000   0.000000
     68       0.000000   0.000000   0.000000   0.000000   0.000000   0.000000
     69       0.000000   0.000000   0.000000   0.000000   0.000000   0.000000
     70       0.000000   0.000000   0.000000   0.000000   0.000000   0.000000
     71       0.000000   0.000000   0.000000   0.000000   0.000000   0.000000
     72       0.000000   0.000000   0.000000   0.000000   0.000000   0.000000
     73       0.000000   0.000000   0.000000   0.000000   0.000000   0.000000
     74       0.000000   0.000000   0.000000   0.000000   0.000000   0.000000
     75       0.000000   0.000000   0.000000   0.000000   0.000000   0.000000
     76       0.000000   0.000000   0.000000   0.000000   0.000000   0.000000
     77       0.000000   0.000000   0.000000   0.000000   0.000000   0.000000
     78       0.000000   0.000000   0.000000   0.000000   0.000000   0.000000
     79       0.000000   0.000000   0.000000   0.000000   0.000000   0.000000
     80       0.000000   0.000000   0.000000   0.000000   0.000000   0.000000
     81       0.000000   0.000000   0.000000   0.000000   0.000000   0.000000
     82       0.000000   0.000000   0.000000   0.000000   0.000000   0.000000
     83       0.000000   0.000000   0.000000   0.000000   0.000000   0.000000
     84       0.000000   0.000000   0.000000   0.000000   0.000000   0.000000
     85       0.000000   0.000000   0.000000   0.000000   0.000000   0.000000
     86       0.000000   0.000000   0.000000   0.000000   0.000000   0.000000
     87       0.000000   0.000000   0.000000   0.000000   0.000000   0.000000
     88       0.000000   0.000000   0.000000   0.000000   0.000000   0.000000
     89       0.000000   0.000000   0.000000   0.000000   0.000000   0.000000
     90       0.000000   0.000000   0.000000   0.000000   0.000000   0.000000
     91       0.000000   0.000000   0.000000   0.000000   0.000000   0.000000
     92       0.000000   0.000000   0.000000   0.000000   0.000000   0.000000
     93       0.000000   0.000000   0.000000   0.000000   0.000000   0.000000
     94       0.000000   0.000000   0.000000   0.000000   0.000000   0.000000
     95       0.000000   0.000000   0.000000   0.000000   0.000000   0.000000
     96       0.000000   0.000000   0.000000   0.000000   0.000000   0.000000
     97       0.000000   0.000000   0.000000   0.000000   0.000000   0.000000
     98       0.000000   0.000000   0.000000   0.000000   0.000000   0.000000
                  6          7          8          9         10         11    
      0       0.176154  -0.014242  -0.007440   0.144766  -0.030985  -0.059494
      1       0.003468  -0.111560  -0.012057   0.128305  -0.056099  -0.053520
      2      -0.056234   0.004237  -0.030787   0.095116  -0.026786   0.022222
      3       0.094711  -0.010385   0.034111   0.140524   0.032685   0.035355
      4       0.017187  -0.066219   0.025959   0.143470   0.082841  -0.034541
      5      -0.092697   0.017806   0.000087   0.097365   0.041817   0.072468
      6       0.020643   0.008537   0.052817  -0.014384   0.036455   0.103981
      7       0.007487  -0.019366   0.042100  -0.003546   0.125548  -0.011609
      8      -0.058901   0.068208   0.010492  -0.004764   0.093878   0.058661
      9       0.040128   0.021626   0.023818  -0.157715  -0.013695   0.090499
     10      -0.010828  -0.022399   0.014514  -0.161583   0.045036   0.002621
     11       0.013276   0.101788  -0.015803  -0.104098   0.101728   0.004414
     12       0.122794   0.014571  -0.016920  -0.152531  -0.081490  -0.004863
     13      -0.024251  -0.070130  -0.023057  -0.174675  -0.095840  -0.017320
     14       0.049007   0.085732  -0.046110  -0.104734   0.032698  -0.048266
     15       0.189909  -0.002016  -0.031130  -0.003381  -0.099762  -0.085032
     16      -0.018649  -0.113792  -0.034502  -0.031940  -0.154598  -0.051430
     17       0.012955   0.037690  -0.052609  -0.006876  -0.036317  -0.042772
     18       0.084322  -0.021571   0.051685   0.249992   0.071138   0.047529
     19       0.034969  -0.065927   0.042633   0.260621   0.139504  -0.044144
     20      -0.145825  -0.009711   0.015531   0.173211   0.042721   0.117317
     21      -0.007616   0.042154   0.031110  -0.260371  -0.018371   0.144690
     22      -0.016498   0.010423   0.020815  -0.261620   0.077296   0.025401
     23       0.037503   0.130251  -0.011332  -0.172844   0.148681  -0.001712
     24       0.249332  -0.005655  -0.059351   0.000181  -0.158280  -0.160092
     25      -0.031220  -0.146552  -0.059745  -0.045238  -0.265855  -0.071118
     26       0.038996   0.027039  -0.073363  -0.008847  -0.095339  -0.085265
     27      -0.084320  -0.032399   0.016070   0.007883   0.073035  -0.029990
     28       0.053205   0.038117   0.128024   0.001933   0.095763   0.038775
     29      -0.091996   0.071333   0.072545   0.030222  -0.061120  -0.096183
     30      -0.107314   0.159865  -0.144324   0.063681  -0.091977  -0.079243
     31       0.067665   0.123803  -0.044949   0.081551   0.054140   0.145743
     32      -0.079308  -0.339081  -0.002899   0.039583  -0.055758  -0.021823
     33      -0.026193  -0.035081   0.035542   0.003945   0.061110  -0.070079
     34       0.017866   0.051590   0.161758   0.000957  -0.051294   0.018342
     35      -0.028926   0.071855   0.101988   0.025790  -0.120684  -0.151429
     36      -0.001714  -0.027845   0.059987   0.023662   0.133405  -0.119457
     37       0.012556   0.050701   0.157157  -0.002605  -0.067147   0.024864
     38      -0.034538   0.091963   0.161779   0.043638  -0.185604  -0.253529
     39       0.028625  -0.042151   0.039678  -0.010044   0.000334  -0.075665
     40       0.008860   0.072393   0.220735   0.025930  -0.077249  -0.092853
     41      -0.046589   0.067895   0.083034   0.023782  -0.090210  -0.117043
     42      -0.134201  -0.046865  -0.010699   0.014958   0.120348  -0.003485
     43       0.079689   0.058706   0.136170  -0.024569   0.147263   0.162537
     44      -0.078194   0.072656   0.080980   0.031299  -0.083684  -0.121155
     45      -0.125901   0.278838  -0.208416   0.109760  -0.191031  -0.029517
     46       0.059010   0.073546  -0.143625   0.114083  -0.073444   0.317282
     47      -0.071520  -0.457464  -0.040685   0.037397  -0.088212   0.095079
     48      -0.117199   0.027437   0.082534   0.021949  -0.070297   0.061598
     49       0.060045   0.045417  -0.029424   0.076979   0.108326  -0.244090
     50      -0.028834   0.031921  -0.018726   0.004314   0.133204  -0.025317
     51      -0.069286  -0.005723   0.101094  -0.014618  -0.000741   0.112403
     52       0.046122   0.026153   0.081694   0.016635   0.120456  -0.041578
     53      -0.091725   0.072902   0.047534  -0.000193   0.067116   0.055591
     54      -0.069110   0.009771   0.164094  -0.026905  -0.045649   0.179925
     55       0.065650   0.043536   0.123366   0.010730   0.086578  -0.003141
     56      -0.150404   0.058188   0.092314  -0.018186   0.050045   0.124069
     57      -0.126857  -0.019538   0.160219  -0.008979  -0.077703   0.108227
     58       0.055815   0.015760   0.011938   0.060289   0.100668  -0.207930
     59      -0.046967   0.080412  -0.000586  -0.000817   0.127588   0.045658
     60      -0.070375  -0.034650   0.005378  -0.007298   0.034122  -0.051942
     61      -0.011093   0.039285   0.096375  -0.029119  -0.115429   0.092107
     62       0.077443   0.035873   0.070400  -0.001986  -0.132935  -0.065932
     63      -0.106965  -0.043170  -0.068560  -0.028974   0.010667  -0.034338
     64      -0.002709   0.041583   0.114606  -0.024864  -0.114328   0.093410
     65       0.101446   0.045075   0.148986  -0.002562  -0.213973   0.042054
     66      -0.122571   0.002136   0.091208   0.018782  -0.001074  -0.082762
     67       0.010972   0.038078   0.129908  -0.040050  -0.189250   0.198146
     68       0.088728   0.023142   0.029825  -0.007675  -0.096898  -0.087197
     69      -0.113409   0.204481  -0.173377   0.081826  -0.130655  -0.049739
     70       0.064021   0.133825  -0.151924   0.113190  -0.058343   0.300347
     71      -0.064611  -0.436657  -0.036619   0.029288  -0.060937   0.077312
     72       0.002417  -0.072655  -0.044996  -0.023725   0.101756  -0.011033
     73      -0.087484   0.026093  -0.068553  -0.048966  -0.065212  -0.025969
     74       0.140491  -0.007886  -0.021680  -0.024202  -0.054392  -0.043600
     75       0.050827  -0.056928   0.079508  -0.014153   0.039021   0.032119
     76      -0.097456   0.022981  -0.094633  -0.051387  -0.053226  -0.038902
     77       0.124858  -0.010700  -0.068326  -0.035735  -0.054966  -0.123969
     78       0.046150  -0.116685  -0.156255  -0.044031   0.197311   0.024364
     79      -0.097562   0.036389  -0.056403  -0.052898  -0.101196  -0.098168
     80       0.128081   0.004428   0.013786  -0.015722  -0.076531  -0.033039
     81       0.225481  -0.026149  -0.019570   0.255066  -0.032673  -0.113059
     82       0.009205  -0.142904  -0.022188   0.232736  -0.093427  -0.072780
     83      -0.081136  -0.031750  -0.036877   0.167636  -0.077821   0.030963
     84       0.133657   0.022429  -0.035871  -0.256504  -0.125546  -0.018026
     85      -0.040825  -0.073743  -0.041398  -0.287868  -0.159734  -0.009009
     86       0.102704   0.111007  -0.062992  -0.176312   0.028343  -0.094430
     87      -0.049310  -0.073145  -0.112484  -0.025219   0.131603  -0.064335
     88      -0.135014   0.001831  -0.220614  -0.058565   0.031421  -0.054459
     89       0.234643  -0.062473  -0.096124  -0.040455   0.056024   0.099658
     90      -0.088658  -0.039763  -0.037838  -0.011862   0.058117  -0.121733
     91      -0.129327  -0.017555  -0.277712  -0.060340   0.093019  -0.010034
     92       0.248574  -0.069542  -0.107364  -0.045225   0.065364   0.108240
     93      -0.001283  -0.092867  -0.124187  -0.032563   0.160797  -0.002654
     94      -0.180876   0.001961  -0.286482  -0.064231   0.050531  -0.129752
     95       0.272004  -0.082569  -0.124821  -0.049394   0.090656   0.143517
     96      -0.093368  -0.087360  -0.223325  -0.032024   0.197646  -0.107677
     97      -0.127723   0.003637  -0.204036  -0.057415   0.022522  -0.045752
     98       0.247636  -0.072531  -0.107810  -0.037602   0.087515   0.152511
                 12         13         14         15         16         17    
      0       0.008376   0.013150   0.003360  -0.019497   0.044476  -0.007199
      1      -0.005603   0.009802   0.013826   0.015799   0.007021  -0.000636
      2      -0.026058   0.003422   0.016691  -0.003644  -0.074603   0.003774
      3       0.023860  -0.000364   0.016200   0.127379   0.032937  -0.056104
      4       0.029286  -0.018976   0.016404  -0.010858   0.132018   0.008764
      5      -0.008252  -0.010347   0.023537   0.059250  -0.039215  -0.018728
      6       0.020951   0.002593   0.014481   0.167171  -0.028734  -0.057676
      7       0.039742  -0.022467   0.008056  -0.036117   0.137462   0.020567
      8       0.009021  -0.016706   0.013329   0.012763   0.012329  -0.004494
      9       0.014852   0.012740   0.008008   0.179807  -0.021293  -0.073564
     10       0.027456  -0.005929   0.005244   0.038067   0.109862  -0.015387
     11       0.011574  -0.021870   0.002413  -0.089770   0.077118   0.031851
     12      -0.001256   0.028110  -0.004316   0.040460  -0.013890  -0.027659
     13      -0.008788   0.024003   0.003144   0.062259  -0.019104  -0.023207
     14      -0.006419  -0.006881  -0.004194  -0.165461   0.050888   0.058705
     15      -0.007715   0.032736  -0.009463  -0.076595  -0.006860   0.013935
     16      -0.028349   0.036914   0.004364   0.020792  -0.089378  -0.004323
     17      -0.028846   0.007901   0.000804  -0.146778  -0.047972   0.058165
     18       0.032239  -0.008343   0.024484   0.152613   0.056583  -0.066925
     19       0.043867  -0.030108   0.022116  -0.018431   0.192746   0.006660
     20      -0.011257  -0.011887   0.034328   0.135798  -0.078821  -0.042339
     21       0.021733   0.015336   0.009936   0.272820  -0.036700  -0.111254
     22       0.039281  -0.012278   0.002491   0.048492   0.147808  -0.019055
     23       0.023907  -0.032220  -0.002704  -0.135425   0.139021   0.050504
     24      -0.022992   0.047996  -0.021308  -0.199035  -0.028134   0.057521
     25      -0.057595   0.064356  -0.000309   0.003042  -0.197467   0.002288
     26      -0.044292   0.022918  -0.006329  -0.211816  -0.087682   0.081239
     27      -0.003423  -0.002346  -0.006066  -0.039528  -0.079029  -0.038778
     28       0.053284   0.019117   0.000395  -0.010850   0.078447   0.013552
     29       0.002741   0.082353  -0.022766  -0.018911  -0.095502  -0.068428
     30       0.260922  -0.078124   0.011972   0.039095   0.073657   0.015110
     31      -0.226716   0.074008  -0.031403  -0.028961  -0.141060  -0.087495
     32       0.109352  -0.008603  -0.012210  -0.016193  -0.011790  -0.032457
     33      -0.094491  -0.006786  -0.012336   0.038297   0.026603   0.086598
     34       0.091690   0.036951   0.014764   0.061311  -0.070663   0.201987
     35      -0.091750   0.089138  -0.027497   0.109243   0.018440   0.085090
     36      -0.082299   0.144598   0.024844   0.104547   0.100454   0.120699
     37       0.088548   0.010142   0.008565   0.051920  -0.086913   0.201492
     38      -0.086351   0.279895   0.037141   0.287252  -0.041245   0.431897
     39      -0.160740  -0.079468  -0.030513   0.100814   0.101979   0.161448
     40       0.104027   0.267189   0.085819   0.234407  -0.113623   0.514548
     41      -0.069908   0.049744  -0.040695   0.035597   0.001993  -0.032166
     42       0.076858   0.003423  -0.001291  -0.143428  -0.197583  -0.176458
     43       0.025996  -0.025078   0.013258   0.017280   0.211600   0.059748
     44      -0.021125   0.086997  -0.025989   0.012825  -0.072283  -0.028067
     45       0.284257  -0.060000   0.013722  -0.008262   0.111981   0.051153
     46      -0.206746   0.067031  -0.019739  -0.046274   0.015453   0.029431
     47       0.084966  -0.019638  -0.005860  -0.004917   0.079015   0.034686
     48       0.028973   0.093197  -0.008768  -0.179987  -0.009372  -0.108925
     49       0.030781  -0.017598  -0.039119  -0.008987  -0.204589  -0.174851
     50       0.001388  -0.057631   0.001000   0.208165  -0.183638  -0.067177
     51       0.012896   0.046483   0.005528   0.009564  -0.017988  -0.041090
     52       0.040592   0.003057  -0.008698  -0.030592   0.043012  -0.013954
     53       0.007581   0.017200   0.003598  -0.034205   0.000013  -0.029988
     54       0.029667   0.078647   0.009802  -0.006173   0.046410  -0.021455
     55       0.050999   0.022303  -0.007368   0.008687   0.057859  -0.010045
     56       0.021932   0.049575   0.014323  -0.188847   0.139591   0.019438
     57       0.022148   0.129470  -0.006241  -0.239265   0.065291  -0.081475
     58       0.019493   0.004689  -0.038051  -0.040208  -0.163971  -0.158535
     59       0.007866  -0.047028   0.012427   0.157882  -0.073086  -0.007471
     60      -0.128726  -0.105715  -0.041289  -0.027187  -0.034947   0.057111
     61       0.047885  -0.210843  -0.053781  -0.064313  -0.116789   0.046738
     62      -0.119213  -0.101811  -0.076421   0.067862   0.148693  -0.074790
     63      -0.179043  -0.213405  -0.043526  -0.092914  -0.030646  -0.063183
     64       0.057712  -0.200498  -0.064778  -0.053353  -0.115590   0.065386
     65      -0.119991  -0.368919  -0.326889  -0.000698   0.134623  -0.164605
     66      -0.132298  -0.077658  -0.137864   0.016470  -0.058244   0.132720
     67       0.029354  -0.491024  -0.265682  -0.149896  -0.109011  -0.089695
     68      -0.110590  -0.023635   0.023327   0.077893   0.151914  -0.059115
     69       0.257607  -0.069725   0.011977   0.023050   0.084291   0.028435
     70      -0.205775   0.055659  -0.020950  -0.024833  -0.008543   0.016258
     71       0.077377  -0.029795  -0.007344   0.017952   0.053885   0.018752
     72      -0.073536  -0.073692   0.067749  -0.075055  -0.094716   0.096175
     73      -0.032839  -0.059744   0.163960  -0.036570  -0.038637  -0.034730
     74      -0.063674  -0.026089   0.095652   0.026934   0.106132  -0.075634
     75      -0.074008  -0.193284   0.180088  -0.137263  -0.175472   0.119406
     76      -0.038272  -0.034557   0.161625  -0.025772  -0.020605  -0.043054
     77      -0.154579   0.012669   0.432861   0.001857   0.137467  -0.142992
     78       0.019802   0.028029   0.116964  -0.105520  -0.165733   0.122656
     79      -0.140616  -0.076477   0.491933  -0.066258  -0.007167  -0.097428
     80      -0.061596  -0.056117  -0.025736   0.046840   0.120106  -0.064600
     81       0.006428   0.011087   0.002177  -0.100660   0.077463   0.021517
     82      -0.015505   0.015994   0.017422   0.018142  -0.017650  -0.003786
     83      -0.038802   0.013452   0.022503   0.053806  -0.131852  -0.019761
     84      -0.009426   0.038973  -0.010795   0.026529  -0.027670  -0.026422
     85      -0.023074   0.038716  -0.000640   0.086925  -0.070349  -0.033464
     86      -0.003524  -0.004053  -0.014007  -0.241541   0.100349   0.079093
     87      -0.119342  -0.007444  -0.042674  -0.010123   0.010906   0.085611
     88       0.002501   0.097879  -0.084172   0.054219   0.060321  -0.031842
     89       0.179063   0.057971  -0.023724  -0.039376  -0.107117   0.017497
     90      -0.239031  -0.085887  -0.022511   0.023719   0.107663   0.070707
     91       0.103414   0.172169  -0.324344   0.090778   0.033399   0.040463
     92       0.194138   0.065197   0.046805  -0.065016  -0.137259  -0.000390
     93      -0.023495   0.006294   0.001205  -0.065578  -0.106596   0.102108
     94      -0.082643   0.153738  -0.039046   0.095712   0.182696  -0.099349
     95       0.255454   0.086179   0.032882  -0.085590  -0.196218   0.017162
     96      -0.129713   0.106259  -0.187912   0.062455   0.117317   0.073055
     97       0.007740   0.081497  -0.070150   0.043926   0.042109  -0.026630
     98       0.271919   0.087232  -0.237290  -0.016965  -0.155736   0.098395
                 18         19         20         21         22         23    
      0       0.041743  -0.027695  -0.046311   0.123736  -0.050591   0.025915
      1       0.034047  -0.006044  -0.002863   0.132220  -0.026706   0.013560
      2      -0.002639   0.050955   0.096831   0.102478   0.002863   0.024805
      3       0.092573   0.003966   0.010048  -0.130875  -0.017979   0.045904
      4       0.150128  -0.018263  -0.024513  -0.133410   0.009127  -0.036057
      5       0.058338   0.053051   0.100406  -0.095675   0.020548   0.018667
      6      -0.025908   0.022850   0.038241   0.006701   0.032098  -0.028710
      7       0.048761  -0.035531  -0.062204   0.004230   0.027425  -0.088584
      8       0.000520   0.000498   0.000909   0.001694   0.002111  -0.014182
      9       0.073426   0.036063   0.066518   0.128189  -0.028058   0.041211
     10       0.139701  -0.027538  -0.043122   0.129174  -0.052015  -0.005191
     11       0.100656   0.023585   0.047056   0.101753  -0.002074  -0.003834
     12       0.024256   0.006663   0.014473  -0.132190   0.001876   0.025529
     13       0.026999  -0.007640  -0.007319  -0.138289  -0.014258   0.039505
     14       0.051160   0.017984   0.037699  -0.096524   0.030953  -0.011419
     15      -0.094163  -0.043388  -0.078962  -0.001122  -0.000311  -0.031045
     16      -0.125561  -0.017823  -0.029307   0.001406   0.009996  -0.016405
     17      -0.079707   0.033823   0.063445   0.009070   0.063585  -0.053463
     18       0.158181   0.012286   0.026836  -0.282715  -0.017410   0.077006
     19       0.231324  -0.032759  -0.048818  -0.291010  -0.005902  -0.005826
     20       0.085561   0.094131   0.175950  -0.209429   0.043431   0.048755
     21       0.108269   0.045541   0.083887   0.269472  -0.083792   0.114751
     22       0.202734  -0.021429  -0.030878   0.281191  -0.086479   0.024792
     23       0.164331   0.024023   0.049304   0.215154  -0.014135  -0.011957
     24      -0.218313  -0.071174  -0.131672   0.005997   0.023053  -0.069288
     25      -0.288763  -0.019129  -0.035146   0.005482   0.035145  -0.032197
     26      -0.185301   0.019170   0.034777   0.013514   0.081195  -0.076080
     27       0.038788  -0.024406  -0.047996   0.010062   0.081304  -0.177479
     28      -0.208565   0.017573   0.026797  -0.004457  -0.000504   0.152042
     29       0.083645  -0.055236  -0.093440  -0.016453  -0.131356   0.071718
     30      -0.069612   0.013652   0.021018   0.009924   0.024477   0.013155
     31       0.039775  -0.009510  -0.024518  -0.002157   0.010456  -0.100689
     32       0.010049  -0.002836  -0.008873  -0.026691  -0.062164  -0.022701
     33      -0.018191   0.004853   0.010993   0.023186   0.200795  -0.044570
     34      -0.007632   0.019146   0.054472  -0.005514  -0.064537  -0.132434
     35       0.077875  -0.023625  -0.027044   0.003600   0.026020   0.126677
     36      -0.097659   0.021940   0.024648   0.028801   0.253683  -0.018068
     37       0.012792   0.015926   0.052322  -0.006043  -0.071700  -0.141772
     38       0.207866   0.009028   0.041855   0.016540   0.081227  -0.089190
     39      -0.020829   0.031905   0.068130   0.037624   0.310648  -0.111098
     40       0.087875   0.047127   0.108072   0.006530  -0.005684  -0.281464
     41       0.051414  -0.041342  -0.063057  -0.005415  -0.033404   0.189496
     42       0.086863  -0.054394  -0.111936  -0.006520  -0.051717  -0.368114
     43      -0.391219   0.060292   0.096589   0.010217   0.123402   0.301147
     44       0.090411  -0.050461  -0.080659  -0.012837  -0.102689   0.116795
     45      -0.019917  -0.000493   0.002756  -0.027244  -0.069531   0.053887
     46       0.035672  -0.000709  -0.000670  -0.011070   0.001876   0.061401
     47      -0.013350   0.008844   0.014145  -0.012008  -0.010523   0.071666
     48       0.023727   0.032944   0.047347  -0.011690   0.011939  -0.081980
     49       0.013277   0.064663   0.101341  -0.002904   0.024997  -0.058492
     50      -0.102672  -0.051104  -0.098132   0.003714  -0.005291  -0.116338
     51      -0.064722  -0.007324  -0.018572   0.003732   0.034533  -0.078017
     52      -0.116671   0.002456  -0.000710   0.000259   0.013805   0.081195
     53      -0.068871  -0.036619  -0.070073  -0.005197  -0.035478   0.031018
     54      -0.162096  -0.004898  -0.013658  -0.005933  -0.000717   0.069524
     55      -0.207927   0.010528   0.014056  -0.007460  -0.015082   0.213234
     56      -0.061504  -0.053885  -0.101172  -0.005996  -0.037362   0.027944
     57       0.007582   0.018208   0.023961   0.000427  -0.012969  -0.005534
     58       0.005456   0.055807   0.087294   0.004934   0.011403  -0.016023
     59      -0.128035  -0.065128  -0.120133  -0.008677  -0.007058  -0.054538
     60       0.034949  -0.020487  -0.020157   0.013661   0.128010   0.112988
     61       0.048371  -0.015037   0.011003  -0.007808  -0.068983  -0.029473
     62      -0.039991   0.004454   0.021218   0.005451   0.046722  -0.051657
     63       0.053648  -0.040235  -0.063705   0.019093   0.192914   0.260855
     64       0.043004  -0.013887   0.022140  -0.008844  -0.081500  -0.058947
     65      -0.032070  -0.057667   0.062386   0.001470   0.011185  -0.060894
     66       0.084239  -0.055975  -0.019336   0.023881   0.219185   0.215904
     67       0.045088  -0.068596   0.038592  -0.011276  -0.087792  -0.029053
     68      -0.055161   0.032775   0.012007   0.002615   0.017768  -0.088438
     69      -0.045518   0.006865   0.011446  -0.000941  -0.005891   0.019101
     70       0.021885  -0.008403  -0.016292   0.000896   0.001040  -0.011378
     71      -0.028910   0.005534   0.005697   0.003232   0.006414   0.010978
     72       0.007716   0.007664  -0.009490  -0.012272  -0.103156   0.080557
     73       0.037523   0.016711  -0.053763   0.011411   0.101775   0.057507
     74      -0.065144   0.041208   0.011228  -0.009585  -0.091231  -0.129749
     75       0.037578   0.016216  -0.031887  -0.015806  -0.135474   0.109509
     76       0.029289   0.016470  -0.050108   0.011893   0.105727   0.049804
     77      -0.091295   0.070514  -0.024444  -0.007130  -0.074869  -0.111055
     78       0.021380  -0.002257  -0.014142  -0.017008  -0.144978   0.114174
     79       0.009238   0.051273  -0.085190   0.010953   0.091539   0.056529
     80      -0.059959   0.032462   0.022756  -0.007415  -0.069935  -0.137779
     81       0.071798  -0.031432  -0.050225   0.267826  -0.071536   0.031203
     82       0.037000  -0.002034   0.006416   0.281383  -0.066313   0.060573
     83      -0.018885   0.059772   0.113707   0.215448  -0.037736   0.086913
     84       0.036514   0.013092   0.027594  -0.277592   0.004136   0.063789
     85       0.023831   0.018881   0.041911  -0.287046  -0.000335   0.085966
     86       0.086386  -0.008757  -0.009031  -0.212187   0.015436   0.004883
     87      -0.055615   0.014201   0.039515  -0.027353  -0.236786   0.005098
     88      -0.014432  -0.001960   0.007865   0.005187   0.047881  -0.023781
     89       0.050988  -0.018787  -0.023187   0.007811   0.069498   0.030060
     90      -0.100798   0.345304  -0.198038  -0.043782  -0.383449  -0.091523
     91       0.023982   0.359080  -0.314597   0.005495   0.056477  -0.005937
     92       0.056724  -0.270890   0.178387   0.014418   0.126682   0.063187
     93       0.010050  -0.188821   0.151851  -0.008533  -0.068370   0.122293
     94      -0.118333  -0.419016   0.438231  -0.009996  -0.092215  -0.140922
     95       0.091779  -0.333095   0.201455   0.023249   0.206698   0.121028
     96      -0.131297  -0.110634   0.210480  -0.042552  -0.372021  -0.100362
     97      -0.000551   0.036820  -0.036213   0.007591   0.069376  -0.005935
     98       0.113178   0.486768  -0.486677   0.011617   0.109062   0.072702
                 24         25         26         27         28         29    
      0      -0.004096   0.063189   0.090013  -0.022635   0.028985  -0.012246
      1      -0.002427  -0.031221   0.111187   0.006654  -0.223068   0.003104
      2       0.000792   0.001847   0.072366  -0.020598   0.245372  -0.010620
      3       0.000714   0.001269  -0.055212   0.011613  -0.255333  -0.002375
      4      -0.002549  -0.012579  -0.017527   0.012797   0.123497   0.019384
      5       0.002348  -0.000600  -0.035829  -0.004292   0.177041  -0.001044
      6       0.013998  -0.078676  -0.178155   0.017212  -0.063748   0.004937
[...]
     19       0.005101  -0.000060   0.000419
     20       0.002684   0.000001   0.000011
     21      -0.005271   0.000864  -0.002194
     22       0.011154  -0.001308   0.002744
     23      -0.008154   0.001032  -0.001641
     24       0.000606  -0.000416   0.000094
     25       0.000585  -0.000294   0.000252
     26      -0.001674   0.000808  -0.000469
     27      -0.000328   0.021008   0.000007
     28      -0.000403   0.011560  -0.000166
     29      -0.000957   0.065209  -0.000209
     30      -0.036416   0.014402  -0.009643
     31       0.006149  -0.005564   0.023039
     32      -0.020241   0.008809  -0.030460
     33       0.000056   0.000995  -0.000005
     34       0.000060  -0.000351   0.000086
     35      -0.000193   0.002765  -0.000111
     36      -0.001029   0.000536  -0.000691
     37      -0.001871   0.002708  -0.001190
     38      -0.000116   0.001077   0.000199
     39       0.001612  -0.006647  -0.000016
     40       0.000803  -0.006369   0.000429
     41       0.000286  -0.014127   0.001251
     42       0.003330  -0.309826   0.001434
     43       0.003039  -0.144070   0.000682
     44       0.014245  -0.936693   0.003840
     45       0.007505  -0.001440  -0.189533
     46       0.013445  -0.001696  -0.558711
     47      -0.016031   0.003393   0.803869
     48      -0.504993  -0.008321  -0.008828
     49       0.858313   0.013920   0.019324
     50       0.032443   0.000837  -0.001447
     51       0.003402   0.000870   0.000072
     52      -0.001901  -0.000390  -0.000015
     53       0.001551   0.001542  -0.000050
     54      -0.013684   0.003369  -0.000093
     55       0.015764  -0.009765   0.000317
     56       0.004774  -0.001298   0.000151
     57       0.030567   0.000448   0.000553
     58      -0.054391  -0.000593  -0.001114
     59      -0.003284  -0.000159   0.000021
     60      -0.000067   0.000115  -0.000023
     61      -0.000237   0.000093   0.000003
     62       0.000184  -0.000251   0.000009
     63       0.000533  -0.000015   0.000041
     64       0.002705  -0.000339  -0.000369
     65      -0.000216   0.000494   0.000031
     66      -0.000580  -0.002690   0.000215
     67      -0.000310   0.000060   0.000031
     68      -0.001707  -0.001639   0.000301
     69       0.001499  -0.000831   0.012481
     70      -0.000261   0.000506   0.033741
     71       0.002349  -0.000672  -0.048728
     72      -0.000047   0.000061  -0.000005
     73      -0.000023  -0.000033   0.000020
     74      -0.000051   0.000069  -0.000024
     75       0.000093   0.000189  -0.000074
     76       0.000175   0.000470  -0.000185
     77      -0.000144  -0.000011   0.000051
     78       0.000287   0.000151   0.000012
     79       0.000238  -0.000412   0.000041
     80       0.000631  -0.001072   0.000201
     81      -0.001387   0.000320  -0.000140
     82       0.002880  -0.000856   0.000319
     83      -0.002082   0.000731  -0.000227
     84       0.000894  -0.000800  -0.000305
     85      -0.000405   0.000425   0.000250
     86      -0.000688   0.000487   0.000085
     87      -0.000001  -0.000017   0.000001
     88      -0.000075   0.000022   0.000004
     89       0.000023   0.000001  -0.000006
     90      -0.000082  -0.000063   0.000019
     91      -0.000082  -0.000013  -0.000002
     92      -0.000338  -0.000047   0.000018
     93      -0.000211   0.000584  -0.000060
     94      -0.000015   0.000038  -0.000004
     95       0.000215  -0.000390   0.000045
     96       0.000114  -0.000027   0.000012
     97       0.000859  -0.000293  -0.000019
     98      -0.000055   0.000060   0.000004


-----------
IR SPECTRUM  
-----------

 Mode    freq (cm**-1)   T**2         TX         TY         TZ
-------------------------------------------------------------------
   6:        68.98    0.000000  (  0.000000   0.000000   0.000000)
   7:        82.75    0.000000  (  0.000000   0.000000   0.000000)
   8:        96.21    0.000000  (  0.000000   0.000000   0.000000)
   9:       109.41    0.000000  (  0.000000   0.000000   0.000000)
  10:       137.78    0.000000  (  0.000000   0.000000   0.000000)
  11:       148.14    0.000000  (  0.000000   0.000000   0.000000)
  12:       170.03    0.000000  (  0.000000   0.000000   0.000000)
  13:       171.00    0.000000  (  0.000000   0.000000   0.000000)
  14:       178.69    0.000000  (  0.000000   0.000000   0.000000)
  15:       222.75    0.000000  (  0.000000   0.000000   0.000000)
  16:       238.53    0.000000  (  0.000000   0.000000   0.000000)
  17:       264.22    0.000000  (  0.000000   0.000000   0.000000)
  18:       310.26    0.000000  (  0.000000   0.000000   0.000000)
  19:       348.71    0.000000  (  0.000000   0.000000   0.000000)
  20:       349.67    0.000000  (  0.000000   0.000000   0.000000)
  21:       402.40    0.000000  (  0.000000   0.000000   0.000000)
  22:       405.29    0.000000  (  0.000000   0.000000   0.000000)
  23:       457.51    0.000000  (  0.000000   0.000000   0.000000)
  24:       486.12    0.000000  (  0.000000   0.000000   0.000000)
  25:       537.82    0.000000  (  0.000000   0.000000   0.000000)
  26:       542.00    0.000000  (  0.000000   0.000000   0.000000)
  27:       588.90    0.000000  (  0.000000   0.000000   0.000000)
  28:       590.74    0.000000  (  0.000000   0.000000   0.000000)
  29:       621.34    0.000000  (  0.000000   0.000000   0.000000)
  30:       627.41    0.000000  (  0.000000   0.000000   0.000000)
  31:       687.81    0.000000  (  0.000000   0.000000   0.000000)
  32:       772.67    0.000000  (  0.000000   0.000000   0.000000)
  33:       788.32    0.000000  (  0.000000   0.000000   0.000000)
  34:       794.50    0.000000  (  0.000000   0.000000   0.000000)
  35:       816.65    0.000000  (  0.000000   0.000000   0.000000)
  36:       839.78    0.000000  (  0.000000   0.000000   0.000000)
  37:       853.00    0.000000  (  0.000000   0.000000   0.000000)
  38:       903.75    0.000000  (  0.000000   0.000000   0.000000)
  39:       927.61    0.000000  (  0.000000   0.000000   0.000000)
  40:       935.22    0.000000  (  0.000000   0.000000   0.000000)
  41:       944.18    0.000000  (  0.000000   0.000000   0.000000)
  42:       952.99    0.000000  (  0.000000   0.000000   0.000000)
  43:       956.39    0.000000  (  0.000000   0.000000   0.000000)
  44:       957.72    0.000000  (  0.000000   0.000000   0.000000)
  45:       976.33    0.000000  (  0.000000   0.000000   0.000000)
  46:      1001.42    0.000000  (  0.000000   0.000000   0.000000)
  47:      1025.30    0.000000  (  0.000000   0.000000   0.000000)
  48:      1055.12    0.000000  (  0.000000   0.000000   0.000000)
  49:      1061.14    0.000000  (  0.000000   0.000000   0.000000)
  50:      1075.65    0.000000  (  0.000000   0.000000   0.000000)
  51:      1111.18    0.000000  (  0.000000   0.000000   0.000000)
  52:      1119.99    0.000000  (  0.000000   0.000000   0.000000)
  53:      1143.52    0.000000  (  0.000000   0.000000   0.000000)
  54:      1186.19    0.000000  (  0.000000   0.000000   0.000000)
  55:      1187.44    0.000000  (  0.000000   0.000000   0.000000)
  56:      1200.20    0.000000  (  0.000000   0.000000   0.000000)
  57:      1212.06    0.000000  (  0.000000   0.000000   0.000000)
  58:      1225.43    0.000000  (  0.000000   0.000000   0.000000)
  59:      1230.52    0.000000  (  0.000000   0.000000   0.000000)
  60:      1261.02    0.000000  (  0.000000   0.000000   0.000000)
  61:      1270.78    0.000000  (  0.000000   0.000000   0.000000)
  62:      1282.95    0.000000  (  0.000000   0.000000   0.000000)
  63:      1287.36    0.000000  (  0.000000   0.000000   0.000000)
  64:      1304.60    0.000000  (  0.000000   0.000000   0.000000)
  65:      1334.35    0.000000  (  0.000000   0.000000   0.000000)
  66:      1345.28    0.000000  (  0.000000   0.000000   0.000000)
  67:      1371.68    0.000000  (  0.000000   0.000000   0.000000)
  68:      1373.63    0.000000  (  0.000000   0.000000   0.000000)
  69:      1412.11    0.000000  (  0.000000   0.000000   0.000000)
  70:      1434.09    0.000000  (  0.000000   0.000000   0.000000)
  71:      1447.28    0.000000  (  0.000000   0.000000   0.000000)
  72:      1484.89    0.000000  (  0.000000   0.000000   0.000000)
  73:      1502.28    0.000000  (  0.000000   0.000000   0.000000)
  74:      1507.95    0.000000  (  0.000000   0.000000   0.000000)
  75:      1511.64    0.000000  (  0.000000   0.000000   0.000000)
  76:      1515.27    0.000000  (  0.000000   0.000000   0.000000)
  77:      1533.31    0.000000  (  0.000000   0.000000   0.000000)
  78:      1542.62    0.000000  (  0.000000   0.000000   0.000000)
  79:      1560.91    0.000000  (  0.000000   0.000000   0.000000)
  80:      2808.88    0.000000  (  0.000000   0.000000   0.000000)
  81:      2865.20    0.000000  (  0.000000   0.000000   0.000000)
  82:      2868.98    0.000000  (  0.000000   0.000000   0.000000)
  83:      2878.62    0.000000  (  0.000000   0.000000   0.000000)
  84:      2894.31    0.000000  (  0.000000   0.000000   0.000000)
  85:      2896.54    0.000000  (  0.000000   0.000000   0.000000)
  86:      2902.84    0.000000  (  0.000000   0.000000   0.000000)
  87:      2912.27    0.000000  (  0.000000   0.000000   0.000000)
  88:      2917.13    0.000000  (  0.000000   0.000000   0.000000)
  89:      2929.28    0.000000  (  0.000000   0.000000   0.000000)
  90:      2929.94    0.000000  (  0.000000   0.000000   0.000000)
  91:      2974.49    0.000000  (  0.000000   0.000000   0.000000)
  92:      2984.44    0.000000  (  0.000000   0.000000   0.000000)
  93:      2989.11    0.000000  (  0.000000   0.000000   0.000000)
  94:      2999.09    0.000000  (  0.000000   0.000000   0.000000)
  95:      3011.37    0.000000  (  0.000000   0.000000   0.000000)
  96:      3179.72    0.000000  (  0.000000   0.000000   0.000000)
  97:      3286.93    0.000000  (  0.000000   0.000000   0.000000)
  98:      3421.95    0.000000  (  0.000000   0.000000   0.000000)

The first frequency considered to be a vibration is 6
The total number of vibrations considered is 93


--------------------------
THERMOCHEMISTRY AT 298.15K
--------------------------

Temperature         ... 298.15 K
Pressure            ... 1.00 atm
Total Mass          ... 197.28 AMU

Throughout the following assumptions are being made:
  (1) The electronic state is orbitally nondegenerate
  (2) There are no thermally accessible electronically excited states
  (3) Hindered rotations indicated by low frequency modes are not
      treated as such but are treated as vibrations and this may
      cause some error
  (4) All equations used are the standard statistical mechanics
      equations for an ideal gas
  (5) All vibrations are strictly harmonic

freq.      68.98  E(vib)   ...       0.50 
freq.      82.75  E(vib)   ...       0.48 
freq.      96.21  E(vib)   ...       0.47 
freq.     109.41  E(vib)   ...       0.45 
freq.     137.78  E(vib)   ...       0.42 
freq.     148.14  E(vib)   ...       0.41 
freq.     170.03  E(vib)   ...       0.38 
freq.     171.00  E(vib)   ...       0.38 
freq.     178.69  E(vib)   ...       0.37 
freq.     222.75  E(vib)   ...       0.33 
freq.     238.53  E(vib)   ...       0.32 
freq.     264.22  E(vib)   ...       0.29 
freq.     310.26  E(vib)   ...       0.26 
freq.     348.71  E(vib)   ...       0.23 
freq.     349.67  E(vib)   ...       0.23 
freq.     402.40  E(vib)   ...       0.19 
freq.     405.29  E(vib)   ...       0.19 
freq.     457.51  E(vib)   ...       0.16 
freq.     486.12  E(vib)   ...       0.15 
freq.     537.82  E(vib)   ...       0.12 
freq.     542.00  E(vib)   ...       0.12 
freq.     588.90  E(vib)   ...       0.10 
freq.     590.74  E(vib)   ...       0.10 
freq.     621.34  E(vib)   ...       0.09 
freq.     627.41  E(vib)   ...       0.09 
freq.     687.81  E(vib)   ...       0.07 
freq.     772.67  E(vib)   ...       0.05 
freq.     788.32  E(vib)   ...       0.05 
freq.     794.50  E(vib)   ...       0.05 
freq.     816.65  E(vib)   ...       0.05 
freq.     839.78  E(vib)   ...       0.04 
freq.     853.00  E(vib)   ...       0.04 
freq.     903.75  E(vib)   ...       0.03 
freq.     927.61  E(vib)   ...       0.03 
freq.     935.22  E(vib)   ...       0.03 
freq.     944.18  E(vib)   ...       0.03 
freq.     952.99  E(vib)   ...       0.03 
freq.     956.39  E(vib)   ...       0.03 
freq.     957.72  E(vib)   ...       0.03 
freq.     976.33  E(vib)   ...       0.03 
freq.    1001.42  E(vib)   ...       0.02 
freq.    1025.30  E(vib)   ...       0.02 
freq.    1055.12  E(vib)   ...       0.02 
freq.    1061.14  E(vib)   ...       0.02 
freq.    1075.65  E(vib)   ...       0.02 
freq.    1111.18  E(vib)   ...       0.01 
freq.    1119.99  E(vib)   ...       0.01 
freq.    1143.52  E(vib)   ...       0.01 
freq.    1186.19  E(vib)   ...       0.01 
freq.    1187.44  E(vib)   ...       0.01 
freq.    1200.20  E(vib)   ...       0.01 
freq.    1212.06  E(vib)   ...       0.01 
freq.    1225.43  E(vib)   ...       0.01 
freq.    1230.52  E(vib)   ...       0.01 
freq.    1261.02  E(vib)   ...       0.01 
freq.    1270.78  E(vib)   ...       0.01 
freq.    1282.95  E(vib)   ...       0.01 
freq.    1287.36  E(vib)   ...       0.01 
freq.    1304.60  E(vib)   ...       0.01 
freq.    1334.35  E(vib)   ...       0.01 
freq.    1345.28  E(vib)   ...       0.01 
freq.    1371.68  E(vib)   ...       0.01 
freq.    1373.63  E(vib)   ...       0.01 
freq.    1412.11  E(vib)   ...       0.00 
freq.    1434.09  E(vib)   ...       0.00 
freq.    1447.28  E(vib)   ...       0.00 
freq.    1484.89  E(vib)   ...       0.00 
freq.    1502.28  E(vib)   ...       0.00 
freq.    1507.95  E(vib)   ...       0.00 
freq.    1511.64  E(vib)   ...       0.00 
freq.    1515.27  E(vib)   ...       0.00 
freq.    1533.31  E(vib)   ...       0.00 
freq.    1542.62  E(vib)   ...       0.00 
freq.    1560.91  E(vib)   ...       0.00 
freq.    2808.88  E(vib)   ...       0.00 
freq.    2865.20  E(vib)   ...       0.00 
freq.    2868.98  E(vib)   ...       0.00 
freq.    2878.62  E(vib)   ...       0.00 
freq.    2894.31  E(vib)   ...       0.00 
freq.    2896.54  E(vib)   ...       0.00 
freq.    2902.84  E(vib)   ...       0.00 
freq.    2912.27  E(vib)   ...       0.00 
freq.    2917.13  E(vib)   ...       0.00 
freq.    2929.28  E(vib)   ...       0.00 
freq.    2929.94  E(vib)   ...       0.00 
freq.    2974.49  E(vib)   ...       0.00 
freq.    2984.44  E(vib)   ...       0.00 
freq.    2989.11  E(vib)   ...       0.00 
freq.    2999.09  E(vib)   ...       0.00 
freq.    3011.37  E(vib)   ...       0.00 
freq.    3179.72  E(vib)   ...       0.00 
freq.    3286.93  E(vib)   ...       0.00 
freq.    3421.95  E(vib)   ...       0.00 

------------
INNER ENERGY
------------

The inner energy is: U= E(el) + E(ZPE) + E(vib) + E(rot) + E(trans)
    E(el)   - is the total energy from the electronic structure calculation
              = E(kin-el) + E(nuc-el) + E(el-el) + E(nuc-nuc)
    E(ZPE)  - the the zero temperature vibrational energy from the frequency calculation
    E(vib)  - the the finite temperature correction to E(ZPE) due to population
              of excited vibrational states
    E(rot)  - is the rotational thermal energy
    E(trans)- is the translational thermal energy

Summary of contributions to the inner energy U:
Electronic energy                ...    -44.29644150 Eh
Zero point energy                ...      0.27801342 Eh     174.46 kcal/mol
Thermal vibrational correction   ...      0.01230753 Eh       7.72 kcal/mol
Thermal rotational correction    ...      0.00141627 Eh       0.89 kcal/mol
Thermal translational correction ...      0.00141627 Eh       0.89 kcal/mol
-----------------------------------------------------------------------
Total thermal energy                    -44.00328800 Eh


Summary of corrections to the electronic energy:
(perhaps to be used in another calculation)
Total thermal correction                  0.01514007 Eh       9.50 kcal/mol
Non-thermal (ZPE) correction              0.27801342 Eh     174.46 kcal/mol
-----------------------------------------------------------------------
Total correction                          0.29315349 Eh     183.96 kcal/mol


--------
ENTHALPY
--------

The enthalpy is H = U + kB*T
                kB is Boltzmann's constant
Total free energy                 ...    -44.00328800 Eh 
Thermal Enthalpy correction       ...      0.00094421 Eh       0.59 kcal/mol
-----------------------------------------------------------------------
Total Enthalpy                    ...    -44.00234379 Eh


Note: Only C1 symmetry has been detected, increase convergence thresholds 
      if your molecule has a higher symmetry. Symmetry factor of 1.0 is   
      used for the rotational entropy correction. 
 

Note: Rotational entropy computed according to Herzberg 
Infrared and Raman Spectra, Chapter V,1, Van Nostrand Reinhold, 1945 
Point Group:  C1, Symmetry Number:   1  
Rotational constants in cm-1:     0.031065     0.010705     0.008666 

Vibrational entropy computed according to the QRRHO of S. Grimme
Chem.Eur.J. 2012 18 9955


-------
ENTROPY
-------

The entropy contributions are T*S = T*(S(el)+S(vib)+S(rot)+S(trans))
     S(el)   - electronic entropy
     S(vib)  - vibrational entropy
     S(rot)  - rotational entropy
     S(trans)- translational entropy
The entropies will be listed as mutliplied by the temperature to get
units of energy

Electronic entropy                ...      0.00000000 Eh      0.00 kcal/mol
Vibrational entropy               ...      0.02116939 Eh     13.28 kcal/mol
Rotational entropy                ...      0.01553327 Eh      9.75 kcal/mol
Translational entropy             ...      0.01983352 Eh     12.45 kcal/mol
-----------------------------------------------------------------------
Final entropy term                ...      0.05653618 Eh     35.48 kcal/mol

In case the symmetry of your molecule has not been determined correctly
or in case you have a reason to use a different symmetry number we print 
out the resulting rotational entropy values for sn=1,12 :
 --------------------------------------------------------
|  sn= 1 | S(rot)=       0.01553327 Eh      9.75 kcal/mol|
|  sn= 2 | S(rot)=       0.01487881 Eh      9.34 kcal/mol|
|  sn= 3 | S(rot)=       0.01449598 Eh      9.10 kcal/mol|
|  sn= 4 | S(rot)=       0.01422436 Eh      8.93 kcal/mol|
|  sn= 5 | S(rot)=       0.01401367 Eh      8.79 kcal/mol|
|  sn= 6 | S(rot)=       0.01384152 Eh      8.69 kcal/mol|
|  sn= 7 | S(rot)=       0.01369598 Eh      8.59 kcal/mol|
|  sn= 8 | S(rot)=       0.01356990 Eh      8.52 kcal/mol|
|  sn= 9 | S(rot)=       0.01345869 Eh      8.45 kcal/mol|
|  sn=10 | S(rot)=       0.01335921 Eh      8.38 kcal/mol|
|  sn=11 | S(rot)=       0.01326922 Eh      8.33 kcal/mol|
|  sn=12 | S(rot)=       0.01318707 Eh      8.27 kcal/mol|
 --------------------------------------------------------


-------------------
GIBBS FREE ENERGY
-------------------

The Gibbs free energy is G = H - T*S

Total enthalpy                    ...    -44.00234379 Eh 
Total entropy correction          ...     -0.05653618 Eh    -35.48 kcal/mol
-----------------------------------------------------------------------
Final Gibbs free energy         ...    -44.05887998 Eh

For completeness - the Gibbs free energy minus the electronic energy
G-E(el)                           ...      0.23756152 Eh    149.07 kcal/mol


Total Time for Numerical Frequencies  :        83.105 sec
Time for Reference State(s)           :         0.116 sec
Time for Displacements                :        74.407 sec

Timings for individual modules:

Sum of individual times         ...        0.271 sec (=   0.005 min)
XTB module                      ...        0.271 sec (=   0.005 min) 100.0 %
                             ****ORCA TERMINATED NORMALLY****
TOTAL RUN TIME: 0 days 0 hours 1 minutes 23 seconds 960 msec
(SLURM) EXECUTION TIME: 84.101667143 seconds.
