(SLURM) JOB ID:         589

                                 *****************
                                 * O   R   C   A *
                                 *****************

           --- An Ab Initio, DFT and Semiempirical electronic structure package ---

                  #######################################################
                  #                        -***-                        #
                  #          Department of theory and spectroscopy      #
                  #               Directorship: Frank Neese             #
                  #        Max Planck Institute fuer Kohlenforschung    #
                  #                Kaiser Wilhelm Platz 1               #
                  #                 D-45470 Muelheim/Ruhr               #
                  #                      Germany                        #
                  #                                                     #
                  #                  All rights reserved                #
                  #                        -***-                        #
                  #######################################################


                         Program Version 4.2.1 -  RELEASE  -


 With contributions from (in alphabetic order):
   Daniel Aravena         : Magnetic Suceptibility
   Michael Atanasov       : Ab Initio Ligand Field Theory (pilot matlab implementation)
   Alexander A. Auer      : GIAO ZORA, VPT2
   Ute Becker             : Parallelization
   Giovanni Bistoni       : ED, misc. LED, open-shell LED, HFLD
   Martin Brehm           : Molecular dynamics
   Dmytro Bykov           : SCF Hessian
   Vijay G. Chilkuri      : MRCI spin determinant printing, contributions to CSF-ICE
   Dipayan Datta          : RHF DLPNO-CCSD density
   Achintya Kumar Dutta   : EOM-CC, STEOM-CC
   Dmitry Ganyushin       : Spin-Orbit,Spin-Spin,Magnetic field MRCI
   Miquel Garcia          : C-PCM Hessian, Gaussian charge scheme
   Yang Guo               : DLPNO-NEVPT2, CIM, IAO-localization
   Andreas Hansen         : Spin unrestricted coupled pair/coupled cluster methods
   Benjamin Helmich-Paris : CASSCF linear response (MC-RPA)
   Lee Huntington         : MR-EOM, pCC
   Robert Izsak           : Overlap fitted RIJCOSX, COSX-SCS-MP3, EOM
   Christian Kollmar      : KDIIS, OOCD, Brueckner-CCSD(T), CCSD density
   Simone Kossmann        : Meta GGA functionals, TD-DFT gradient, OOMP2, MP2 Hessian
   Martin Krupicka        : AUTO-CI
   Lucas Lang             : DCDCAS
   Dagmar Lenk            : GEPOL surface, SMD
   Dimitrios Liakos       : Extrapolation schemes; Compound Job, initial MDCI parallelization
   Dimitrios Manganas     : Further ROCIS development; embedding schemes
   Dimitrios Pantazis     : SARC Basis sets
   Taras Petrenko         : DFT Hessian,TD-DFT gradient, ASA, ECA, R-Raman, ABS, FL, XAS/XES, NRVS
   Peter Pinski           : DLPNO-MP2, DLPNO-MP2 Gradient
   Christoph Reimann      : Effective Core Potentials
   Marius Retegan         : Local ZFS, SOC
   Christoph Riplinger    : Optimizer, TS searches, QM/MM, DLPNO-CCSD(T), (RO)-DLPNO pert. Triples
   Tobias Risthaus        : Range-separated hybrids, TD-DFT gradient, RPA, STAB
   Michael Roemelt        : Original ROCIS implementation
   Masaaki Saitow         : Open-shell DLPNO-CCSD energy and density
   Barbara Sandhoefer     : DKH picture change effects
   Avijit Sen             : IP-ROCIS
   Kantharuban Sivalingam : CASSCF convergence, NEVPT2, FIC-MRCI
   Bernardo de Souza      : ESD, SOC TD-DFT
   Georgi Stoychev        : AutoAux, RI-MP2 NMR
   Willem Van den Heuvel  : Paramagnetic NMR
   Boris Wezisla          : Elementary symmetry handling
   Frank Wennmohs         : Technical directorship


 We gratefully acknowledge several colleagues who have allowed us to
 interface, adapt or use parts of their codes:
   Stefan Grimme, W. Hujo, H. Kruse,             : VdW corrections, initial TS optimization,
                  C. Bannwarth                     DFT functionals, gCP, sTDA/sTD-DF
   Ed Valeev, F. Pavosevic, A. Kumar             : LibInt (2-el integral package), F12 methods
   Garnet Chan, S. Sharma, J. Yang, R. Olivares  : DMRG
   Ulf Ekstrom                                   : XCFun DFT Library
   Mihaly Kallay                                 : mrcc  (arbitrary order and MRCC methods)
   Andreas Klamt, Michael Diedenhofen            : otool_cosmo (COSMO solvation model)
   Jiri Pittner, Ondrej Demel                    : Mk-CCSD
   Frank Weinhold                                : gennbo (NPA and NBO analysis)
   Christopher J. Cramer and Donald G. Truhlar   : smd solvation model
   Lars Goerigk                                  : TD-DFT with DH, B97 family of functionals
   V. Asgeirsson, H. Jonsson                     : NEB implementation
   FAccTs GmbH                                   : IRC, NEB, NEB-TS, Multilevel, MM, QM/MM, CI optimization
   S Lehtola, MJT Oliveira, MAL Marques          : LibXC Library


 Your calculation uses the libint2 library for the computation of 2-el integrals
 For citations please refer to: http://libint.valeyev.net

 Your ORCA version has been built with support for libXC version: 4.2.3
 For citations please refer to: https://tddft.org/programs/libxc/

 This ORCA versions uses:
   CBLAS   interface :  Fast vector & matrix operations
   LAPACKE interface :  Fast linear algebra routines
   SCALAPACK package :  Parallel linear algebra routines




***************************************
The coordinates will be read from file: init.xyz
***************************************


Your calculation utilizes the SMD solvation module
Please cite in your paper:
A.V. Marenich, C.J. Cramer, D.G. Truhlar J. Phys. Chem. B, 113, (2009), 6378 

Your calculation utilizes the semiempirical GFN2-xTB method
Please cite in your paper:
C. Bannwarth, Ehlert S., S. Grimme,  J. Chem. Theory Comput., 15, (2019), 1652.
   

----- Orbital basis set information -----
Your calculation utilizes the basis: def2-SVP
   F. Weigend and R. Ahlrichs, Phys. Chem. Chem. Phys. 7, 3297 (2005).

================================================================================
                                        WARNINGS
                       Please study these warnings very carefully!
================================================================================

WARNING: Gradients needed for Numerical Frequencies
  ===> : Setting RunTyp to EnGrad

WARNING: The environment variable RSH_COMMAND is not set!
  ===> : All Displacements for the Numerical Hessian calculation
         will be started on localhost

WARNING: Found dipole moment calculation with XTB calculation
  ===> : Switching off dipole moment calculation


INFO   : the flag for use of LIBINT has been found!

================================================================================
                                       INPUT FILE
================================================================================
NAME = /tmp/slurm-scratch/freq.589/freq.inp
|  1> ! XTB2 NumFreq
|  2> %maxcore 1450
|  3> 
|  4> * xyzfile 0 1 init.xyz
|  5> 
|  6> %cpcm
|  7>  smd true
|  8>  smdsolvent "ch2cl2"
|  9> end
| 10> %pal nprocs 9 end
| 11> 
| 12>                          ****END OF INPUT****
================================================================================

                     *******************************
                     * Energy+Gradient Calculation *
                     *******************************

      -----------------------------------------------------------      
     |                   =====================                   |     
     |                           x T B                           |     
     |                   =====================                   |     
     |                         S. Grimme                         |     
     |          Mulliken Center for Theoretical Chemistry        |     
     |                    University of Bonn                     |     
      -----------------------------------------------------------      

   * xtb version 6.3.2 (30e43eb) compiled by 'schneider@apollo14' on 2020-08-08

   xtb is free software: you can redistribute it and/or modify it under
   the terms of the GNU Lesser General Public License as published by
   the Free Software Foundation, either version 3 of the License, or
   (at your option) any later version.
   
   xtb is distributed in the hope that it will be useful,
   but WITHOUT ANY WARRANTY; without even the implied warranty of
   MERCHANTABILITY or FITNESS FOR A PARTICULAR PURPOSE.  See the
   GNU Lesser General Public License for more details.
   
   Cite this work as:
   * S. Grimme, C. Bannwarth, P. Shushkov, J. Chem. Theory Comput., 2017,
     13, 1989-2009. DOI: 10.1021/acs.jctc.7b00118
   * C. Bannwarth, S. Ehlert and S. Grimme., J. Chem. Theory Comput., 2019,
     15, 1652-1671. DOI: 10.1021/acs.jctc.8b01176
   * P. Pracht, E. Caldeweyher, S. Ehlert, S. Grimme, ChemRxiv, 2019, preprint.
     DOI: 10.26434/chemrxiv.8326202.v1
   
   for GFN-FF:
   * S. Spicher and S. Grimme, Angew. Chem. Int. Ed., 2020,
     DOI: 10.1002/anie.202004239
   
   for DFT-D4:
   * E. Caldeweyher, C. Bannwarth and S. Grimme, J. Chem. Phys., 2017,
     147, 034112. DOI: 10.1063/1.4993215
   * E. Caldeweyher, S. Ehlert, A. Hansen, H. Neugebauer, S. Spicher,
     C. Bannwarth and S. Grimme, J. Chem. Phys., 2019, 150, 154122.
     DOI: 10.1063/1.5090222
   
   for sTDA-xTB:
   * S. Grimme and C. Bannwarth, J. Chem. Phys., 2016, 145, 054103.
     DOI: 10.1063/1.4959605
   
   in the mass-spec context:
   * V. Asgeirsson, C. Bauer and S. Grimme, Chem. Sci., 2017, 8, 4879.
     DOI: 10.1039/c7sc00601b
   * J. Koopman and S. Grimme, ACS Omega 2019, 4, 12, 15120-15133.
     DOI: 10.1021/acsomega.9b02011
   
   for metadynamics refer to:
   * S. Grimme, J. Chem. Theory Comput., 2019, 155, 2847-2862
     DOI: 10.1021/acs.jctc.9b00143
   
   with help from (in alphabetical order)
   C. Bannwarth, F. Bohle, G. Brandenburg, E. Caldeweyher, M. Checinski,
   S. Dohm, S. Ehlert, S. Ehrlich, F. März, H. Neugebauer, J. Pisarek,
   P. Pracht, P. Shushkov, and S. Spicher.
   
 * started run on 2020/09/25 at 21:20:37.902     

           -------------------------------------------------
          |                Calculation Setup                |
           -------------------------------------------------

          program call               : /opt/orca/otool_xtb /tmp/slurm-scratch/freq.589/freq_XTB.xyz --grad -c 0 -u 0 -P 9 --namespace /tmp/slurm-scratch/freq.589/freq --gbsa CH2Cl2
          hostname                   : apollo14
          calculation namespace      : /tmp/slurm-scratch/freq.589/freq
          coordinate file            : /tmp/slurm-scratch/freq.589/freq_XTB.xyz
          omp threads                :                     9
          number of atoms            :                    49
          number of electrons        :                   112
          charge                     :                     0
          spin                       :                   0.0
          first test random number   :      0.35478904398712

   ID    Z sym.   atoms
    1    6 C      1-7, 12, 14, 27, 32, 36, 39, 42, 45
    2    1 H      8-10, 13, 15-18, 20, 21, 23-26, 28-31, 33-35, 37, 38, 40,
                  41, 43, 44, 46-48
    3    7 N      11, 49
    4    8 O      19, 22

molecular fragmentation (1/2 indicates fragments):
1111111111111111112122222211111111122222222222222
# atoms in fragment 1/2:    28    21
 fragment masses (1/2) :      162.25      108.16
CMA distance (Bohr)    :   6.507
constraining FC (au)   :  0.0500
########################################################################
[WARNING] Please study the warnings concerning your input carefully
-1- prog_main_parseArguments: Process number higher than OMP_NUM_THREADS, I hope you know what you are doing.
########################################################################

           -------------------------------------------------
          |                 G F N 2 - x T B                 |
           -------------------------------------------------

        Reference                      10.1021/acs.jctc.8b01176
      * Hamiltonian:
        H0-scaling (s, p, d)           1.850000    2.230000    2.230000
        zeta-weighting                 0.500000
      * Dispersion:
        s8                             2.700000
        a1                             0.520000
        a2                             5.000000
        s9                             5.000000
      * Repulsion:
        kExp                           1.500000    1.000000
        rExp                           1.000000
      * Coulomb:
        alpha                          2.000000
        third order                    shell-resolved
        anisotropic                    true
        a3                             3.000000
        a5                             4.000000
        cn-shift                       1.200000
        cn-exp                         4.000000
        max-rad                        5.000000

      * Solvation model:               GBSA
        Solvent                        CH2Cl2
        Parameter file                 internal GFN2-xTB/GBSA
        Dielectric constant                8.9300E+00
        Reference state                gsolv [1 M gas/solution]
        Free energy shift                  4.4408E-03 Eh       2.7867E+00 kcal/mol
        Temperature                        2.9815E+02 K
        Density                            1.3300E+00 kg/L
        Solvent mass                       8.4930E+01 g/mol
        Interaction kernel             Still
        Born radius scaling (c1)           1.4917E+00
        Born radii integrator          GBOBC
        Born offset                        0.0000E+00 a0       0.0000E+00 AA
        H-bond correction              false
        Ion screening                  false
        Surface tension                    1.0000E-05 Eh       1.5569E+01 dyn/cm
        Grid points                               230 per atom

          ...................................................
          :                      SETUP                      :
          :.................................................:
          :  # basis functions                 106          :
          :  # atomic orbitals                 106          :
          :  # shells                           68          :
          :  # electrons                       112          :
          :  max. iterations                   250          :
          :  Hamiltonian                  GFN2-xTB          :
          :  restarted?                      false          :
          :  GBSA solvation                   true          :
          :  PC potential                    false          :
          :  electronic temp.          300.0000000     K    :
          :  accuracy                    1.0000000          :
          :  -> integral cutoff          0.2500000E+02      :
          :  -> integral neglect         0.1000000E-07      :
          :  -> SCF convergence          0.1000000E-05 Eh   :
          :  -> wf. convergence          0.1000000E-03 e    :
          :  Broyden damping             0.4000000          :
          ...................................................

 iter      E             dE          RMSdq      gap      omega  full diag
   1    -62.0714218 -0.620714E+02  0.361E+00    2.81       0.0  T
   2    -62.1890863 -0.117664E+00  0.208E+00    2.41       1.0  T
   3    -62.1918510 -0.276474E-02  0.892E-01    1.43       1.0  T
   4    -62.1959202 -0.406918E-02  0.404E-01    1.60       1.0  T
   5    -62.2002610 -0.434078E-02  0.833E-02    1.56       1.0  T
   6    -62.2003204 -0.594376E-04  0.371E-02    1.60       1.0  T
   7    -62.2003277 -0.723410E-05  0.176E-02    1.62       1.0  T
   8    -62.2003323 -0.464294E-05  0.606E-03    1.62       2.4  T
   9    -62.2003327 -0.336792E-06  0.217E-03    1.62       6.6  T
  10    -62.2003327 -0.656852E-07  0.110E-03    1.62      12.9  T
  11    -62.2003327 -0.770661E-08  0.476E-04    1.62      30.0  T
  12    -62.2003327 -0.230079E-08  0.122E-04    1.62     116.9  T

   *** convergence criteria satisfied after 12 iterations ***

         #    Occupation            Energy/Eh            Energy/eV
      -------------------------------------------------------------
         1        2.0000           -0.6909900             -18.8028
       ...           ...                  ...                  ...
        50        2.0000           -0.4254417             -11.5769
        51        2.0000           -0.4237631             -11.5312
        52        2.0000           -0.4213406             -11.4653
        53        2.0000           -0.3996642             -10.8754
        54        2.0000           -0.3862218             -10.5096
        55        2.0000           -0.3677604             -10.0073
        56        2.0000           -0.3620152              -9.8509 (HOMO)
        57                         -0.3023735              -8.2280 (LUMO)
        58                         -0.2423815              -6.5955
        59                         -0.2116015              -5.7580
        60                         -0.1043655              -2.8399
        61                         -0.0285903              -0.7780
       ...                                ...                  ...
       106                          0.6416064              17.4590
      -------------------------------------------------------------
                  HL-Gap            0.0596417 Eh            1.6229 eV
             Fermi-level           -0.3321943 Eh           -9.0395 eV

 SCC (total)                   0 d,  0 h,  0 min,  0.140 sec
 SCC setup                      ...        0 min,  0.006 sec (  3.962%)
 Dispersion                     ...        0 min,  0.004 sec (  2.870%)
 classical contributions        ...        0 min,  0.003 sec (  2.436%)
 integral evaluation            ...        0 min,  0.027 sec ( 19.118%)
 iterations                     ...        0 min,  0.041 sec ( 29.228%)
 molecular gradient             ...        0 min,  0.059 sec ( 42.182%)
 printout                       ...        0 min,  0.000 sec (  0.188%)

         :::::::::::::::::::::::::::::::::::::::::::::::::::::
         ::                     SUMMARY                     ::
         :::::::::::::::::::::::::::::::::::::::::::::::::::::
         :: total energy             -61.351424231474 Eh    ::
         :: total w/o Gsasa/hb       -61.327518510838 Eh    ::
         :: gradient norm              0.034782338633 Eh/a0 ::
         :: HOMO-LUMO gap              1.622932660637 eV    ::
         ::.................................................::
         :: SCC energy               -62.200332727493 Eh    ::
         :: -> isotropic ES            0.180621002742 Eh    ::
         :: -> anisotropic ES         -0.024176000997 Eh    ::
         :: -> anisotropic XC          0.036600666670 Eh    ::
         :: -> dispersion             -0.040490073151 Eh    ::
         :: -> Gsolv                  -0.053877730234 Eh    ::
         ::    -> Gborn               -0.029972009597 Eh    ::
         ::    -> Gsasa               -0.028346549810 Eh    ::
         ::    -> Ghb                  0.000000000000 Eh    ::
         ::    -> Gshift               0.004440829173 Eh    ::
         :: repulsion energy           0.848238929967 Eh    ::
         :: add. restraining           0.000000000000 Eh    ::
         :: total charge              -0.000000000000 e     ::
         :::::::::::::::::::::::::::::::::::::::::::::::::::::

           -------------------------------------------------
          |                Property Printout                |
           -------------------------------------------------

    * Orbital Energies and Occupations

         #    Occupation            Energy/Eh            Energy/eV
      -------------------------------------------------------------
         1        2.0000           -0.6909900             -18.8028
       ...           ...                  ...                  ...
        44        2.0000           -0.4439343             -12.0801
        45        2.0000           -0.4401396             -11.9768
        46        2.0000           -0.4388664             -11.9422
        47        2.0000           -0.4373311             -11.9004
        48        2.0000           -0.4371719             -11.8961
        49        2.0000           -0.4263807             -11.6024
        50        2.0000           -0.4254417             -11.5769
        51        2.0000           -0.4237631             -11.5312
        52        2.0000           -0.4213406             -11.4653
        53        2.0000           -0.3996642             -10.8754
        54        2.0000           -0.3862218             -10.5096
        55        2.0000           -0.3677604             -10.0073
        56        2.0000           -0.3620152              -9.8509 (HOMO)
        57                         -0.3023735              -8.2280 (LUMO)
        58                         -0.2423815              -6.5955
        59                         -0.2116015              -5.7580
        60                         -0.1043655              -2.8399
        61                         -0.0285903              -0.7780
        62                          0.0090496               0.2463
        63                          0.0629470               1.7129
        64                          0.0719809               1.9587
        65                          0.0855015               2.3266
        66                          0.0911361               2.4799
        67                          0.0962466               2.6190
       ...                                ...                  ...
       106                          0.6416064              17.4590
      -------------------------------------------------------------
                  HL-Gap            0.0596417 Eh            1.6229 eV
             Fermi-level           -0.3321943 Eh           -9.0395 eV

     #   Z          covCN         q      C6AA      α(0)
     1   6 C        2.970     0.013    27.713     8.635
     2   6 C        2.917    -0.030    28.740     8.791
     3   6 C        2.914    -0.023    28.583     8.767
     4   6 C        2.916    -0.017    28.427     8.743
     5   6 C        2.913    -0.023    28.583     8.767
     6   6 C        2.924    -0.020    28.515     8.757
     7   6 C        2.842     0.087    26.064     8.367
     8   1 H        0.926     0.056     2.242     2.341
     9   1 H        0.925     0.060     2.202     2.321
    10   1 H        0.925     0.060     2.203     2.321
    11   7 N        2.680    -0.047    22.152     6.990
    12   6 C        3.747    -0.022    21.028     6.541
    13   1 H        0.857     0.246     0.898     1.485
    14   6 C        3.803    -0.071    21.857     6.656
    15   1 H        0.925     0.072     2.067     2.248
    16   1 H        0.924     0.090     1.876     2.142
    17   1 H        0.924     0.057     2.235     2.338
    18   1 H        0.924     0.057     2.236     2.338
    19   8 O        1.437    -0.725    28.615     7.208
    20   1 H        0.926     0.106     1.731     2.057
    21   1 H        0.805     0.234     0.959     1.538
    22   8 O        1.221    -0.837    32.362     7.641
    23   1 H        1.047     0.310     0.675     1.284
    24   1 H        0.805     0.188     1.185     1.710
    25   1 H        0.858     0.195     1.130     1.665
    26   1 H        0.860     0.137     1.494     1.915
    27   6 C        3.800    -0.054    21.551     6.610
    28   1 H        0.924     0.034     2.524     2.485
    29   1 H        0.924     0.040     2.454     2.450
    30   1 H        0.925     0.058     2.217     2.328
    31   1 H        0.925     0.058     2.228     2.334
    32   6 C        3.750    -0.106    22.591     6.779
    33   1 H        0.924     0.040     2.455     2.450
    34   1 H        0.924     0.042     2.426     2.436
    35   1 H        0.924     0.040     2.448     2.447
    36   6 C        3.731     0.020    20.333     6.436
    37   1 H        0.924     0.033     2.542     2.493
    38   1 H        0.924     0.005     2.974     2.697
    39   6 C        3.801    -0.067    21.784     6.645
    40   1 H        0.924     0.042     2.422     2.434
    41   1 H        0.924     0.035     2.522     2.483
    42   6 C        3.800    -0.054    21.541     6.608
    43   1 H        0.924     0.029     2.601     2.522
    44   1 H        0.924     0.033     2.542     2.493
    45   6 C        3.750    -0.104    22.545     6.772
    46   1 H        0.924     0.039     2.457     2.451
    47   1 H        0.924     0.036     2.509     2.477
    48   1 H        0.924     0.037     2.486     2.466
    49   7 N        2.627    -0.389    30.070     8.144

 Mol. C6AA /au·bohr⁶  :      19091.442340
 Mol. C8AA /au·bohr⁸  :     416047.264560
 Mol. α(0) /au        :        211.005403


Wiberg/Mayer (AO) data.
largest (>0.10) Wiberg bond orders for each atom

 ---------------------------------------------------------------------------
     #   Z sym  total        # sym  WBO       # sym  WBO       # sym  WBO
 ---------------------------------------------------------------------------
     1   6 C    3.985 --     6 C    1.359     2 C    1.357     7 C    1.110
     2   6 C    3.990 --     3 C    1.466     1 C    1.357     8 H    0.960
                             5 C    0.104
     3   6 C    3.990 --     2 C    1.466     4 C    1.423    31 H    0.969
                             6 C    0.102
     4   6 C    3.984 --     5 C    1.429     3 C    1.423    10 H    0.969
     5   6 C    3.990 --     6 C    1.460     4 C    1.429    30 H    0.969
                             2 C    0.104
     6   6 C    3.984 --     5 C    1.460     1 C    1.359     9 H    0.966
                             3 C    0.102
     7   6 C    3.927 --    11 N    1.610     1 C    1.110    20 H    0.945
                            19 O    0.133
     8   1 H    0.997 --     2 C    0.960
     9   1 H    0.996 --     6 C    0.966
    10   1 H    0.996 --     4 C    0.969
    11   7 N    3.647 --     7 C    1.610    12 C    0.981    13 H    0.823
    12   6 C    3.947 --    14 C    0.994    11 N    0.981    15 H    0.969
                            16 H    0.944
    13   1 H    0.939 --    11 N    0.823
    14   6 C    3.987 --    27 C    1.005    12 C    0.994    18 H    0.974
                            17 H    0.970
    15   1 H    0.995 --    12 C    0.969
    16   1 H    0.988 --    12 C    0.944
    17   1 H    0.997 --    14 C    0.970
    18   1 H    0.997 --    14 C    0.974
    19   8 O    1.804 --    21 H    0.941    23 H    0.500     7 C    0.133
                            22 O    0.116
    20   1 H    0.988 --     7 C    0.945
    21   1 H    0.945 --    19 O    0.941
    22   8 O    1.563 --    24 H    0.959    23 H    0.401    19 O    0.116
    23   1 H    0.904 --    19 O    0.500    22 O    0.401
    24   1 H    0.965 --    22 O    0.959
    25   1 H    0.961 --    49 N    0.898
    26   1 H    0.981 --    49 N    0.966
    27   6 C    3.995 --    32 C    1.019    14 C    1.005    28 H    0.978
                            29 H    0.977
    28   1 H    0.999 --    27 C    0.978
    29   1 H    0.998 --    27 C    0.977
    30   1 H    0.996 --     5 C    0.969
    31   1 H    0.996 --     3 C    0.969
    32   6 C    3.994 --    27 C    1.019    35 H    0.987    34 H    0.987
                            33 H    0.986
    33   1 H    0.998 --    32 C    0.986
    34   1 H    0.998 --    32 C    0.987
    35   1 H    0.998 --    32 C    0.987
    36   6 C    3.983 --    49 N    1.014    39 C    1.005    37 H    0.973
                            38 H    0.972
    37   1 H    0.999 --    36 C    0.973
    38   1 H    1.000 --    36 C    0.972
    39   6 C    3.996 --    42 C    1.007    36 C    1.005    41 H    0.976
                            40 H    0.974
    40   1 H    0.998 --    39 C    0.974
    41   1 H    0.999 --    39 C    0.976
    42   6 C    3.997 --    45 C    1.020    39 C    1.007    43 H    0.978
                            44 H    0.977
    43   1 H    0.999 --    42 C    0.978
    44   1 H    0.999 --    42 C    0.977
    45   6 C    3.996 --    42 C    1.020    47 H    0.988    46 H    0.987
                            48 H    0.987
    46   1 H    0.998 --    45 C    0.987
    47   1 H    0.999 --    45 C    0.988
    48   1 H    0.998 --    45 C    0.987
    49   7 N    3.075 --    36 C    1.014    26 H    0.966    25 H    0.898
 ---------------------------------------------------------------------------

Topologies differ in total number of bonds
Writing topology from bond orders to xtbtopo.mol

molecular dipole:
                 x           y           z       tot (Debye)
 q only:       -0.503      -2.696       2.762
   full:       -0.324      -1.803       2.576       8.034
molecular quadrupole (traceless):
                xx          xy          yy          xz          yz          zz
 q only:       36.554      40.683     -23.195     -27.172      33.814     -13.359
  q+dip:       26.886      22.854     -12.869     -26.027      31.971     -14.017
   full:       26.641      25.004     -11.687     -26.105      29.659     -14.954


           -------------------------------------------------
          | TOTAL ENERGY              -61.351424231474 Eh   |
          | GRADIENT NORM               0.034782338633 Eh/α |
          | HOMO-LUMO GAP               1.622932660637 eV   |
           -------------------------------------------------

------------------------------------------------------------------------
 * finished run on 2020/09/25 at 21:20:38.098     
------------------------------------------------------------------------
 total:
 * wall-time:     0 d,  0 h,  0 min,  0.195 sec
 *  cpu-time:     0 d,  0 h,  0 min,  2.291 sec
 * ratio c/w:    11.720 speedup
 SCF:
 * wall-time:     0 d,  0 h,  0 min,  0.144 sec
 *  cpu-time:     0 d,  0 h,  0 min,  1.680 sec
 * ratio c/w:    11.688 speedup


-------------------------   --------------------
FINAL SINGLE POINT ENERGY       -61.351424231470
-------------------------   --------------------


----------------------------------------------------------------------------
                           ORCA NUMERICAL FREQUENCIES
                              (9-process run)
----------------------------------------------------------------------------

Number of atoms                ... 49
Central differences            ... used
Number of displacements        ... 294
Numerical increment            ... 5.000e-03 bohr
IR-spectrum generation         ... on
Raman-spectrum generation      ... off
Surface Crossing Hessian       ... off
List of participating nodes    ...  /tmp/slurm-scratch/freq.589/freq.hostnames

The output will be reduced. Please look at the following files:
SCF program output             ... >/tmp/slurm-scratch/freq.589/freq.lastscf
Integral program output        ... >/tmp/slurm-scratch/freq.589/freq.lastint
Gradient program output        ... >/tmp/slurm-scratch/freq.589/freq.lastgrad
Dipole moment program output   ... >/tmp/slurm-scratch/freq.589/freq.lastmom
AutoCI program output          ... >/tmp/slurm-scratch/freq.589/freq.lastautoci


         <<< Energy and Gradient at the input geometry >>>

        <<< Energy and Gradient at displaced geometries >>>
             <<<Displacing   2/coordinate 2 (+)>>>
             <<<Displacing   3/coordinate 2 (+)>>>
             <<<Displacing   2/coordinate 2 (-)>>>
             <<<Displacing   1/coordinate 1 (+)>>>
             <<<Displacing   3/coordinate 2 (-)>>>
             <<<Displacing   1/coordinate 1 (-)>>>
             <<<Displacing   2/coordinate 3 (+)>>>
             <<<Displacing   1/coordinate 2 (+)>>>
             <<<Displacing   3/coordinate 3 (+)>>>
             <<<Displacing   3/coordinate 1 (+)>>>
             <<<Displacing   2/coordinate 1 (+)>>>
             <<<Displacing   1/coordinate 2 (-)>>>
             <<<Displacing   1/coordinate 3 (+)>>>
             <<<Displacing   2/coordinate 3 (-)>>>
             <<<Displacing   3/coordinate 1 (-)>>>
             <<<Displacing   2/coordinate 1 (-)>>>
             <<<Displacing   3/coordinate 3 (-)>>>
             <<<Displacing   1/coordinate 3 (-)>>>
             <<<Displacing   4/coordinate 1 (+)>>>
             <<<Displacing   5/coordinate 3 (+)>>>
             <<<Displacing   5/coordinate 1 (+)>>>
             <<<Displacing   4/coordinate 2 (+)>>>
             <<<Displacing   4/coordinate 3 (+)>>>
             <<<Displacing   5/coordinate 3 (-)>>>
             <<<Displacing   4/coordinate 1 (-)>>>
             <<<Displacing   4/coordinate 2 (-)>>>
             <<<Displacing   4/coordinate 3 (-)>>>
             <<<Displacing   5/coordinate 1 (-)>>>
             <<<Displacing   5/coordinate 2 (+)>>>
             <<<Displacing   6/coordinate 1 (+)>>>
             <<<Displacing   6/coordinate 1 (-)>>>
             <<<Displacing   5/coordinate 2 (-)>>>
             <<<Displacing   6/coordinate 3 (+)>>>
             <<<Displacing   6/coordinate 2 (+)>>>
             <<<Displacing   6/coordinate 3 (-)>>>
             <<<Displacing   6/coordinate 2 (-)>>>
             <<<Displacing   7/coordinate 1 (+)>>>
             <<<Displacing   8/coordinate 1 (+)>>>
             <<<Displacing   7/coordinate 3 (+)>>>
             <<<Displacing   7/coordinate 2 (+)>>>
             <<<Displacing   8/coordinate 1 (-)>>>
             <<<Displacing   7/coordinate 1 (-)>>>
             <<<Displacing   7/coordinate 3 (-)>>>
             <<<Displacing   7/coordinate 2 (-)>>>
             <<<Displacing   8/coordinate 2 (+)>>>
             <<<Displacing   8/coordinate 3 (+)>>>
             <<<Displacing   8/coordinate 2 (-)>>>
             <<<Displacing   8/coordinate 3 (-)>>>
             <<<Displacing   9/coordinate 1 (+)>>>
             <<<Displacing   9/coordinate 2 (+)>>>
             <<<Displacing   9/coordinate 2 (-)>>>
             <<<Displacing   9/coordinate 1 (-)>>>
             <<<Displacing   9/coordinate 3 (+)>>>
             <<<Displacing   9/coordinate 3 (-)>>>
             <<<Displacing  10/coordinate 2 (+)>>>
             <<<Displacing  10/coordinate 3 (+)>>>
             <<<Displacing  11/coordinate 2 (+)>>>
             <<<Displacing  10/coordinate 2 (-)>>>
             <<<Displacing  11/coordinate 1 (+)>>>
             <<<Displacing  10/coordinate 1 (+)>>>
             <<<Displacing  10/coordinate 3 (-)>>>
             <<<Displacing  11/coordinate 2 (-)>>>
             <<<Displacing  11/coordinate 1 (-)>>>
             <<<Displacing  10/coordinate 1 (-)>>>
             <<<Displacing  11/coordinate 3 (+)>>>
             <<<Displacing  12/coordinate 1 (+)>>>
             <<<Displacing  11/coordinate 3 (-)>>>
             <<<Displacing  12/coordinate 1 (-)>>>
             <<<Displacing  12/coordinate 2 (+)>>>
             <<<Displacing  12/coordinate 3 (+)>>>
             <<<Displacing  12/coordinate 2 (-)>>>
             <<<Displacing  12/coordinate 3 (-)>>>
             <<<Displacing  14/coordinate 1 (+)>>>
             <<<Displacing  14/coordinate 2 (+)>>>
             <<<Displacing  13/coordinate 3 (+)>>>
             <<<Displacing  14/coordinate 2 (-)>>>
             <<<Displacing  13/coordinate 2 (+)>>>
             <<<Displacing  14/coordinate 1 (-)>>>
             <<<Displacing  13/coordinate 3 (-)>>>
             <<<Displacing  13/coordinate 1 (+)>>>
             <<<Displacing  13/coordinate 2 (-)>>>
             <<<Displacing  14/coordinate 3 (+)>>>
             <<<Displacing  13/coordinate 1 (-)>>>
             <<<Displacing  14/coordinate 3 (-)>>>
             <<<Displacing  15/coordinate 1 (+)>>>
             <<<Displacing  15/coordinate 1 (-)>>>
             <<<Displacing  15/coordinate 2 (+)>>>
             <<<Displacing  15/coordinate 3 (+)>>>
             <<<Displacing  15/coordinate 2 (-)>>>
             <<<Displacing  15/coordinate 3 (-)>>>
             <<<Displacing  16/coordinate 3 (+)>>>
             <<<Displacing  17/coordinate 2 (+)>>>
             <<<Displacing  17/coordinate 1 (+)>>>
             <<<Displacing  16/coordinate 1 (+)>>>
             <<<Displacing  16/coordinate 3 (-)>>>
             <<<Displacing  16/coordinate 2 (+)>>>
             <<<Displacing  17/coordinate 2 (-)>>>
             <<<Displacing  17/coordinate 1 (-)>>>
             <<<Displacing  16/coordinate 1 (-)>>>
             <<<Displacing  16/coordinate 2 (-)>>>
             <<<Displacing  17/coordinate 3 (+)>>>
             <<<Displacing  18/coordinate 1 (+)>>>
             <<<Displacing  17/coordinate 3 (-)>>>
             <<<Displacing  18/coordinate 1 (-)>>>
             <<<Displacing  18/coordinate 3 (+)>>>
             <<<Displacing  18/coordinate 3 (-)>>>
             <<<Displacing  18/coordinate 2 (+)>>>
             <<<Displacing  18/coordinate 2 (-)>>>
             <<<Displacing  19/coordinate 1 (+)>>>
             <<<Displacing  20/coordinate 1 (+)>>>
             <<<Displacing  19/coordinate 3 (+)>>>
             <<<Displacing  19/coordinate 1 (-)>>>
             <<<Displacing  19/coordinate 2 (+)>>>
             <<<Displacing  20/coordinate 1 (-)>>>
             <<<Displacing  19/coordinate 3 (-)>>>
             <<<Displacing  19/coordinate 2 (-)>>>
             <<<Displacing  20/coordinate 2 (+)>>>
             <<<Displacing  20/coordinate 2 (-)>>>
             <<<Displacing  20/coordinate 3 (+)>>>
             <<<Displacing  21/coordinate 1 (+)>>>
             <<<Displacing  20/coordinate 3 (-)>>>
             <<<Displacing  21/coordinate 2 (+)>>>
             <<<Displacing  21/coordinate 1 (-)>>>
             <<<Displacing  21/coordinate 3 (+)>>>
             <<<Displacing  21/coordinate 2 (-)>>>
             <<<Displacing  21/coordinate 3 (-)>>>
             <<<Displacing  22/coordinate 2 (+)>>>
             <<<Displacing  22/coordinate 3 (+)>>>
             <<<Displacing  22/coordinate 2 (-)>>>
             <<<Displacing  22/coordinate 1 (+)>>>
             <<<Displacing  23/coordinate 1 (+)>>>
             <<<Displacing  22/coordinate 3 (-)>>>
             <<<Displacing  22/coordinate 1 (-)>>>
             <<<Displacing  23/coordinate 2 (+)>>>
             <<<Displacing  23/coordinate 1 (-)>>>
             <<<Displacing  23/coordinate 2 (-)>>>
             <<<Displacing  23/coordinate 3 (+)>>>
             <<<Displacing  24/coordinate 3 (+)>>>
             <<<Displacing  23/coordinate 3 (-)>>>
             <<<Displacing  24/coordinate 1 (+)>>>
             <<<Displacing  24/coordinate 3 (-)>>>
             <<<Displacing  24/coordinate 2 (+)>>>
             <<<Displacing  24/coordinate 1 (-)>>>
             <<<Displacing  24/coordinate 2 (-)>>>
             <<<Displacing  25/coordinate 2 (+)>>>
             <<<Displacing  25/coordinate 1 (+)>>>
             <<<Displacing  25/coordinate 2 (-)>>>
             <<<Displacing  26/coordinate 2 (+)>>>
             <<<Displacing  25/coordinate 1 (-)>>>
             <<<Displacing  26/coordinate 1 (+)>>>
             <<<Displacing  26/coordinate 2 (-)>>>
             <<<Displacing  25/coordinate 3 (+)>>>
             <<<Displacing  26/coordinate 1 (-)>>>
             <<<Displacing  25/coordinate 3 (-)>>>
             <<<Displacing  26/coordinate 3 (+)>>>
             <<<Displacing  27/coordinate 1 (+)>>>
             <<<Displacing  27/coordinate 2 (+)>>>
             <<<Displacing  27/coordinate 1 (-)>>>
             <<<Displacing  26/coordinate 3 (-)>>>
             <<<Displacing  27/coordinate 2 (-)>>>
             <<<Displacing  27/coordinate 3 (+)>>>
             <<<Displacing  27/coordinate 3 (-)>>>
             <<<Displacing  28/coordinate 1 (+)>>>
             <<<Displacing  28/coordinate 1 (-)>>>
             <<<Displacing  28/coordinate 3 (+)>>>
             <<<Displacing  28/coordinate 2 (+)>>>
             <<<Displacing  28/coordinate 3 (-)>>>
             <<<Displacing  28/coordinate 2 (-)>>>
             <<<Displacing  29/coordinate 1 (+)>>>
             <<<Displacing  29/coordinate 2 (+)>>>
             <<<Displacing  29/coordinate 1 (-)>>>
             <<<Displacing  29/coordinate 2 (-)>>>
             <<<Displacing  30/coordinate 2 (+)>>>
             <<<Displacing  30/coordinate 1 (+)>>>
             <<<Displacing  29/coordinate 3 (+)>>>
             <<<Displacing  30/coordinate 2 (-)>>>
             <<<Displacing  30/coordinate 1 (-)>>>
             <<<Displacing  29/coordinate 3 (-)>>>
             <<<Displacing  30/coordinate 3 (+)>>>
             <<<Displacing  30/coordinate 3 (-)>>>
             <<<Displacing  31/coordinate 1 (+)>>>
             <<<Displacing  31/coordinate 1 (-)>>>
             <<<Displacing  31/coordinate 2 (+)>>>
             <<<Displacing  31/coordinate 2 (-)>>>
             <<<Displacing  31/coordinate 3 (+)>>>
             <<<Displacing  32/coordinate 1 (+)>>>
             <<<Displacing  31/coordinate 3 (-)>>>
             <<<Displacing  32/coordinate 1 (-)>>>
             <<<Displacing  32/coordinate 2 (+)>>>
             <<<Displacing  32/coordinate 3 (+)>>>
             <<<Displacing  32/coordinate 2 (-)>>>
             <<<Displacing  32/coordinate 3 (-)>>>
             <<<Displacing  33/coordinate 2 (+)>>>
             <<<Displacing  33/coordinate 1 (+)>>>
             <<<Displacing  33/coordinate 1 (-)>>>
             <<<Displacing  33/coordinate 2 (-)>>>
             <<<Displacing  33/coordinate 3 (+)>>>
             <<<Displacing  33/coordinate 3 (-)>>>
             <<<Displacing  34/coordinate 2 (+)>>>
             <<<Displacing  34/coordinate 1 (+)>>>
             <<<Displacing  34/coordinate 2 (-)>>>
             <<<Displacing  34/coordinate 1 (-)>>>
             <<<Displacing  35/coordinate 1 (+)>>>
             <<<Displacing  34/coordinate 3 (+)>>>
             <<<Displacing  35/coordinate 1 (-)>>>
             <<<Displacing  34/coordinate 3 (-)>>>
             <<<Displacing  35/coordinate 2 (+)>>>
             <<<Displacing  35/coordinate 3 (+)>>>
             <<<Displacing  35/coordinate 2 (-)>>>
             <<<Displacing  35/coordinate 3 (-)>>>
             <<<Displacing  36/coordinate 2 (+)>>>
             <<<Displacing  36/coordinate 1 (+)>>>
             <<<Displacing  36/coordinate 2 (-)>>>
             <<<Displacing  36/coordinate 1 (-)>>>
             <<<Displacing  36/coordinate 3 (+)>>>
             <<<Displacing  36/coordinate 3 (-)>>>
             <<<Displacing  37/coordinate 2 (+)>>>
             <<<Displacing  37/coordinate 1 (+)>>>
             <<<Displacing  37/coordinate 2 (-)>>>
             <<<Displacing  37/coordinate 1 (-)>>>
             <<<Displacing  37/coordinate 3 (+)>>>
             <<<Displacing  38/coordinate 1 (+)>>>
             <<<Displacing  37/coordinate 3 (-)>>>
             <<<Displacing  38/coordinate 1 (-)>>>
             <<<Displacing  38/coordinate 2 (+)>>>
             <<<Displacing  38/coordinate 3 (+)>>>
             <<<Displacing  38/coordinate 3 (-)>>>
             <<<Displacing  38/coordinate 2 (-)>>>
             <<<Displacing  39/coordinate 1 (+)>>>
             <<<Displacing  39/coordinate 2 (+)>>>
             <<<Displacing  39/coordinate 1 (-)>>>
             <<<Displacing  39/coordinate 2 (-)>>>
             <<<Displacing  39/coordinate 3 (+)>>>
             <<<Displacing  40/coordinate 1 (+)>>>
             <<<Displacing  39/coordinate 3 (-)>>>
             <<<Displacing  40/coordinate 1 (-)>>>
             <<<Displacing  40/coordinate 2 (+)>>>
             <<<Displacing  40/coordinate 2 (-)>>>
             <<<Displacing  40/coordinate 3 (+)>>>
             <<<Displacing  41/coordinate 1 (+)>>>
             <<<Displacing  40/coordinate 3 (-)>>>
             <<<Displacing  41/coordinate 1 (-)>>>
             <<<Displacing  41/coordinate 3 (+)>>>
             <<<Displacing  41/coordinate 3 (-)>>>
             <<<Displacing  41/coordinate 2 (+)>>>
             <<<Displacing  41/coordinate 2 (-)>>>
             <<<Displacing  42/coordinate 2 (+)>>>
             <<<Displacing  42/coordinate 1 (+)>>>
             <<<Displacing  42/coordinate 2 (-)>>>
             <<<Displacing  42/coordinate 1 (-)>>>
             <<<Displacing  43/coordinate 1 (+)>>>
             <<<Displacing  42/coordinate 3 (+)>>>
             <<<Displacing  43/coordinate 1 (-)>>>
             <<<Displacing  42/coordinate 3 (-)>>>
             <<<Displacing  43/coordinate 2 (+)>>>
             <<<Displacing  43/coordinate 2 (-)>>>
             <<<Displacing  43/coordinate 3 (+)>>>
             <<<Displacing  43/coordinate 3 (-)>>>
             <<<Displacing  44/coordinate 1 (+)>>>
             <<<Displacing  44/coordinate 1 (-)>>>
             <<<Displacing  44/coordinate 2 (+)>>>
             <<<Displacing  44/coordinate 2 (-)>>>
             <<<Displacing  44/coordinate 3 (+)>>>
             <<<Displacing  44/coordinate 3 (-)>>>
             <<<Displacing  45/coordinate 1 (+)>>>
             <<<Displacing  45/coordinate 2 (+)>>>
             <<<Displacing  45/coordinate 1 (-)>>>
             <<<Displacing  45/coordinate 2 (-)>>>
             <<<Displacing  45/coordinate 3 (+)>>>
             <<<Displacing  46/coordinate 1 (+)>>>
             <<<Displacing  46/coordinate 1 (-)>>>
             <<<Displacing  45/coordinate 3 (-)>>>
             <<<Displacing  46/coordinate 2 (+)>>>
             <<<Displacing  46/coordinate 2 (-)>>>
             <<<Displacing  46/coordinate 3 (+)>>>
             <<<Displacing  46/coordinate 3 (-)>>>
             <<<Displacing  47/coordinate 1 (+)>>>
             <<<Displacing  47/coordinate 1 (-)>>>
             <<<Displacing  47/coordinate 2 (+)>>>
             <<<Displacing  47/coordinate 3 (+)>>>
             <<<Displacing  47/coordinate 2 (-)>>>
             <<<Displacing  47/coordinate 3 (-)>>>
             <<<Displacing  48/coordinate 1 (+)>>>
             <<<Displacing  48/coordinate 1 (-)>>>
             <<<Displacing  48/coordinate 2 (+)>>>
             <<<Displacing  48/coordinate 2 (-)>>>
             <<<Displacing  48/coordinate 3 (+)>>>
             <<<Displacing  48/coordinate 3 (-)>>>
             <<<Displacing  49/coordinate 1 (+)>>>
             <<<Displacing  49/coordinate 2 (+)>>>
             <<<Displacing  49/coordinate 1 (-)>>>
             <<<Displacing  49/coordinate 2 (-)>>>
             <<<Displacing  49/coordinate 3 (+)>>>
             <<<Displacing  49/coordinate 3 (-)>>>

-----------------------
VIBRATIONAL FREQUENCIES
-----------------------

Scaling factor for frequencies =  1.000000000 (already applied!)

   0:         0.00 cm**-1
   1:         0.00 cm**-1
   2:         0.00 cm**-1
   3:         0.00 cm**-1
   4:         0.00 cm**-1
   5:         0.00 cm**-1
   6:      -323.79 cm**-1 ***imaginary mode***
   7:        21.68 cm**-1
   8:        30.32 cm**-1
   9:        37.11 cm**-1
  10:        44.33 cm**-1
  11:        58.21 cm**-1
  12:        63.40 cm**-1
  13:        73.34 cm**-1
  14:        82.07 cm**-1
  15:        84.18 cm**-1
  16:        95.42 cm**-1
  17:        96.26 cm**-1
  18:       114.53 cm**-1
  19:       128.13 cm**-1
  20:       138.51 cm**-1
  21:       143.24 cm**-1
  22:       149.88 cm**-1
  23:       172.78 cm**-1
  24:       188.26 cm**-1
  25:       212.28 cm**-1
  26:       243.71 cm**-1
  27:       261.58 cm**-1
  28:       267.09 cm**-1
  29:       268.10 cm**-1
  30:       275.34 cm**-1
  31:       306.09 cm**-1
  32:       366.14 cm**-1
  33:       377.21 cm**-1
  34:       392.08 cm**-1
  35:       408.45 cm**-1
  36:       429.34 cm**-1
  37:       448.17 cm**-1
  38:       480.09 cm**-1
  39:       498.43 cm**-1
  40:       514.88 cm**-1
  41:       569.78 cm**-1
  42:       588.51 cm**-1
  43:       612.42 cm**-1
  44:       660.00 cm**-1
  45:       665.11 cm**-1
  46:       689.00 cm**-1
  47:       754.83 cm**-1
  48:       768.74 cm**-1
  49:       772.86 cm**-1
  50:       774.62 cm**-1
  51:       822.45 cm**-1
  52:       824.92 cm**-1
  53:       838.62 cm**-1
  54:       856.71 cm**-1
  55:       876.28 cm**-1
  56:       913.96 cm**-1
  57:       931.89 cm**-1
  58:       935.46 cm**-1
  59:       940.95 cm**-1
  60:       942.04 cm**-1
  61:       945.46 cm**-1
  62:       946.71 cm**-1
  63:       966.49 cm**-1
  64:       986.70 cm**-1
  65:      1008.26 cm**-1
  66:      1030.26 cm**-1
  67:      1046.25 cm**-1
  68:      1070.60 cm**-1
  69:      1078.10 cm**-1
  70:      1093.38 cm**-1
  71:      1100.52 cm**-1
  72:      1103.76 cm**-1
  73:      1116.56 cm**-1
  74:      1125.00 cm**-1
  75:      1128.55 cm**-1
  76:      1131.71 cm**-1
  77:      1179.43 cm**-1
  78:      1183.29 cm**-1
  79:      1184.68 cm**-1
  80:      1204.47 cm**-1
  81:      1208.21 cm**-1
  82:      1216.43 cm**-1
  83:      1242.37 cm**-1
  84:      1247.73 cm**-1
  85:      1257.09 cm**-1
  86:      1274.66 cm**-1
  87:      1276.21 cm**-1
  88:      1278.19 cm**-1
  89:      1281.76 cm**-1
  90:      1296.62 cm**-1
  91:      1297.62 cm**-1
  92:      1310.66 cm**-1
  93:      1332.47 cm**-1
  94:      1349.11 cm**-1
  95:      1354.71 cm**-1
  96:      1361.26 cm**-1
  97:      1366.94 cm**-1
  98:      1378.84 cm**-1
  99:      1420.20 cm**-1
 100:      1428.70 cm**-1
 101:      1428.82 cm**-1
 102:      1450.38 cm**-1
 103:      1452.38 cm**-1
 104:      1463.20 cm**-1
 105:      1492.59 cm**-1
 106:      1503.58 cm**-1
 107:      1504.37 cm**-1
 108:      1506.24 cm**-1
 109:      1507.31 cm**-1
 110:      1508.13 cm**-1
 111:      1509.74 cm**-1
 112:      1510.19 cm**-1
 113:      1512.94 cm**-1
 114:      1530.87 cm**-1
 115:      1561.14 cm**-1
 116:      1564.55 cm**-1
 117:      1628.44 cm**-1
 118:      2736.65 cm**-1
 119:      2881.88 cm**-1
 120:      2932.49 cm**-1
 121:      2944.87 cm**-1
 122:      2948.03 cm**-1
 123:      2959.03 cm**-1
 124:      2964.85 cm**-1
 125:      2966.23 cm**-1
 126:      2971.19 cm**-1
 127:      2975.71 cm**-1
 128:      2979.97 cm**-1
 129:      2981.41 cm**-1
 130:      2983.10 cm**-1
 131:      2985.16 cm**-1
 132:      2985.86 cm**-1
 133:      2991.85 cm**-1
 134:      2997.66 cm**-1
 135:      3001.60 cm**-1
 136:      3014.94 cm**-1
 137:      3049.75 cm**-1
 138:      3063.01 cm**-1
 139:      3066.49 cm**-1
 140:      3072.22 cm**-1
 141:      3079.48 cm**-1
 142:      3089.81 cm**-1
 143:      3096.03 cm**-1
 144:      3403.84 cm**-1
 145:      3610.38 cm**-1
 146:      3639.01 cm**-1


------------
NORMAL MODES
------------

These modes are the cartesian displacements weighted by the diagonal matrix
M(i,i)=1/sqrt(m[i]) where m[i] is the mass of the displaced atom
Thus, these vectors are normalized but *not* orthogonal

                  0          1          2          3          4          5    
      0       0.000000   0.000000   0.000000   0.000000   0.000000   0.000000
      1       0.000000   0.000000   0.000000   0.000000   0.000000   0.000000
      2       0.000000   0.000000   0.000000   0.000000   0.000000   0.000000
      3       0.000000   0.000000   0.000000   0.000000   0.000000   0.000000
      4       0.000000   0.000000   0.000000   0.000000   0.000000   0.000000
      5       0.000000   0.000000   0.000000   0.000000   0.000000   0.000000
      6       0.000000   0.000000   0.000000   0.000000   0.000000   0.000000
      7       0.000000   0.000000   0.000000   0.000000   0.000000   0.000000
      8       0.000000   0.000000   0.000000   0.000000   0.000000   0.000000
      9       0.000000   0.000000   0.000000   0.000000   0.000000   0.000000
     10       0.000000   0.000000   0.000000   0.000000   0.000000   0.000000
     11       0.000000   0.000000   0.000000   0.000000   0.000000   0.000000
     12       0.000000   0.000000   0.000000   0.000000   0.000000   0.000000
     13       0.000000   0.000000   0.000000   0.000000   0.000000   0.000000
     14       0.000000   0.000000   0.000000   0.000000   0.000000   0.000000
     15       0.000000   0.000000   0.000000   0.000000   0.000000   0.000000
     16       0.000000   0.000000   0.000000   0.000000   0.000000   0.000000
     17       0.000000   0.000000   0.000000   0.000000   0.000000   0.000000
     18       0.000000   0.000000   0.000000   0.000000   0.000000   0.000000
     19       0.000000   0.000000   0.000000   0.000000   0.000000   0.000000
     20       0.000000   0.000000   0.000000   0.000000   0.000000   0.000000
     21       0.000000   0.000000   0.000000   0.000000   0.000000   0.000000
     22       0.000000   0.000000   0.000000   0.000000   0.000000   0.000000
     23       0.000000   0.000000   0.000000   0.000000   0.000000   0.000000
     24       0.000000   0.000000   0.000000   0.000000   0.000000   0.000000
     25       0.000000   0.000000   0.000000   0.000000   0.000000   0.000000
     26       0.000000   0.000000   0.000000   0.000000   0.000000   0.000000
     27       0.000000   0.000000   0.000000   0.000000   0.000000   0.000000
     28       0.000000   0.000000   0.000000   0.000000   0.000000   0.000000
     29       0.000000   0.000000   0.000000   0.000000   0.000000   0.000000
     30       0.000000   0.000000   0.000000   0.000000   0.000000   0.000000
     31       0.000000   0.000000   0.000000   0.000000   0.000000   0.000000
     32       0.000000   0.000000   0.000000   0.000000   0.000000   0.000000
     33       0.000000   0.000000   0.000000   0.000000   0.000000   0.000000
     34       0.000000   0.000000   0.000000   0.000000   0.000000   0.000000
     35       0.000000   0.000000   0.000000   0.000000   0.000000   0.000000
     36       0.000000   0.000000   0.000000   0.000000   0.000000   0.000000
     37       0.000000   0.000000   0.000000   0.000000   0.000000   0.000000
     38       0.000000   0.000000   0.000000   0.000000   0.000000   0.000000
     39       0.000000   0.000000   0.000000   0.000000   0.000000   0.000000
     40       0.000000   0.000000   0.000000   0.000000   0.000000   0.000000
     41       0.000000   0.000000   0.000000   0.000000   0.000000   0.000000
     42       0.000000   0.000000   0.000000   0.000000   0.000000   0.000000
     43       0.000000   0.000000   0.000000   0.000000   0.000000   0.000000
     44       0.000000   0.000000   0.000000   0.000000   0.000000   0.000000
     45       0.000000   0.000000   0.000000   0.000000   0.000000   0.000000
     46       0.000000   0.000000   0.000000   0.000000   0.000000   0.000000
     47       0.000000   0.000000   0.000000   0.000000   0.000000   0.000000
     48       0.000000   0.000000   0.000000   0.000000   0.000000   0.000000
     49       0.000000   0.000000   0.000000   0.000000   0.000000   0.000000
     50       0.000000   0.000000   0.000000   0.000000   0.000000   0.000000
     51       0.000000   0.000000   0.000000   0.000000   0.000000   0.000000
     52       0.000000   0.000000   0.000000   0.000000   0.000000   0.000000
     53       0.000000   0.000000   0.000000   0.000000   0.000000   0.000000
     54       0.000000   0.000000   0.000000   0.000000   0.000000   0.000000
     55       0.000000   0.000000   0.000000   0.000000   0.000000   0.000000
     56       0.000000   0.000000   0.000000   0.000000   0.000000   0.000000
     57       0.000000   0.000000   0.000000   0.000000   0.000000   0.000000
     58       0.000000   0.000000   0.000000   0.000000   0.000000   0.000000
     59       0.000000   0.000000   0.000000   0.000000   0.000000   0.000000
     60       0.000000   0.000000   0.000000   0.000000   0.000000   0.000000
     61       0.000000   0.000000   0.000000   0.000000   0.000000   0.000000
     62       0.000000   0.000000   0.000000   0.000000   0.000000   0.000000
     63       0.000000   0.000000   0.000000   0.000000   0.000000   0.000000
     64       0.000000   0.000000   0.000000   0.000000   0.000000   0.000000
     65       0.000000   0.000000   0.000000   0.000000   0.000000   0.000000
     66       0.000000   0.000000   0.000000   0.000000   0.000000   0.000000
     67       0.000000   0.000000   0.000000   0.000000   0.000000   0.000000
     68       0.000000   0.000000   0.000000   0.000000   0.000000   0.000000
     69       0.000000   0.000000   0.000000   0.000000   0.000000   0.000000
     70       0.000000   0.000000   0.000000   0.000000   0.000000   0.000000
     71       0.000000   0.000000   0.000000   0.000000   0.000000   0.000000
     72       0.000000   0.000000   0.000000   0.000000   0.000000   0.000000
     73       0.000000   0.000000   0.000000   0.000000   0.000000   0.000000
     74       0.000000   0.000000   0.000000   0.000000   0.000000   0.000000
     75       0.000000   0.000000   0.000000   0.000000   0.000000   0.000000
     76       0.000000   0.000000   0.000000   0.000000   0.000000   0.000000
     77       0.000000   0.000000   0.000000   0.000000   0.000000   0.000000
     78       0.000000   0.000000   0.000000   0.000000   0.000000   0.000000
     79       0.000000   0.000000   0.000000   0.000000   0.000000   0.000000
     80       0.000000   0.000000   0.000000   0.000000   0.000000   0.000000
     81       0.000000   0.000000   0.000000   0.000000   0.000000   0.000000
     82       0.000000   0.000000   0.000000   0.000000   0.000000   0.000000
     83       0.000000   0.000000   0.000000   0.000000   0.000000   0.000000
     84       0.000000   0.000000   0.000000   0.000000   0.000000   0.000000
     85       0.000000   0.000000   0.000000   0.000000   0.000000   0.000000
     86       0.000000   0.000000   0.000000   0.000000   0.000000   0.000000
     87       0.000000   0.000000   0.000000   0.000000   0.000000   0.000000
     88       0.000000   0.000000   0.000000   0.000000   0.000000   0.000000
     89       0.000000   0.000000   0.000000   0.000000   0.000000   0.000000
     90       0.000000   0.000000   0.000000   0.000000   0.000000   0.000000
     91       0.000000   0.000000   0.000000   0.000000   0.000000   0.000000
     92       0.000000   0.000000   0.000000   0.000000   0.000000   0.000000
     93       0.000000   0.000000   0.000000   0.000000   0.000000   0.000000
     94       0.000000   0.000000   0.000000   0.000000   0.000000   0.000000
     95       0.000000   0.000000   0.000000   0.000000   0.000000   0.000000
     96       0.000000   0.000000   0.000000   0.000000   0.000000   0.000000
     97       0.000000   0.000000   0.000000   0.000000   0.000000   0.000000
     98       0.000000   0.000000   0.000000   0.000000   0.000000   0.000000
     99       0.000000   0.000000   0.000000   0.000000   0.000000   0.000000
    100       0.000000   0.000000   0.000000   0.000000   0.000000   0.000000
    101       0.000000   0.000000   0.000000   0.000000   0.000000   0.000000
    102       0.000000   0.000000   0.000000   0.000000   0.000000   0.000000
    103       0.000000   0.000000   0.000000   0.000000   0.000000   0.000000
    104       0.000000   0.000000   0.000000   0.000000   0.000000   0.000000
    105       0.000000   0.000000   0.000000   0.000000   0.000000   0.000000
    106       0.000000   0.000000   0.000000   0.000000   0.000000   0.000000
    107       0.000000   0.000000   0.000000   0.000000   0.000000   0.000000
    108       0.000000   0.000000   0.000000   0.000000   0.000000   0.000000
    109       0.000000   0.000000   0.000000   0.000000   0.000000   0.000000
    110       0.000000   0.000000   0.000000   0.000000   0.000000   0.000000
    111       0.000000   0.000000   0.000000   0.000000   0.000000   0.000000
    112       0.000000   0.000000   0.000000   0.000000   0.000000   0.000000
    113       0.000000   0.000000   0.000000   0.000000   0.000000   0.000000
    114       0.000000   0.000000   0.000000   0.000000   0.000000   0.000000
    115       0.000000   0.000000   0.000000   0.000000   0.000000   0.000000
    116       0.000000   0.000000   0.000000   0.000000   0.000000   0.000000
    117       0.000000   0.000000   0.000000   0.000000   0.000000   0.000000
    118       0.000000   0.000000   0.000000   0.000000   0.000000   0.000000
    119       0.000000   0.000000   0.000000   0.000000   0.000000   0.000000
    120       0.000000   0.000000   0.000000   0.000000   0.000000   0.000000
    121       0.000000   0.000000   0.000000   0.000000   0.000000   0.000000
    122       0.000000   0.000000   0.000000   0.000000   0.000000   0.000000
    123       0.000000   0.000000   0.000000   0.000000   0.000000   0.000000
    124       0.000000   0.000000   0.000000   0.000000   0.000000   0.000000
    125       0.000000   0.000000   0.000000   0.000000   0.000000   0.000000
    126       0.000000   0.000000   0.000000   0.000000   0.000000   0.000000
    127       0.000000   0.000000   0.000000   0.000000   0.000000   0.000000
    128       0.000000   0.000000   0.000000   0.000000   0.000000   0.000000
    129       0.000000   0.000000   0.000000   0.000000   0.000000   0.000000
    130       0.000000   0.000000   0.000000   0.000000   0.000000   0.000000
    131       0.000000   0.000000   0.000000   0.000000   0.000000   0.000000
    132       0.000000   0.000000   0.000000   0.000000   0.000000   0.000000
    133       0.000000   0.000000   0.000000   0.000000   0.000000   0.000000
    134       0.000000   0.000000   0.000000   0.000000   0.000000   0.000000
    135       0.000000   0.000000   0.000000   0.000000   0.000000   0.000000
    136       0.000000   0.000000   0.000000   0.000000   0.000000   0.000000
    137       0.000000   0.000000   0.000000   0.000000   0.000000   0.000000
    138       0.000000   0.000000   0.000000   0.000000   0.000000   0.000000
    139       0.000000   0.000000   0.000000   0.000000   0.000000   0.000000
    140       0.000000   0.000000   0.000000   0.000000   0.000000   0.000000
    141       0.000000   0.000000   0.000000   0.000000   0.000000   0.000000
    142       0.000000   0.000000   0.000000   0.000000   0.000000   0.000000
    143       0.000000   0.000000   0.000000   0.000000   0.000000   0.000000
    144       0.000000   0.000000   0.000000   0.000000   0.000000   0.000000
    145       0.000000   0.000000   0.000000   0.000000   0.000000   0.000000
    146       0.000000   0.000000   0.000000   0.000000   0.000000   0.000000
                  6          7          8          9         10         11    
      0       0.034164  -0.019849   0.014142  -0.092273  -0.001385  -0.007589
      1       0.050109   0.003822   0.003736   0.004007   0.008048  -0.015616
      2      -0.042250   0.027890   0.021217   0.005731  -0.016750   0.016506
      3       0.013760  -0.048098   0.017578  -0.104191   0.027147  -0.022587
      4       0.008613  -0.016301   0.011710   0.002151  -0.010001  -0.112791
      5      -0.031400   0.026675   0.018002   0.001442   0.007065   0.067657
      6      -0.003189  -0.071488   0.020192  -0.112641   0.034083   0.000874
      7      -0.012742  -0.024047   0.017020   0.014882  -0.099630  -0.083695
      8      -0.008906   0.046153   0.014883   0.004567   0.022950   0.043577
      9      -0.003865  -0.068225   0.019729  -0.108440   0.011145   0.039651
     10      -0.005235  -0.013487   0.015562   0.029007  -0.173574   0.040682
     11       0.005968   0.067178   0.014502   0.012762   0.014513  -0.031181
     12       0.002038  -0.041156   0.016851  -0.097594  -0.017966   0.053783
     13      -0.006762   0.004759   0.009593   0.026889  -0.156220   0.130578
     14       0.011594   0.068877   0.016843   0.019235  -0.009918  -0.079964
     15       0.016468  -0.017168   0.014070  -0.089994  -0.024386   0.030029
     16       0.015719   0.014163   0.003741   0.012717  -0.066151   0.102513
     17      -0.004419   0.049143   0.020197   0.016927  -0.026288  -0.055804
     18       0.095236   0.008342   0.010498  -0.084828  -0.015805  -0.021612
     19       0.169101   0.010250  -0.004656  -0.005396   0.080120  -0.023671
     20      -0.145128   0.005798   0.025381   0.002841  -0.025866   0.027476
     21       0.017304  -0.050987   0.018155  -0.108593   0.044813  -0.053161
     22       0.019911  -0.024621   0.013931  -0.014218   0.047886  -0.213470
     23      -0.040463   0.010525   0.018388  -0.001478   0.010894   0.128380
     24       0.028988   0.003820   0.011771  -0.081313  -0.046917   0.039551
     25       0.026325   0.029397  -0.001039   0.011099  -0.052676   0.174347
     26      -0.006336   0.049883   0.022051   0.021752  -0.044691  -0.094539
     27      -0.009378  -0.086872   0.021655  -0.114086   0.016227   0.057830
     28      -0.003370  -0.019602   0.019426   0.039144  -0.242526   0.063616
     29       0.009877   0.082299   0.012173   0.014492   0.027107  -0.049888
     30       0.013099   0.002813   0.008896  -0.068908  -0.016760  -0.026966
     31      -0.010115  -0.024362  -0.010358   0.062257   0.085620  -0.042359
     32      -0.017269  -0.010908   0.030965  -0.027151   0.000639   0.041268
     33      -0.007112   0.033351   0.000614  -0.069822  -0.045331  -0.019835
     34      -0.006279  -0.026124  -0.013814   0.044747   0.080910  -0.037917
     35      -0.014935  -0.030791   0.036982  -0.021347   0.020500   0.033907
     36       0.035261  -0.013754   0.013503  -0.032946  -0.008421  -0.024004
     37      -0.058857  -0.019865   0.001976   0.119349   0.080341  -0.032868
     38       0.002785  -0.026923   0.021337  -0.055557   0.015676   0.037896
     39       0.001352   0.008139  -0.034923  -0.055519   0.024079  -0.059185
     40      -0.008848   0.001811   0.053995   0.024450  -0.014929   0.020501
     41      -0.001700  -0.063682   0.056890  -0.009124   0.064817   0.016288
     42      -0.005002   0.043626  -0.022493  -0.064692  -0.039186  -0.029741
     43      -0.014276  -0.047171  -0.059919   0.047835   0.139190  -0.079562
     44      -0.005228  -0.002162   0.055531  -0.019576  -0.025244   0.060747
     45      -0.038887   0.069667   0.044182  -0.087324  -0.128913   0.030807
     46      -0.038282  -0.026910  -0.016560   0.034702   0.078768  -0.038534
     47      -0.051035  -0.050363   0.010454  -0.029918   0.056780   0.008553
     48       0.008016   0.001726   0.025401  -0.089528  -0.000497  -0.091369
     49      -0.007444   0.012642   0.068644   0.043446  -0.051830   0.089880
     50       0.002434  -0.076926   0.092421  -0.051250   0.074089  -0.063826
     51       0.002790  -0.024980  -0.079012  -0.034354   0.113783  -0.109758
     52      -0.006588  -0.005334   0.022760   0.058091   0.013527   0.049519
     53       0.000918  -0.058241   0.020560   0.045528   0.069161   0.104043
     54      -0.108438  -0.038630  -0.003833   0.005252  -0.040715  -0.061918
     55      -0.172964   0.077549   0.002289  -0.112143   0.179132   0.005250
     56       0.167799   0.113286   0.035967  -0.088033   0.095330   0.050198
     57       0.054171   0.035773   0.008582  -0.102117  -0.029592  -0.019287
     58       0.074361   0.025675  -0.009829  -0.056699   0.107011  -0.010059
     59      -0.082182   0.009390   0.028477   0.035031  -0.057291   0.017327
     60      -0.070555  -0.164474  -0.042527   0.093859  -0.114039  -0.092065
     61      -0.159227   0.170191   0.036700  -0.169119   0.210052   0.032040
     62       0.119770   0.159884   0.046018  -0.126730   0.139288   0.058070
     63       0.079982  -0.150617  -0.037065   0.140436  -0.096331  -0.091850
     64       0.007422  -0.120437  -0.057700   0.111556   0.082961  -0.050295
     65      -0.056905  -0.254406  -0.092341   0.032115  -0.081825  -0.031174
     66      -0.652488  -0.086362  -0.017755   0.072254  -0.059262  -0.080121
     67       0.292726  -0.029900  -0.030423   0.004603   0.122353  -0.022284
     68       0.048307  -0.074562  -0.029762  -0.027528   0.004420   0.007178
     69       0.267715  -0.115134  -0.024761   0.173733  -0.073060  -0.088321
     70      -0.146045  -0.062907  -0.046328   0.069235   0.128025  -0.039620
     71      -0.244765  -0.153123  -0.071012  -0.027083  -0.003595  -0.013148
     72      -0.017368  -0.011068   0.022357   0.084211   0.009142   0.072966
     73       0.151979  -0.046289  -0.004481   0.126928   0.067153  -0.018231
     74       0.194793  -0.186487  -0.050052   0.003049  -0.059082   0.063913
     75      -0.096527   0.091737   0.020396   0.109948   0.008808   0.131496
     76      -0.062914   0.067558   0.043243   0.058116   0.111124  -0.077085
     77       0.155953  -0.174605  -0.052772   0.015864  -0.058308   0.087363
     78      -0.003423   0.034598  -0.099919  -0.021170   0.009532   0.012791
     79      -0.005067   0.022892   0.145233  -0.069084  -0.100746  -0.054861
     80       0.001191  -0.086900   0.082429  -0.012347   0.094614  -0.017667
     81      -0.004243   0.057993  -0.055808  -0.044372  -0.062936   0.042362
     82      -0.004299   0.030428   0.176906  -0.102781  -0.129949  -0.082774
     83       0.003166  -0.085792   0.120489  -0.067533   0.078761  -0.093271
     84      -0.004809   0.046202  -0.164567   0.011500   0.024743   0.055060
     85      -0.004299   0.022215   0.127840  -0.088307  -0.081314  -0.102632
     86      -0.001086  -0.077168   0.043477   0.027863   0.092625   0.050964
     87      -0.001065  -0.038939   0.016740  -0.095037  -0.035258   0.082035
     88      -0.019138   0.011850   0.009246   0.034883  -0.210918   0.220103
     89       0.021696   0.085201   0.016060   0.026303  -0.016172  -0.136137
     90      -0.018284  -0.092463   0.022505  -0.122721   0.057185  -0.010621
     91      -0.024615  -0.038580   0.022405   0.012973  -0.112653  -0.157232
     92      -0.008096   0.045150   0.012685   0.000946   0.041852   0.083141
     93      -0.004150   0.017298  -0.138067  -0.001531   0.068251  -0.008330
     94      -0.003043   0.034292   0.217130  -0.092985  -0.170952  -0.032418
     95      -0.000769  -0.124553   0.111360   0.005001   0.147384  -0.042781
     96      -0.005468   0.036593  -0.176675   0.011959   0.052549   0.030976
     97      -0.002725   0.047521   0.262223  -0.140282  -0.219579  -0.064794
     98      -0.000337  -0.140135   0.127330   0.006153   0.168116  -0.061914
     99      -0.005153  -0.003315  -0.180449   0.020509   0.137110  -0.034539
    100      -0.003699   0.028184   0.196487  -0.070510  -0.148617  -0.016347
    101      -0.001126  -0.125771   0.091180   0.041008   0.155743   0.007606
    102      -0.002676   0.006019  -0.084080  -0.022998   0.057885  -0.036948
    103      -0.003467   0.035212   0.244962  -0.085097  -0.195063   0.000229
    104       0.000945  -0.135296   0.138422  -0.019975   0.156452  -0.092819
    105      -0.014348   0.021103   0.029309   0.084692   0.019757   0.074527
    106       0.007108  -0.014172  -0.018764   0.093841   0.049991   0.091296
    107       0.010028  -0.037305  -0.043779   0.034479  -0.052005   0.088158
    108       0.026123  -0.033081   0.049089   0.067112   0.037453   0.045323
    109      -0.008116  -0.052372  -0.020286   0.171456   0.024514   0.238149
    110       0.012210  -0.009675  -0.045902  -0.001318  -0.042117   0.019445
    111      -0.037658   0.004873   0.003445   0.056191   0.002396   0.127181
    112      -0.002082  -0.021702  -0.028109   0.093442   0.040980   0.124554
    113      -0.001569  -0.055495  -0.045070   0.135127  -0.080960   0.240043
    114      -0.010101   0.094672   0.038910   0.139373   0.019804   0.037279
    115      -0.002969   0.017015  -0.042706  -0.018531   0.059399  -0.017745
    116       0.000035   0.041049  -0.052119   0.002076  -0.046282  -0.014434
    117      -0.005057   0.098635   0.101332   0.189588   0.051945  -0.012409
    118      -0.001286   0.018367  -0.015572  -0.008359   0.075704  -0.050118
    119      -0.005617   0.040993  -0.009950  -0.073855  -0.002763  -0.149833
    120      -0.013322   0.162713  -0.028356   0.135573  -0.021301   0.051041
    121      -0.009020   0.042111  -0.007543  -0.076866   0.096697  -0.155838
    122       0.003834   0.017549  -0.059907   0.032441  -0.059120   0.054066
    123      -0.008258   0.071748   0.053468   0.134095   0.029754   0.040035
    124      -0.003425   0.012587  -0.150723  -0.066110  -0.002950   0.100725
    125      -0.000751   0.144160  -0.107787   0.031867  -0.085409  -0.037549
    126      -0.010240   0.066114  -0.011997   0.089308  -0.005438   0.092830
    127      -0.004055   0.011656  -0.177672  -0.077170  -0.018525   0.131449
    128       0.000531   0.155880  -0.142417   0.086769  -0.115704   0.086289
    129      -0.009181   0.006881   0.122904   0.133374   0.073622   0.029388
    130      -0.005292   0.000944  -0.179391  -0.027102  -0.027085   0.230514
    131       0.000557   0.159199  -0.104045   0.013029  -0.080067  -0.099282
    132      -0.004782   0.139591   0.063431   0.187314   0.028835  -0.011501
    133      -0.003249   0.025007  -0.184875  -0.146921  -0.012567   0.011204
    134       0.000906   0.206039  -0.124224   0.016341  -0.093143  -0.141757
    135      -0.002942   0.148483   0.110717   0.230665   0.052855  -0.046859
    136      -0.002742   0.027341  -0.168401  -0.137634  -0.003319  -0.009484
    137       0.001386   0.200469  -0.108990  -0.033704  -0.075733  -0.245078
    138      -0.003551   0.195428   0.016135   0.187712  -0.001156  -0.019888
    139      -0.003172   0.039167  -0.173646  -0.183865   0.000377  -0.097266
    140       0.000897   0.193714  -0.125017   0.034145  -0.096460  -0.088518
    141      -0.005702   0.123978   0.070432   0.182142   0.033997  -0.005434
    142      -0.005967   0.017386  -0.237142  -0.177495  -0.041713   0.075101
    143       0.004148   0.268408  -0.150525   0.037929  -0.112774  -0.167818
    144      -0.027915   0.039237   0.029238   0.092208   0.018964   0.074318
    145       0.036243   0.010901   0.015259   0.099174   0.082668  -0.019658
    146       0.069899  -0.122520  -0.035897  -0.006707  -0.041519   0.063739
                 12         13         14         15         16         17    
      0       0.006986   0.025855  -0.016312   0.009932   0.031242  -0.016160
      1       0.009473   0.020178  -0.014729   0.027040   0.034409  -0.014373
      2      -0.040392  -0.026978  -0.028378  -0.044430   0.030942   0.003478
      3      -0.088887   0.005739  -0.001454  -0.031086   0.035264  -0.011928
      4      -0.141837   0.041482   0.090780   0.042064   0.041253  -0.001088
      5       0.006341  -0.048589  -0.086276  -0.071061   0.029535  -0.002703
      6      -0.142282  -0.030472  -0.003928  -0.081720   0.020848  -0.004571
      7      -0.156732   0.013227   0.143033   0.028160   0.001391   0.023061
      8       0.049317  -0.015459  -0.096914  -0.031110   0.049967  -0.013975
      9      -0.100851  -0.046952  -0.024248  -0.092090   0.005594  -0.001715
     10      -0.023199  -0.039552   0.079013  -0.004383  -0.047450   0.032474
     11       0.045930   0.041193  -0.045708   0.038291   0.075941  -0.018763
     12      -0.006868  -0.026763  -0.043067  -0.050574   0.005689  -0.008110
     13       0.122251  -0.058740  -0.037168  -0.013416  -0.045444   0.012784
     14       0.000969   0.062663   0.016900   0.063647   0.075221  -0.009669
     15       0.045995   0.010238  -0.037374   0.001612   0.020255  -0.015528
     16       0.137996  -0.027705  -0.079815   0.004778  -0.001051  -0.011205
     17      -0.041600   0.027974   0.022757   0.020552   0.053079   0.001421
     18       0.054435   0.049656  -0.001168   0.040094   0.024789  -0.015463
     19       0.019882   0.023438  -0.028066   0.017730   0.019318  -0.008881
     20      -0.077510  -0.043264  -0.035230  -0.062181   0.034886   0.001667
     21      -0.121685   0.016782   0.014121  -0.022110   0.044199  -0.013838
     22      -0.248267   0.077866   0.138941   0.071426   0.069005  -0.007663
     23       0.014175  -0.090764  -0.128630  -0.123235   0.014924   0.001439
     24       0.115871   0.026740  -0.047002   0.034599   0.022867  -0.019743
     25       0.249381  -0.043731  -0.162833  -0.004922  -0.006648  -0.022770
     26      -0.076196   0.045257   0.068416   0.041630   0.057189   0.006521
     27      -0.142365  -0.075264  -0.025057  -0.131464  -0.007596   0.005362
     28      -0.035993  -0.064428   0.119785  -0.020409  -0.085938   0.053873
     29       0.079399   0.067798  -0.054795   0.070915   0.094636  -0.029008
     30       0.050508   0.050051  -0.008978   0.030042   0.015778  -0.009299
     31      -0.010338   0.015034  -0.073697  -0.024334  -0.014715   0.017515
     32      -0.087422  -0.058749  -0.040928  -0.043952   0.053881  -0.003612
     33       0.038567   0.048322   0.001759   0.011876   0.033138  -0.022680
     34      -0.042178  -0.011621  -0.098890  -0.012519  -0.018247   0.046531
     35      -0.068697  -0.048132  -0.043173  -0.033770   0.043950  -0.002812
     36       0.030698   0.031468  -0.023974   0.039526   0.006891  -0.001444
     37      -0.021246  -0.008464  -0.075482  -0.076761   0.010566   0.015874
     38      -0.083654  -0.054676  -0.042235   0.004088   0.031390   0.005576
     39       0.055283   0.012503  -0.025356   0.046675   0.052437   0.037549
     40      -0.039239   0.071274  -0.050175  -0.065727  -0.060038  -0.056121
     41       0.004278   0.001196  -0.027784  -0.024682   0.016490  -0.008386
     42       0.026925   0.025358  -0.005001   0.016916   0.054938  -0.006500
     43      -0.055211  -0.081112  -0.143592   0.034344   0.017166   0.134373
     44      -0.068244  -0.008681  -0.010576  -0.069767   0.033904  -0.064493
     45       0.011542   0.095045   0.028235  -0.033081   0.006409  -0.098037
     46      -0.059104  -0.027118  -0.114145  -0.001931  -0.016693   0.066228
     47      -0.087342  -0.099668  -0.084160   0.005453   0.059151   0.070117
     48       0.119747   0.010277  -0.011270   0.085183   0.071152   0.092284
     49      -0.045272   0.178738  -0.004278  -0.141847  -0.123184  -0.193877
     50       0.060615  -0.084689  -0.052374   0.066897   0.079879   0.142649
     51       0.080009  -0.031794  -0.058155   0.089475   0.071733   0.115980
     52      -0.050797   0.118937  -0.040837  -0.106142  -0.098183  -0.125132
     53      -0.033424   0.122631   0.009782  -0.130537  -0.071284  -0.191812
     54       0.061435   0.066132  -0.008072  -0.036147  -0.233154   0.060827
     55       0.055584   0.031921   0.117742   0.029123  -0.067133  -0.004664
     56      -0.007195  -0.076490   0.199414  -0.111056  -0.186920   0.046793
     57       0.087378   0.063873   0.026259   0.059000   0.023018  -0.020193
     58       0.048527   0.030006  -0.008895   0.044617   0.001827  -0.008073
     59      -0.081076  -0.039649  -0.035750  -0.071715   0.048221  -0.001676
     60       0.063580   0.036761  -0.053252  -0.036499  -0.086270   0.020343
     61       0.035587   0.050206   0.097001   0.041803  -0.082816   0.007156
     62       0.005478  -0.063515   0.255630  -0.120184  -0.307866   0.074645
     63       0.073280  -0.009119  -0.016832  -0.120522  -0.084237   0.027566
     64       0.072526  -0.086278   0.097905  -0.100195   0.189326  -0.063503
     65       0.025318  -0.043165   0.101879   0.037133  -0.030579  -0.025101
     66       0.064525   0.010070   0.022543  -0.094690  -0.149214   0.036517
     67       0.067128  -0.022045   0.093729  -0.031385   0.060717  -0.032755
     68       0.009030  -0.057990   0.150288  -0.034849  -0.107201   0.009343
     69       0.081467  -0.061365   0.029733  -0.199292  -0.047476   0.024929
     70       0.095781  -0.119487   0.205419  -0.115772   0.177300  -0.072405
     71       0.064980  -0.110218   0.286562  -0.008220  -0.039869  -0.040178
     72       0.010822  -0.045311   0.076669   0.100041   0.015049   0.001735
     73      -0.051436   0.020628  -0.088724  -0.013333  -0.003043  -0.000037
     74      -0.050563   0.027733  -0.012706   0.176459  -0.038204  -0.004351
     75       0.012971   0.015656   0.091532   0.040695   0.024026   0.005590
     76      -0.114667  -0.032449  -0.108063   0.081230  -0.084482  -0.007658
     77      -0.044475   0.042273   0.000207   0.154102  -0.025619  -0.002235
[...]
  28:       267.09    0.000000  (  0.000000   0.000000   0.000000)
  29:       268.10    0.000000  (  0.000000   0.000000   0.000000)
  30:       275.34    0.000000  (  0.000000   0.000000   0.000000)
  31:       306.09    0.000000  (  0.000000   0.000000   0.000000)
  32:       366.14    0.000000  (  0.000000   0.000000   0.000000)
  33:       377.21    0.000000  (  0.000000   0.000000   0.000000)
  34:       392.08    0.000000  (  0.000000   0.000000   0.000000)
  35:       408.45    0.000000  (  0.000000   0.000000   0.000000)
  36:       429.34    0.000000  (  0.000000   0.000000   0.000000)
  37:       448.17    0.000000  (  0.000000   0.000000   0.000000)
  38:       480.09    0.000000  (  0.000000   0.000000   0.000000)
  39:       498.43    0.000000  (  0.000000   0.000000   0.000000)
  40:       514.88    0.000000  (  0.000000   0.000000   0.000000)
  41:       569.78    0.000000  (  0.000000   0.000000   0.000000)
  42:       588.51    0.000000  (  0.000000   0.000000   0.000000)
  43:       612.42    0.000000  (  0.000000   0.000000   0.000000)
  44:       660.00    0.000000  (  0.000000   0.000000   0.000000)
  45:       665.11    0.000000  (  0.000000   0.000000   0.000000)
  46:       689.00    0.000000  (  0.000000   0.000000   0.000000)
  47:       754.83    0.000000  (  0.000000   0.000000   0.000000)
  48:       768.74    0.000000  (  0.000000   0.000000   0.000000)
  49:       772.86    0.000000  (  0.000000   0.000000   0.000000)
  50:       774.62    0.000000  (  0.000000   0.000000   0.000000)
  51:       822.45    0.000000  (  0.000000   0.000000   0.000000)
  52:       824.92    0.000000  (  0.000000   0.000000   0.000000)
  53:       838.62    0.000000  (  0.000000   0.000000   0.000000)
  54:       856.71    0.000000  (  0.000000   0.000000   0.000000)
  55:       876.28    0.000000  (  0.000000   0.000000   0.000000)
  56:       913.96    0.000000  (  0.000000   0.000000   0.000000)
  57:       931.89    0.000000  (  0.000000   0.000000   0.000000)
  58:       935.46    0.000000  (  0.000000   0.000000   0.000000)
  59:       940.95    0.000000  (  0.000000   0.000000   0.000000)
  60:       942.04    0.000000  (  0.000000   0.000000   0.000000)
  61:       945.46    0.000000  (  0.000000   0.000000   0.000000)
  62:       946.71    0.000000  (  0.000000   0.000000   0.000000)
  63:       966.49    0.000000  (  0.000000   0.000000   0.000000)
  64:       986.70    0.000000  (  0.000000   0.000000   0.000000)
  65:      1008.26    0.000000  (  0.000000   0.000000   0.000000)
  66:      1030.26    0.000000  (  0.000000   0.000000   0.000000)
  67:      1046.25    0.000000  (  0.000000   0.000000   0.000000)
  68:      1070.60    0.000000  (  0.000000   0.000000   0.000000)
  69:      1078.10    0.000000  (  0.000000   0.000000   0.000000)
  70:      1093.38    0.000000  (  0.000000   0.000000   0.000000)
  71:      1100.52    0.000000  (  0.000000   0.000000   0.000000)
  72:      1103.76    0.000000  (  0.000000   0.000000   0.000000)
  73:      1116.56    0.000000  (  0.000000   0.000000   0.000000)
  74:      1125.00    0.000000  (  0.000000   0.000000   0.000000)
  75:      1128.55    0.000000  (  0.000000   0.000000   0.000000)
  76:      1131.71    0.000000  (  0.000000   0.000000   0.000000)
  77:      1179.43    0.000000  (  0.000000   0.000000   0.000000)
  78:      1183.29    0.000000  (  0.000000   0.000000   0.000000)
  79:      1184.68    0.000000  (  0.000000   0.000000   0.000000)
  80:      1204.47    0.000000  (  0.000000   0.000000   0.000000)
  81:      1208.21    0.000000  (  0.000000   0.000000   0.000000)
  82:      1216.43    0.000000  (  0.000000   0.000000   0.000000)
  83:      1242.37    0.000000  (  0.000000   0.000000   0.000000)
  84:      1247.73    0.000000  (  0.000000   0.000000   0.000000)
  85:      1257.09    0.000000  (  0.000000   0.000000   0.000000)
  86:      1274.66    0.000000  (  0.000000   0.000000   0.000000)
  87:      1276.21    0.000000  (  0.000000   0.000000   0.000000)
  88:      1278.19    0.000000  (  0.000000   0.000000   0.000000)
  89:      1281.76    0.000000  (  0.000000   0.000000   0.000000)
  90:      1296.62    0.000000  (  0.000000   0.000000   0.000000)
  91:      1297.62    0.000000  (  0.000000   0.000000   0.000000)
  92:      1310.66    0.000000  (  0.000000   0.000000   0.000000)
  93:      1332.47    0.000000  (  0.000000   0.000000   0.000000)
  94:      1349.11    0.000000  (  0.000000   0.000000   0.000000)
  95:      1354.71    0.000000  (  0.000000   0.000000   0.000000)
  96:      1361.26    0.000000  (  0.000000   0.000000   0.000000)
  97:      1366.94    0.000000  (  0.000000   0.000000   0.000000)
  98:      1378.84    0.000000  (  0.000000   0.000000   0.000000)
  99:      1420.20    0.000000  (  0.000000   0.000000   0.000000)
 100:      1428.70    0.000000  (  0.000000   0.000000   0.000000)
 101:      1428.82    0.000000  (  0.000000   0.000000   0.000000)
 102:      1450.38    0.000000  (  0.000000   0.000000   0.000000)
 103:      1452.38    0.000000  (  0.000000   0.000000   0.000000)
 104:      1463.20    0.000000  (  0.000000   0.000000   0.000000)
 105:      1492.59    0.000000  (  0.000000   0.000000   0.000000)
 106:      1503.58    0.000000  (  0.000000   0.000000   0.000000)
 107:      1504.37    0.000000  (  0.000000   0.000000   0.000000)
 108:      1506.24    0.000000  (  0.000000   0.000000   0.000000)
 109:      1507.31    0.000000  (  0.000000   0.000000   0.000000)
 110:      1508.13    0.000000  (  0.000000   0.000000   0.000000)
 111:      1509.74    0.000000  (  0.000000   0.000000   0.000000)
 112:      1510.19    0.000000  (  0.000000   0.000000   0.000000)
 113:      1512.94    0.000000  (  0.000000   0.000000   0.000000)
 114:      1530.87    0.000000  (  0.000000   0.000000   0.000000)
 115:      1561.14    0.000000  (  0.000000   0.000000   0.000000)
 116:      1564.55    0.000000  (  0.000000   0.000000   0.000000)
 117:      1628.44    0.000000  (  0.000000   0.000000   0.000000)
 118:      2736.65    0.000000  (  0.000000   0.000000   0.000000)
 119:      2881.88    0.000000  (  0.000000   0.000000   0.000000)
 120:      2932.49    0.000000  (  0.000000   0.000000   0.000000)
 121:      2944.87    0.000000  (  0.000000   0.000000   0.000000)
 122:      2948.03    0.000000  (  0.000000   0.000000   0.000000)
 123:      2959.03    0.000000  (  0.000000   0.000000   0.000000)
 124:      2964.85    0.000000  (  0.000000   0.000000   0.000000)
 125:      2966.23    0.000000  (  0.000000   0.000000   0.000000)
 126:      2971.19    0.000000  (  0.000000   0.000000   0.000000)
 127:      2975.71    0.000000  (  0.000000   0.000000   0.000000)
 128:      2979.97    0.000000  (  0.000000   0.000000   0.000000)
 129:      2981.41    0.000000  (  0.000000   0.000000   0.000000)
 130:      2983.10    0.000000  (  0.000000   0.000000   0.000000)
 131:      2985.16    0.000000  (  0.000000   0.000000   0.000000)
 132:      2985.86    0.000000  (  0.000000   0.000000   0.000000)
 133:      2991.85    0.000000  (  0.000000   0.000000   0.000000)
 134:      2997.66    0.000000  (  0.000000   0.000000   0.000000)
 135:      3001.60    0.000000  (  0.000000   0.000000   0.000000)
 136:      3014.94    0.000000  (  0.000000   0.000000   0.000000)
 137:      3049.75    0.000000  (  0.000000   0.000000   0.000000)
 138:      3063.01    0.000000  (  0.000000   0.000000   0.000000)
 139:      3066.49    0.000000  (  0.000000   0.000000   0.000000)
 140:      3072.22    0.000000  (  0.000000   0.000000   0.000000)
 141:      3079.48    0.000000  (  0.000000   0.000000   0.000000)
 142:      3089.81    0.000000  (  0.000000   0.000000   0.000000)
 143:      3096.03    0.000000  (  0.000000   0.000000   0.000000)
 144:      3403.84    0.000000  (  0.000000   0.000000   0.000000)
 145:      3610.38    0.000000  (  0.000000   0.000000   0.000000)
 146:      3639.01    0.000000  (  0.000000   0.000000   0.000000)

The first frequency considered to be a vibration is 7
The total number of vibrations considered is 140


--------------------------
THERMOCHEMISTRY AT 298.15K
--------------------------

Temperature         ... 298.15 K
Pressure            ... 1.00 atm
Total Mass          ... 270.42 AMU

Throughout the following assumptions are being made:
  (1) The electronic state is orbitally nondegenerate
  (2) There are no thermally accessible electronically excited states
  (3) Hindered rotations indicated by low frequency modes are not
      treated as such but are treated as vibrations and this may
      cause some error
  (4) All equations used are the standard statistical mechanics
      equations for an ideal gas
  (5) All vibrations are strictly harmonic

freq.      21.68  E(vib)   ...       0.56 
freq.      30.32  E(vib)   ...       0.55 
freq.      37.11  E(vib)   ...       0.54 
freq.      44.33  E(vib)   ...       0.53 
freq.      58.21  E(vib)   ...       0.51 
freq.      63.40  E(vib)   ...       0.51 
freq.      73.34  E(vib)   ...       0.49 
freq.      82.07  E(vib)   ...       0.48 
freq.      84.18  E(vib)   ...       0.48 
freq.      95.42  E(vib)   ...       0.47 
freq.      96.26  E(vib)   ...       0.47 
freq.     114.53  E(vib)   ...       0.44 
freq.     128.13  E(vib)   ...       0.43 
freq.     138.51  E(vib)   ...       0.42 
freq.     143.24  E(vib)   ...       0.41 
freq.     149.88  E(vib)   ...       0.40 
freq.     172.78  E(vib)   ...       0.38 
freq.     188.26  E(vib)   ...       0.36 
freq.     212.28  E(vib)   ...       0.34 
freq.     243.71  E(vib)   ...       0.31 
freq.     261.58  E(vib)   ...       0.30 
freq.     267.09  E(vib)   ...       0.29 
freq.     268.10  E(vib)   ...       0.29 
freq.     275.34  E(vib)   ...       0.28 
freq.     306.09  E(vib)   ...       0.26 
freq.     366.14  E(vib)   ...       0.22 
freq.     377.21  E(vib)   ...       0.21 
freq.     392.08  E(vib)   ...       0.20 
freq.     408.45  E(vib)   ...       0.19 
freq.     429.34  E(vib)   ...       0.18 
freq.     448.17  E(vib)   ...       0.17 
freq.     480.09  E(vib)   ...       0.15 
freq.     498.43  E(vib)   ...       0.14 
freq.     514.88  E(vib)   ...       0.13 
freq.     569.78  E(vib)   ...       0.11 
freq.     588.51  E(vib)   ...       0.10 
freq.     612.42  E(vib)   ...       0.10 
freq.     660.00  E(vib)   ...       0.08 
freq.     665.11  E(vib)   ...       0.08 
freq.     689.00  E(vib)   ...       0.07 
freq.     754.83  E(vib)   ...       0.06 
freq.     768.74  E(vib)   ...       0.06 
freq.     772.86  E(vib)   ...       0.05 
freq.     774.62  E(vib)   ...       0.05 
freq.     822.45  E(vib)   ...       0.05 
freq.     824.92  E(vib)   ...       0.04 
freq.     838.62  E(vib)   ...       0.04 
freq.     856.71  E(vib)   ...       0.04 
freq.     876.28  E(vib)   ...       0.04 
freq.     913.96  E(vib)   ...       0.03 
freq.     931.89  E(vib)   ...       0.03 
freq.     935.46  E(vib)   ...       0.03 
freq.     940.95  E(vib)   ...       0.03 
freq.     942.04  E(vib)   ...       0.03 
freq.     945.46  E(vib)   ...       0.03 
freq.     946.71  E(vib)   ...       0.03 
freq.     966.49  E(vib)   ...       0.03 
freq.     986.70  E(vib)   ...       0.02 
freq.    1008.26  E(vib)   ...       0.02 
freq.    1030.26  E(vib)   ...       0.02 
freq.    1046.25  E(vib)   ...       0.02 
freq.    1070.60  E(vib)   ...       0.02 
freq.    1078.10  E(vib)   ...       0.02 
freq.    1093.38  E(vib)   ...       0.02 
freq.    1100.52  E(vib)   ...       0.02 
freq.    1103.76  E(vib)   ...       0.02 
freq.    1116.56  E(vib)   ...       0.01 
freq.    1125.00  E(vib)   ...       0.01 
freq.    1128.55  E(vib)   ...       0.01 
freq.    1131.71  E(vib)   ...       0.01 
freq.    1179.43  E(vib)   ...       0.01 
freq.    1183.29  E(vib)   ...       0.01 
freq.    1184.68  E(vib)   ...       0.01 
freq.    1204.47  E(vib)   ...       0.01 
freq.    1208.21  E(vib)   ...       0.01 
freq.    1216.43  E(vib)   ...       0.01 
freq.    1242.37  E(vib)   ...       0.01 
freq.    1247.73  E(vib)   ...       0.01 
freq.    1257.09  E(vib)   ...       0.01 
freq.    1274.66  E(vib)   ...       0.01 
freq.    1276.21  E(vib)   ...       0.01 
freq.    1278.19  E(vib)   ...       0.01 
freq.    1281.76  E(vib)   ...       0.01 
freq.    1296.62  E(vib)   ...       0.01 
freq.    1297.62  E(vib)   ...       0.01 
freq.    1310.66  E(vib)   ...       0.01 
freq.    1332.47  E(vib)   ...       0.01 
freq.    1349.11  E(vib)   ...       0.01 
freq.    1354.71  E(vib)   ...       0.01 
freq.    1361.26  E(vib)   ...       0.01 
freq.    1366.94  E(vib)   ...       0.01 
freq.    1378.84  E(vib)   ...       0.01 
freq.    1420.20  E(vib)   ...       0.00 
freq.    1428.70  E(vib)   ...       0.00 
freq.    1428.82  E(vib)   ...       0.00 
freq.    1450.38  E(vib)   ...       0.00 
freq.    1452.38  E(vib)   ...       0.00 
freq.    1463.20  E(vib)   ...       0.00 
freq.    1492.59  E(vib)   ...       0.00 
freq.    1503.58  E(vib)   ...       0.00 
freq.    1504.37  E(vib)   ...       0.00 
freq.    1506.24  E(vib)   ...       0.00 
freq.    1507.31  E(vib)   ...       0.00 
freq.    1508.13  E(vib)   ...       0.00 
freq.    1509.74  E(vib)   ...       0.00 
freq.    1510.19  E(vib)   ...       0.00 
freq.    1512.94  E(vib)   ...       0.00 
freq.    1530.87  E(vib)   ...       0.00 
freq.    1561.14  E(vib)   ...       0.00 
freq.    1564.55  E(vib)   ...       0.00 
freq.    1628.44  E(vib)   ...       0.00 
freq.    2736.65  E(vib)   ...       0.00 
freq.    2881.88  E(vib)   ...       0.00 
freq.    2932.49  E(vib)   ...       0.00 
freq.    2944.87  E(vib)   ...       0.00 
freq.    2948.03  E(vib)   ...       0.00 
freq.    2959.03  E(vib)   ...       0.00 
freq.    2964.85  E(vib)   ...       0.00 
freq.    2966.23  E(vib)   ...       0.00 
freq.    2971.19  E(vib)   ...       0.00 
freq.    2975.71  E(vib)   ...       0.00 
freq.    2979.97  E(vib)   ...       0.00 
freq.    2981.41  E(vib)   ...       0.00 
freq.    2983.10  E(vib)   ...       0.00 
freq.    2985.16  E(vib)   ...       0.00 
freq.    2985.86  E(vib)   ...       0.00 
freq.    2991.85  E(vib)   ...       0.00 
freq.    2997.66  E(vib)   ...       0.00 
freq.    3001.60  E(vib)   ...       0.00 
freq.    3014.94  E(vib)   ...       0.00 
freq.    3049.75  E(vib)   ...       0.00 
freq.    3063.01  E(vib)   ...       0.00 
freq.    3066.49  E(vib)   ...       0.00 
freq.    3072.22  E(vib)   ...       0.00 
freq.    3079.48  E(vib)   ...       0.00 
freq.    3089.81  E(vib)   ...       0.00 
freq.    3096.03  E(vib)   ...       0.00 
freq.    3403.84  E(vib)   ...       0.00 
freq.    3610.38  E(vib)   ...       0.00 
freq.    3639.01  E(vib)   ...       0.00 

------------
INNER ENERGY
------------

The inner energy is: U= E(el) + E(ZPE) + E(vib) + E(rot) + E(trans)
    E(el)   - is the total energy from the electronic structure calculation
              = E(kin-el) + E(nuc-el) + E(el-el) + E(nuc-nuc)
    E(ZPE)  - the the zero temperature vibrational energy from the frequency calculation
    E(vib)  - the the finite temperature correction to E(ZPE) due to population
              of excited vibrational states
    E(rot)  - is the rotational thermal energy
    E(trans)- is the translational thermal energy

Summary of contributions to the inner energy U:
Electronic energy                ...    -61.35142423 Eh
Zero point energy                ...      0.42152283 Eh     264.51 kcal/mol
Thermal vibrational correction   ...      0.02192930 Eh      13.76 kcal/mol
Thermal rotational correction    ...      0.00141627 Eh       0.89 kcal/mol
Thermal translational correction ...      0.00141627 Eh       0.89 kcal/mol
-----------------------------------------------------------------------
Total thermal energy                    -60.90513957 Eh


Summary of corrections to the electronic energy:
(perhaps to be used in another calculation)
Total thermal correction                  0.02476184 Eh      15.54 kcal/mol
Non-thermal (ZPE) correction              0.42152283 Eh     264.51 kcal/mol
-----------------------------------------------------------------------
Total correction                          0.44628466 Eh     280.05 kcal/mol


--------
ENTHALPY
--------

The enthalpy is H = U + kB*T
                kB is Boltzmann's constant
Total free energy                 ...    -60.90513957 Eh 
Thermal Enthalpy correction       ...      0.00094421 Eh       0.59 kcal/mol
-----------------------------------------------------------------------
Total Enthalpy                    ...    -60.90419536 Eh


Note: Only C1 symmetry has been detected, increase convergence thresholds 
      if your molecule has a higher symmetry. Symmetry factor of 1.0 is   
      used for the rotational entropy correction. 
 

Note: Rotational entropy computed according to Herzberg 
Infrared and Raman Spectra, Chapter V,1, Van Nostrand Reinhold, 1945 
Point Group:  C1, Symmetry Number:   1  
Rotational constants in cm-1:     0.013402     0.005846     0.005069 

Vibrational entropy computed according to the QRRHO of S. Grimme
Chem.Eur.J. 2012 18 9955


-------
ENTROPY
-------

The entropy contributions are T*S = T*(S(el)+S(vib)+S(rot)+S(trans))
     S(el)   - electronic entropy
     S(vib)  - vibrational entropy
     S(rot)  - rotational entropy
     S(trans)- translational entropy
The entropies will be listed as mutliplied by the temperature to get
units of energy

Electronic entropy                ...      0.00000000 Eh      0.00 kcal/mol
Vibrational entropy               ...      0.04008259 Eh     25.15 kcal/mol
Rotational entropy                ...      0.01646893 Eh     10.33 kcal/mol
Translational entropy             ...      0.02028014 Eh     12.73 kcal/mol
-----------------------------------------------------------------------
Final entropy term                ...      0.07683166 Eh     48.21 kcal/mol

In case the symmetry of your molecule has not been determined correctly
or in case you have a reason to use a different symmetry number we print 
out the resulting rotational entropy values for sn=1,12 :
 --------------------------------------------------------
|  sn= 1 | S(rot)=       0.01646893 Eh     10.33 kcal/mol|
|  sn= 2 | S(rot)=       0.01581447 Eh      9.92 kcal/mol|
|  sn= 3 | S(rot)=       0.01543164 Eh      9.68 kcal/mol|
|  sn= 4 | S(rot)=       0.01516002 Eh      9.51 kcal/mol|
|  sn= 5 | S(rot)=       0.01494933 Eh      9.38 kcal/mol|
|  sn= 6 | S(rot)=       0.01477718 Eh      9.27 kcal/mol|
|  sn= 7 | S(rot)=       0.01463164 Eh      9.18 kcal/mol|
|  sn= 8 | S(rot)=       0.01450556 Eh      9.10 kcal/mol|
|  sn= 9 | S(rot)=       0.01439435 Eh      9.03 kcal/mol|
|  sn=10 | S(rot)=       0.01429487 Eh      8.97 kcal/mol|
|  sn=11 | S(rot)=       0.01420488 Eh      8.91 kcal/mol|
|  sn=12 | S(rot)=       0.01412273 Eh      8.86 kcal/mol|
 --------------------------------------------------------


-------------------
GIBBS FREE ENERGY
-------------------

The Gibbs free energy is G = H - T*S

Total enthalpy                    ...    -60.90419536 Eh 
Total entropy correction          ...     -0.07683166 Eh    -48.21 kcal/mol
-----------------------------------------------------------------------
Final Gibbs free energy         ...    -60.98102702 Eh

For completeness - the Gibbs free energy minus the electronic energy
G-E(el)                           ...      0.37039721 Eh    232.43 kcal/mol


Total Time for Numerical Frequencies  :       195.023 sec
Time for Reference State(s)           :         0.200 sec
Time for Displacements                :       177.989 sec

Timings for individual modules:

Sum of individual times         ...        0.404 sec (=   0.007 min)
XTB module                      ...        0.404 sec (=   0.007 min) 100.0 %
                             ****ORCA TERMINATED NORMALLY****
TOTAL RUN TIME: 0 days 0 hours 3 minutes 16 seconds 220 msec
(SLURM) EXECUTION TIME: 196.245272181 seconds.
