(SLURM) JOB ID:         170

                                 *****************
                                 * O   R   C   A *
                                 *****************

           --- An Ab Initio, DFT and Semiempirical electronic structure package ---

                  #######################################################
                  #                        -***-                        #
                  #          Department of theory and spectroscopy      #
                  #               Directorship: Frank Neese             #
                  #        Max Planck Institute fuer Kohlenforschung    #
                  #                Kaiser Wilhelm Platz 1               #
                  #                 D-45470 Muelheim/Ruhr               #
                  #                      Germany                        #
                  #                                                     #
                  #                  All rights reserved                #
                  #                        -***-                        #
                  #######################################################


                         Program Version 4.2.1 -  RELEASE  -


 With contributions from (in alphabetic order):
   Daniel Aravena         : Magnetic Suceptibility
   Michael Atanasov       : Ab Initio Ligand Field Theory (pilot matlab implementation)
   Alexander A. Auer      : GIAO ZORA, VPT2
   Ute Becker             : Parallelization
   Giovanni Bistoni       : ED, misc. LED, open-shell LED, HFLD
   Martin Brehm           : Molecular dynamics
   Dmytro Bykov           : SCF Hessian
   Vijay G. Chilkuri      : MRCI spin determinant printing, contributions to CSF-ICE
   Dipayan Datta          : RHF DLPNO-CCSD density
   Achintya Kumar Dutta   : EOM-CC, STEOM-CC
   Dmitry Ganyushin       : Spin-Orbit,Spin-Spin,Magnetic field MRCI
   Miquel Garcia          : C-PCM Hessian, Gaussian charge scheme
   Yang Guo               : DLPNO-NEVPT2, CIM, IAO-localization
   Andreas Hansen         : Spin unrestricted coupled pair/coupled cluster methods
   Benjamin Helmich-Paris : CASSCF linear response (MC-RPA)
   Lee Huntington         : MR-EOM, pCC
   Robert Izsak           : Overlap fitted RIJCOSX, COSX-SCS-MP3, EOM
   Christian Kollmar      : KDIIS, OOCD, Brueckner-CCSD(T), CCSD density
   Simone Kossmann        : Meta GGA functionals, TD-DFT gradient, OOMP2, MP2 Hessian
   Martin Krupicka        : AUTO-CI
   Lucas Lang             : DCDCAS
   Dagmar Lenk            : GEPOL surface, SMD
   Dimitrios Liakos       : Extrapolation schemes; Compound Job, initial MDCI parallelization
   Dimitrios Manganas     : Further ROCIS development; embedding schemes
   Dimitrios Pantazis     : SARC Basis sets
   Taras Petrenko         : DFT Hessian,TD-DFT gradient, ASA, ECA, R-Raman, ABS, FL, XAS/XES, NRVS
   Peter Pinski           : DLPNO-MP2, DLPNO-MP2 Gradient
   Christoph Reimann      : Effective Core Potentials
   Marius Retegan         : Local ZFS, SOC
   Christoph Riplinger    : Optimizer, TS searches, QM/MM, DLPNO-CCSD(T), (RO)-DLPNO pert. Triples
   Tobias Risthaus        : Range-separated hybrids, TD-DFT gradient, RPA, STAB
   Michael Roemelt        : Original ROCIS implementation
   Masaaki Saitow         : Open-shell DLPNO-CCSD energy and density
   Barbara Sandhoefer     : DKH picture change effects
   Avijit Sen             : IP-ROCIS
   Kantharuban Sivalingam : CASSCF convergence, NEVPT2, FIC-MRCI
   Bernardo de Souza      : ESD, SOC TD-DFT
   Georgi Stoychev        : AutoAux, RI-MP2 NMR
   Willem Van den Heuvel  : Paramagnetic NMR
   Boris Wezisla          : Elementary symmetry handling
   Frank Wennmohs         : Technical directorship


 We gratefully acknowledge several colleagues who have allowed us to
 interface, adapt or use parts of their codes:
   Stefan Grimme, W. Hujo, H. Kruse,             : VdW corrections, initial TS optimization,
                  C. Bannwarth                     DFT functionals, gCP, sTDA/sTD-DF
   Ed Valeev, F. Pavosevic, A. Kumar             : LibInt (2-el integral package), F12 methods
   Garnet Chan, S. Sharma, J. Yang, R. Olivares  : DMRG
   Ulf Ekstrom                                   : XCFun DFT Library
   Mihaly Kallay                                 : mrcc  (arbitrary order and MRCC methods)
   Andreas Klamt, Michael Diedenhofen            : otool_cosmo (COSMO solvation model)
   Jiri Pittner, Ondrej Demel                    : Mk-CCSD
   Frank Weinhold                                : gennbo (NPA and NBO analysis)
   Christopher J. Cramer and Donald G. Truhlar   : smd solvation model
   Lars Goerigk                                  : TD-DFT with DH, B97 family of functionals
   V. Asgeirsson, H. Jonsson                     : NEB implementation
   FAccTs GmbH                                   : IRC, NEB, NEB-TS, Multilevel, MM, QM/MM, CI optimization
   S Lehtola, MJT Oliveira, MAL Marques          : LibXC Library


 Your calculation uses the libint2 library for the computation of 2-el integrals
 For citations please refer to: http://libint.valeyev.net

 Your ORCA version has been built with support for libXC version: 4.2.3
 For citations please refer to: https://tddft.org/programs/libxc/

 This ORCA versions uses:
   CBLAS   interface :  Fast vector & matrix operations
   LAPACKE interface :  Fast linear algebra routines
   SCALAPACK package :  Parallel linear algebra routines




***************************************
The coordinates will be read from file: init.xyz
***************************************


Your calculation utilizes the SMD solvation module
Please cite in your paper:
A.V. Marenich, C.J. Cramer, D.G. Truhlar J. Phys. Chem. B, 113, (2009), 6378 

Your calculation utilizes the semiempirical GFN2-xTB method
Please cite in your paper:
C. Bannwarth, Ehlert S., S. Grimme,  J. Chem. Theory Comput., 15, (2019), 1652.
   

----- Orbital basis set information -----
Your calculation utilizes the basis: def2-SVP
   F. Weigend and R. Ahlrichs, Phys. Chem. Chem. Phys. 7, 3297 (2005).

================================================================================
                                        WARNINGS
                       Please study these warnings very carefully!
================================================================================

WARNING: Gradients needed for Numerical Frequencies
  ===> : Setting RunTyp to EnGrad

WARNING: The environment variable RSH_COMMAND is not set!
  ===> : All Displacements for the Numerical Hessian calculation
         will be started on localhost

WARNING: Found dipole moment calculation with XTB calculation
  ===> : Switching off dipole moment calculation


INFO   : the flag for use of LIBINT has been found!

================================================================================
                                       INPUT FILE
================================================================================
NAME = /tmp/slurm-scratch/freq.170/freq.inp
|  1> ! XTB2 NumFreq
|  2> %maxcore 1450
|  3> 
|  4> * xyzfile 0 1 init.xyz
|  5> 
|  6> %cpcm
|  7>  smd true
|  8>  smdsolvent "ch2cl2"
|  9> end
| 10> %pal nprocs 8 end
| 11> 
| 12>                          ****END OF INPUT****
================================================================================

                     *******************************
                     * Energy+Gradient Calculation *
                     *******************************

      -----------------------------------------------------------      
     |                   =====================                   |     
     |                           x T B                           |     
     |                   =====================                   |     
     |                         S. Grimme                         |     
     |          Mulliken Center for Theoretical Chemistry        |     
     |                    University of Bonn                     |     
      -----------------------------------------------------------      

   * xtb version 6.3.0 (preview) compiled by 'ehlert@majestix' on 2020-01-15

   This program is distributed in the hope that it will be useful,
   but WITHOUT ANY WARRANTY; without even the implied warranty of
   MERCHANTABILITY or FITNESS FOR A PARTICULAR PURPOSE.
   
   FOR NON-COMMERCIAL, ACADEMIA USE ONLY.
   
   Cite this work as:
   * S. Grimme, C. Bannwarth, P. Shushkov, J. Chem. Theory Comput., 2017,
     13, 1989-2009. DOI: 10.1021/acs.jctc.7b00118
   * C. Bannwarth, S. Ehlert and S. Grimme., J. Chem. Theory Comput., 2019,
     15, 1652-1671. DOI: 10.1021/acs.jctc.8b01176
   * P. Pracht, E. Caldeweyher, S. Ehlert, S. Grimme, ChemRxiv, 2019, preprint.
     DOI: 10.26434/chemrxiv.8326202.v1
   * S. Grimme, S. Spicher unpublished
   
   for DFT-D4:
   * E. Caldeweyher, C. Bannwarth and S. Grimme, J. Chem. Phys., 2017,
     147, 034112. DOI: 10.1063/1.4993215
   * E. Caldeweyher, S. Ehlert, A. Hansen, H. Neugebauer, S. Spicher,
     C. Bannwarth and S. Grimme, J. Chem. Phys., 2019, 150, 154122.
     DOI: 10.1063/1.5090222
   
   for sTDA-xTB:
   * S. Grimme and C. Bannwarth, J. Chem. Phys., 2016, 145, 054103.
     DOI: 10.1063/1.4959605
   
   in the mass-spec context:
   * V. Asgeirsson, C. Bauer and S. Grimme, Chem. Sci., 2017, 8, 4879.
     DOI: 10.1039/c7sc00601b
   
   for metadynamics refer to:
   * S. Grimme, J. Chem. Theory Comput., 2019, 155, 2847-2862
     DOI: 10.1021/acs.jctc.9b00143
   
   with help from (in alphabetical order)
   C. Bannwarth, F. Bohle, G. Brandenburg, E. Caldeweyher, M. Checinski,
   S. Dohm, S. Ehlert, S. Ehrlich, F. März, H. Neugebauer, J. Pisarek,
   P. Pracht, P. Shushkov, and S. Spicher.
   
 * started run on 2020/08/28 at 21:00:29.162     

           -------------------------------------------------
          |                Calculation Setup                |
           -------------------------------------------------

          program call               : /opt/orca/otool_xtb /tmp/slurm-scratch/freq.170/freq_XTB.xyz --grad -c 0 -u 0 -P 8 --namespace /tmp/slurm-scratch/freq.170/freq --gbsa CH2Cl2
          hostname                   : headnode-pbs
          calculation namespace      : /tmp/slurm-scratch/freq.170/freq
          coordinate file            : /tmp/slurm-scratch/freq.170/freq_XTB.xyz
          omp threads                :                     8
          number of atoms            :                    46
          number of electrons        :                   104
          charge                     :                     0
          spin                       :                   0.0
          first test random number   :      0.75322509744397


molecular fragmentation (1/2 indicates fragments):
1111111111211112122211121112221112222222111111
# atoms in fragment 1/2:    30    16
 fragment masses (1/2) :      179.26       73.14
CMA distance (Bohr)    :   8.650
constraining FC (au)   :  0.0500

########################################################################
# WARNING! Please study the warnings concerning your input carefully
#  - Process number higher than OMP_NUM_THREADS, I hope you know what you are doing.
########################################################################

           ------------------------------------------------- 
          |                 G F N 2 - x T B                 |
          | Geometry, Frequencies, Noncovalent interactions |
          |            JCTC 2019 parametrisation            |
           ------------------------------------------------- 
             k(s)              :                1.8500
             k(p)              :                2.2300
             k(d)              :                2.2300
             k(f)              :                2.0000
             kEN (H0ij)        :               -2.0000
             D4 a1             :                0.5200
             D4 a2             :                5.0000
             D4 s6             :                1.0000
             D4 s8             :                2.7000
             D4 s9             :                5.0000
             alphaj            :                2.0000

  Z AO/shell   Hii/eV     exponent
  1     Wed Apr 25 08:07:45 CEST 2018   EN: 2.200 GM2: 0.406  GM3: 0.0800  RAES: 1.40
     1s    -10.707211    1.230000
  6     Wed Apr 25 08:07:45 CEST 2018   EN: 2.550 GM2: 0.538  GM3: 0.1500  RAES: 3.00
     2s    -13.970922    2.096432
     2p    -10.063292    1.800000
  7     Wed Apr 25 08:07:45 CEST 2018   EN: 3.040 GM2: 0.461  GM3:-0.0640  RAES: 1.90
     2s    -16.686243    2.339881
     2p    -12.523956    2.014332
  8     Wed Apr 25 08:07:45 CEST 2018   EN: 3.440 GM2: 0.452  GM3:-0.0517  RAES: 1.80
     2s    -20.229985    2.439742
     2p    -15.503117    2.137023

 Solvent             : CH2Cl2
 Using internal parameter file: .param_gbsa2_CH2Cl2
 Gsolv ref. state (COSMO-RS): gsolv [1 M gas/solution]
 temperature (mdtemp)       :    298.150000000000     
 dielectric constant        :    8.93000000000000     
 rho                        :    1.33000000000000     
 mass                       :    84.9300000000000     
 surface tension            :    15.5689454083859     
 probe radius               :   0.719875900000000     
 Gshift (Eh)                :   4.440829173451759E-003
 c1                         :    1.49173776000000     
 soset                      :   0.000000000000000E+000
 HB correction              :  F
           ------------------------------------------------- 
          |        Self-Consistent Charge Iterations        |
           ------------------------------------------------- 

          ...................................................
          :                      SETUP                      :
          :.................................................:
          :  # basis functions                 100          :
          :  # atomic orbitals                 100          :
          :  # shells                           64          :
          :  # electrons                       104          :
          :  max. iterations                   250          :
          :  Hamiltonian                  GFN2-xTB          :
          :  GBSA solvation                   true          :
          :  PC potential                    false          :
          :  electronic temp.          300.0000000     K    :
          :  accuracy                    1.0000000          :
          :  -> integral cutoff          0.2500000E+02      :
          :  -> integral neglect         0.1000000E-07      :
          :  -> SCF convergence          0.1000000E-05 Eh   :
          :  -> wf. convergence          0.1000000E-03 e    :
          :  Broyden damping             0.4000000          :
          ...................................................
  Checking positiv definite overlap ...  done.
 

 iter      E             dE          RMSdq      gap      omega  full diag
   1    -57.0262322 -0.570262E+02  0.325E+00    3.81       0.0  T
   2    -57.0934379 -0.672058E-01  0.183E+00    3.90       1.0  T
   3    -57.0949022 -0.146433E-02  0.653E-01    3.85       1.0  T
   4    -57.0953883 -0.486087E-03  0.210E-01    3.85       1.0  T
   5    -57.0971695 -0.178115E-02  0.663E-02    3.84       1.0  T
   6    -57.0972117 -0.422271E-04  0.262E-02    3.85       1.0  T
   7    -57.0972129 -0.116460E-05  0.785E-03    3.84       1.9  T
   8    -57.0972138 -0.902635E-06  0.243E-03    3.85       6.1  T
   9    -57.0972139 -0.114888E-06  0.122E-03    3.85      12.1  T
  10    -57.0972139 -0.414485E-08  0.410E-04    3.85      36.0  T
  11    -57.0972139 -0.280246E-08  0.156E-04    3.85      94.2  T

   *** convergence criteria satisfied after 11 iterations ***

         #    Occupation            Energy/Eh            Energy/eV
      -------------------------------------------------------------
         1        2.0000           -0.6976670             -18.9845
       ...           ...                  ...                  ...
        46        2.0000           -0.4225808             -11.4990
        47        2.0000           -0.4185299             -11.3888
        48        2.0000           -0.4148753             -11.2893
        49        2.0000           -0.4050296             -11.0214
        50        2.0000           -0.4027507             -10.9594
        51        2.0000           -0.3728558             -10.1459
        52        2.0000           -0.3710187             -10.0959 (HOMO)
        53                         -0.2297132              -6.2508 (LUMO)
        54                         -0.2262179              -6.1557
        55                         -0.1025691              -2.7910
        56                          0.0115844               0.3152
        57                          0.0222128               0.6044
       ...                                ...                  ...
       100                          0.6450962              17.5540
      -------------------------------------------------------------
                  HL-Gap            0.1413056 Eh            3.8451 eV
             Fermi-level           -0.3003659 Eh           -8.1734 eV

 SCC (total)                   0 d,  0 h,  0 min,  0.054 sec
 SCC setup                      ...        0 min,  0.005 sec (  9.281%)
 Dispersion                     ...        0 min,  0.001 sec (  1.271%)
 integral evaluation            ...        0 min,  0.011 sec ( 20.072%)
 zeroth order Hamiltonian       ...        0 min,  0.000 sec (  0.033%)
 iterations                     ...        0 min,  0.027 sec ( 49.379%)
 molecular gradient             ...        0 min,  0.010 sec ( 19.044%)
 printout                       ...        0 min,  0.000 sec (  0.782%)

         :::::::::::::::::::::::::::::::::::::::::::::::::::::
         ::                     SUMMARY                     ::
         :::::::::::::::::::::::::::::::::::::::::::::::::::::
         :: total energy             -56.312223778737 Eh    ::
         :: total w/o Gsasa/hb       -56.290347343582 Eh    ::
         :: gradient norm              0.026045536426 Eh/a0 ::
         :: HOMO-LUMO gap              3.845119831930 eV    ::
         ::.................................................::
         :: SCC energy               -57.119090334183 Eh    ::
         :: -> isotropic ES            0.056039864671 Eh    ::
         :: -> anisotropic ES          0.008828353322 Eh    ::
         :: -> anisotropic XC          0.035302035496 Eh    ::
         :: -> dispersion             -0.039034168697 Eh    ::
         :: -> Gsolv                  -0.026212727402 Eh    ::
         ::    -> Gborn               -0.004336292247 Eh    ::
         ::    -> Gsasa               -0.026317264329 Eh    ::
         ::    -> Ghb                  0.000000000000 Eh    ::
         ::    -> Gshift               0.004440829173 Eh    ::
         :: repulsion energy           0.806269407087 Eh    ::
         :: add. restraining           0.000000000000 Eh    ::
         :::::::::::::::::::::::::::::::::::::::::::::::::::::

           -------------------------------------------------
          |                Property Printout                |
           -------------------------------------------------

    * Orbital Energies and Occupations

         #    Occupation            Energy/Eh            Energy/eV
      -------------------------------------------------------------
         1        2.0000           -0.6976670             -18.9845
       ...           ...                  ...                  ...
        40        2.0000           -0.4425855             -12.0434
        41        2.0000           -0.4400233             -11.9736
        42        2.0000           -0.4386391             -11.9360
        43        2.0000           -0.4357813             -11.8582
        44        2.0000           -0.4345701             -11.8253
        45        2.0000           -0.4289403             -11.6721
        46        2.0000           -0.4225808             -11.4990
        47        2.0000           -0.4185299             -11.3888
        48        2.0000           -0.4148753             -11.2893
        49        2.0000           -0.4050296             -11.0214
        50        2.0000           -0.4027507             -10.9594
        51        2.0000           -0.3728558             -10.1459
        52        2.0000           -0.3710187             -10.0959 (HOMO)
        53                         -0.2297132              -6.2508 (LUMO)
        54                         -0.2262179              -6.1557
        55                         -0.1025691              -2.7910
        56                          0.0115844               0.3152
        57                          0.0222128               0.6044
        58                          0.0332647               0.9052
        59                          0.0578215               1.5734
        60                          0.0759606               2.0670
        61                          0.0886294               2.4117
        62                          0.0951750               2.5898
        63                          0.1078767               2.9355
       ...                                ...                  ...
       100                          0.6450962              17.5540
      -------------------------------------------------------------
                  HL-Gap            0.1413056 Eh            3.8451 eV
             Fermi-level           -0.3003659 Eh           -8.1734 eV

     #   Z        covCN         q      C6AA      α(0)
     1   6 C      2.914    -0.029    28.736     8.790
     2   6 C      2.919    -0.037    28.918     8.818
     3   6 C      2.968    -0.015    28.392     8.740
     4   6 C      2.917    -0.036    28.889     8.814
     5   6 C      2.915    -0.030    28.754     8.793
     6   6 C      2.915    -0.030    28.758     8.794
     7   1 H      0.925     0.035     2.521     2.483
     8   1 H      0.925     0.053     2.283     2.363
     9   1 H      0.925     0.040     2.453     2.449
    10   7 N      2.683    -0.278    27.171     7.742
    11   1 H      0.860     0.164     1.308     1.791
    12   6 C      3.740     0.021    20.290     6.427
    13   1 H      0.924     0.017     2.782     2.609
    14   1 H      0.924     0.032     2.565     2.505
    15   1 H      0.860     0.155     1.369     1.833
    16   7 N      2.627    -0.379    29.804     8.108
    17   1 H      0.805     0.295     0.738     1.349
    18   6 C      3.731     0.021    20.310     6.433
    19   1 H      0.924     0.028     2.609     2.526
    20   1 H      0.924     0.024     2.681     2.560
    21   6 C      3.667     0.181    17.947     6.075
    22   1 H      0.924     0.018     2.768     2.602
    23   8 O      1.650    -0.494    22.765     6.441
    24   1 H      0.860     0.136     1.499     1.918
    25   6 C      3.803    -0.064    21.720     6.635
    26   1 H      0.924     0.034     2.533     2.489
    27   1 H      0.924     0.042     2.419     2.432
    28   6 C      3.800    -0.063    21.717     6.635
    29   1 H      0.924     0.025     2.664     2.552
    30   1 H      0.924     0.026     2.639     2.541
    31   6 C      3.800    -0.051    21.497     6.601
    32   1 H      0.924     0.032     2.555     2.500
    33   1 H      0.924     0.031     2.575     2.509
    34   6 C      3.800    -0.052    21.514     6.604
    35   1 H      0.924     0.029     2.608     2.525
    36   1 H      0.924     0.032     2.561     2.503
    37   6 C      3.750    -0.099    22.451     6.758
    38   1 H      0.924     0.037     2.492     2.469
    39   1 H      0.924     0.032     2.556     2.500
    40   1 H      0.924     0.034     2.533     2.489
    41   6 C      3.750    -0.102    22.506     6.766
    42   1 H      0.924     0.037     2.493     2.469
    43   1 H      0.924     0.035     2.512     2.479
    44   1 H      0.924     0.036     2.499     2.472
    45   1 H      0.925     0.040     2.447     2.446
    46   1 H      0.925     0.040     2.446     2.446

 Mol. C6AA /au·bohr⁶  :      17267.822660
 Mol. C8AA /au·bohr⁸  :     377244.340859
 Mol. α(0) /au        :        200.782547


Wiberg/Mayer (AO) data.
largest (>0.10) Wiberg bond orders for each atom
          total WBO             WBO to atom ...
     1  C   3.991        C    2 1.444    C    6 1.438    H   46 0.971    C    4 0.112
     2  C   3.990        C    1 1.444    C    3 1.415    H    7 0.969    C    5 0.112
     3  C   3.986        C    4 1.417    C    2 1.415    C   21 0.978    C    6 0.110
     4  C   3.990        C    5 1.442    C    3 1.417    H    8 0.964    C    1 0.112
     5  C   3.991        C    4 1.442    C    6 1.440    H   45 0.971    C    2 0.112
     6  C   3.991        C    5 1.440    C    1 1.438    H    9 0.971    C    3 0.110
     7  H   0.999        C    2 0.969
     8  H   0.997        C    4 0.964
     9  H   0.998        C    6 0.971
    10  N   3.096        C   21 1.034    C   12 0.997    H   15 0.942
    11  H   0.973        N   16 0.946
    12  C   3.980        C   25 1.005    N   10 0.997    H   14 0.974    H   13 0.966
    13  H   1.000        C   12 0.966
    14  H   0.999        C   12 0.974
    15  H   0.976        N   10 0.942
    16  N   2.998        C   18 1.024    H   24 0.968    H   11 0.946
    17  H   0.913        O   23 0.898
    18  C   3.985        N   16 1.024    C   28 0.996    H   19 0.975    H   20 0.970
    19  H   0.999        C   18 0.975
    20  H   0.999        C   18 0.970
    21  C   3.947        N   10 1.034    C    3 0.978    H   22 0.956    O   23 0.928
    22  H   0.999        C   21 0.956
    23  O   1.938        C   21 0.928    H   17 0.898
    24  H   0.981        N   16 0.968
    25  C   3.995        C   31 1.007    C   12 1.005    H   27 0.977    H   26 0.971
    26  H   0.999        C   25 0.971
    27  H   0.998        C   25 0.977
    28  C   3.997        C   34 1.007    C   18 0.996    H   29 0.977    H   30 0.973
    29  H   0.999        C   28 0.977
    30  H   0.999        C   28 0.973
    31  C   3.996        C   41 1.020    C   25 1.007    H   33 0.978    H   32 0.974
    32  H   0.999        C   31 0.974
    33  H   0.999        C   31 0.978
    34  C   3.997        C   37 1.019    C   28 1.007    H   35 0.978    H   36 0.973
    35  H   0.999        C   34 0.978
    36  H   0.999        C   34 0.973
    37  C   3.997        C   34 1.019    H   39 0.988    H   38 0.987    H   40 0.985
    38  H   0.998        C   37 0.987
    39  H   0.999        C   37 0.988
    40  H   0.999        C   37 0.985
    41  C   3.996        C   31 1.020    H   43 0.988    H   42 0.987    H   44 0.987
    42  H   0.998        C   41 0.987
    43  H   0.999        C   41 0.988
    44  H   0.999        C   41 0.987
    45  H   0.998        C    5 0.971
    46  H   0.998        C    1 0.971

molecular dipole:
                 x           y           z       tot (Debye)
 q only:        0.055       0.339       0.080
   full:       -0.055      -0.021       0.466       1.193
molecular quadrupole (traceless):
                xx          xy          yy          xz          yz          zz
 q only:        6.239       0.733      -4.230       2.749      -0.079      -2.009
  q+dip:        2.005       5.081      -0.707       0.512       1.745      -1.298
   full:        3.052       4.054      -2.191       2.607      -0.369      -0.862

           -------------------------------------------------
          |                Property Printout                |
           -------------------------------------------------

    * Orbital Energies and Occupations

         #    Occupation            Energy/Eh            Energy/eV
      -------------------------------------------------------------
         1        2.0000           -0.6976670             -18.9845
       ...           ...                  ...                  ...
        40        2.0000           -0.4425855             -12.0434
        41        2.0000           -0.4400233             -11.9736
        42        2.0000           -0.4386391             -11.9360
        43        2.0000           -0.4357813             -11.8582
        44        2.0000           -0.4345701             -11.8253
        45        2.0000           -0.4289403             -11.6721
        46        2.0000           -0.4225808             -11.4990
        47        2.0000           -0.4185299             -11.3888
        48        2.0000           -0.4148753             -11.2893
        49        2.0000           -0.4050296             -11.0214
        50        2.0000           -0.4027507             -10.9594
        51        2.0000           -0.3728558             -10.1459
        52        2.0000           -0.3710187             -10.0959 (HOMO)
        53                         -0.2297132              -6.2508 (LUMO)
        54                         -0.2262179              -6.1557
        55                         -0.1025691              -2.7910
        56                          0.0115844               0.3152
        57                          0.0222128               0.6044
        58                          0.0332647               0.9052
        59                          0.0578215               1.5734
        60                          0.0759606               2.0670
        61                          0.0886294               2.4117
        62                          0.0951750               2.5898
        63                          0.1078767               2.9355
       ...                                ...                  ...
       100                          0.6450962              17.5540
      -------------------------------------------------------------
                  HL-Gap            0.1413056 Eh            3.8451 eV
             Fermi-level           -0.3003659 Eh           -8.1734 eV

     #   Z        covCN         q      C6AA      α(0)
     1   6 C      2.914    -0.029    28.736     8.790
     2   6 C      2.919    -0.037    28.918     8.818
     3   6 C      2.968    -0.015    28.392     8.740
     4   6 C      2.917    -0.036    28.889     8.814
     5   6 C      2.915    -0.030    28.754     8.793
     6   6 C      2.915    -0.030    28.758     8.794
     7   1 H      0.925     0.035     2.521     2.483
     8   1 H      0.925     0.053     2.283     2.363
     9   1 H      0.925     0.040     2.453     2.449
    10   7 N      2.683    -0.278    27.171     7.742
    11   1 H      0.860     0.164     1.308     1.791
    12   6 C      3.740     0.021    20.290     6.427
    13   1 H      0.924     0.017     2.782     2.609
    14   1 H      0.924     0.032     2.565     2.505
    15   1 H      0.860     0.155     1.369     1.833
    16   7 N      2.627    -0.379    29.804     8.108
    17   1 H      0.805     0.295     0.738     1.349
    18   6 C      3.731     0.021    20.310     6.433
    19   1 H      0.924     0.028     2.609     2.526
    20   1 H      0.924     0.024     2.681     2.560
    21   6 C      3.667     0.181    17.947     6.075
    22   1 H      0.924     0.018     2.768     2.602
    23   8 O      1.650    -0.494    22.765     6.441
    24   1 H      0.860     0.136     1.499     1.918
    25   6 C      3.803    -0.064    21.720     6.635
    26   1 H      0.924     0.034     2.533     2.489
    27   1 H      0.924     0.042     2.419     2.432
    28   6 C      3.800    -0.063    21.717     6.635
    29   1 H      0.924     0.025     2.664     2.552
    30   1 H      0.924     0.026     2.639     2.541
    31   6 C      3.800    -0.051    21.497     6.601
    32   1 H      0.924     0.032     2.555     2.500
    33   1 H      0.924     0.031     2.575     2.509
    34   6 C      3.800    -0.052    21.514     6.604
    35   1 H      0.924     0.029     2.608     2.525
    36   1 H      0.924     0.032     2.561     2.503
    37   6 C      3.750    -0.099    22.451     6.758
    38   1 H      0.924     0.037     2.492     2.469
    39   1 H      0.924     0.032     2.556     2.500
    40   1 H      0.924     0.034     2.533     2.489
    41   6 C      3.750    -0.102    22.506     6.766
    42   1 H      0.924     0.037     2.493     2.469
    43   1 H      0.924     0.035     2.512     2.479
    44   1 H      0.924     0.036     2.499     2.472
    45   1 H      0.925     0.040     2.447     2.446
    46   1 H      0.925     0.040     2.446     2.446

 Mol. C6AA /au·bohr⁶  :      17267.822660
 Mol. C8AA /au·bohr⁸  :     377244.340859
 Mol. α(0) /au        :        200.782547


Wiberg/Mayer (AO) data.
largest (>0.10) Wiberg bond orders for each atom
          total WBO             WBO to atom ...
     1  C   3.991        C    2 1.444    C    6 1.438    H   46 0.971    C    4 0.112
     2  C   3.990        C    1 1.444    C    3 1.415    H    7 0.969    C    5 0.112
     3  C   3.986        C    4 1.417    C    2 1.415    C   21 0.978    C    6 0.110
     4  C   3.990        C    5 1.442    C    3 1.417    H    8 0.964    C    1 0.112
     5  C   3.991        C    4 1.442    C    6 1.440    H   45 0.971    C    2 0.112
     6  C   3.991        C    5 1.440    C    1 1.438    H    9 0.971    C    3 0.110
     7  H   0.999        C    2 0.969
     8  H   0.997        C    4 0.964
     9  H   0.998        C    6 0.971
    10  N   3.096        C   21 1.034    C   12 0.997    H   15 0.942
    11  H   0.973        N   16 0.946
    12  C   3.980        C   25 1.005    N   10 0.997    H   14 0.974    H   13 0.966
    13  H   1.000        C   12 0.966
    14  H   0.999        C   12 0.974
    15  H   0.976        N   10 0.942
    16  N   2.998        C   18 1.024    H   24 0.968    H   11 0.946
    17  H   0.913        O   23 0.898
    18  C   3.985        N   16 1.024    C   28 0.996    H   19 0.975    H   20 0.970
    19  H   0.999        C   18 0.975
    20  H   0.999        C   18 0.970
    21  C   3.947        N   10 1.034    C    3 0.978    H   22 0.956    O   23 0.928
    22  H   0.999        C   21 0.956
    23  O   1.938        C   21 0.928    H   17 0.898
    24  H   0.981        N   16 0.968
    25  C   3.995        C   31 1.007    C   12 1.005    H   27 0.977    H   26 0.971
    26  H   0.999        C   25 0.971
    27  H   0.998        C   25 0.977
    28  C   3.997        C   34 1.007    C   18 0.996    H   29 0.977    H   30 0.973
    29  H   0.999        C   28 0.977
    30  H   0.999        C   28 0.973
    31  C   3.996        C   41 1.020    C   25 1.007    H   33 0.978    H   32 0.974
    32  H   0.999        C   31 0.974
    33  H   0.999        C   31 0.978
    34  C   3.997        C   37 1.019    C   28 1.007    H   35 0.978    H   36 0.973
    35  H   0.999        C   34 0.978
    36  H   0.999        C   34 0.973
    37  C   3.997        C   34 1.019    H   39 0.988    H   38 0.987    H   40 0.985
    38  H   0.998        C   37 0.987
    39  H   0.999        C   37 0.988
    40  H   0.999        C   37 0.985
    41  C   3.996        C   31 1.020    H   43 0.988    H   42 0.987    H   44 0.987
    42  H   0.998        C   41 0.987
    43  H   0.999        C   41 0.988
    44  H   0.999        C   41 0.987
    45  H   0.998        C    5 0.971
    46  H   0.998        C    1 0.971

molecular dipole:
                 x           y           z       tot (Debye)
 q only:        0.055       0.339       0.080
   full:       -0.055      -0.021       0.466       1.193
molecular quadrupole (traceless):
                xx          xy          yy          xz          yz          zz
 q only:        6.239       0.733      -4.230       2.749      -0.079      -2.009
  q+dip:        2.005       5.081      -0.707       0.512       1.745      -1.298
   full:        3.052       4.054      -2.191       2.607      -0.369      -0.862


           -------------------------------------------------
          | TOTAL ENERGY              -56.312223778737 Eh   |
          | GRADIENT NORM               0.026045536426 Eh/α |
          | HOMO-LUMO GAP               3.845119831930 eV   |
           -------------------------------------------------

------------------------------------------------------------------------
 * finished run on 2020/08/28 at 21:00:29.273     
------------------------------------------------------------------------
 total:
 * wall-time:     0 d,  0 h,  0 min,  0.111 sec
 *  cpu-time:     0 d,  0 h,  0 min,  0.784 sec
 * ratio c/w:     7.092 speedup
 SCF:
 * wall-time:     0 d,  0 h,  0 min,  0.055 sec
 *  cpu-time:     0 d,  0 h,  0 min,  0.394 sec
 * ratio c/w:     7.170 speedup


-------------------------   --------------------
FINAL SINGLE POINT ENERGY       -56.312223778740
-------------------------   --------------------


----------------------------------------------------------------------------
                           ORCA NUMERICAL FREQUENCIES
                              (8-process run)
----------------------------------------------------------------------------

Number of atoms                ... 46
Central differences            ... used
Number of displacements        ... 276
Numerical increment            ... 5.000e-03 bohr
IR-spectrum generation         ... on
Raman-spectrum generation      ... off
Surface Crossing Hessian       ... off
List of participating nodes    ...  /tmp/slurm-scratch/freq.170/freq.hostnames

The output will be reduced. Please look at the following files:
SCF program output             ... >/tmp/slurm-scratch/freq.170/freq.lastscf
Integral program output        ... >/tmp/slurm-scratch/freq.170/freq.lastint
Gradient program output        ... >/tmp/slurm-scratch/freq.170/freq.lastgrad
Dipole moment program output   ... >/tmp/slurm-scratch/freq.170/freq.lastmom
AutoCI program output          ... >/tmp/slurm-scratch/freq.170/freq.lastautoci


         <<< Energy and Gradient at the input geometry >>>

        <<< Energy and Gradient at displaced geometries >>>
             <<<Displacing   1/coordinate 2 (+)>>>
             <<<Displacing   2/coordinate 2 (+)>>>
             <<<Displacing   1/coordinate 3 (+)>>>
             <<<Displacing   3/coordinate 2 (+)>>>
             <<<Displacing   1/coordinate 2 (-)>>>
             <<<Displacing   1/coordinate 1 (+)>>>
             <<<Displacing   2/coordinate 2 (-)>>>
             <<<Displacing   1/coordinate 3 (-)>>>
             <<<Displacing   2/coordinate 3 (+)>>>
             <<<Displacing   3/coordinate 1 (+)>>>
             <<<Displacing   3/coordinate 2 (-)>>>
             <<<Displacing   1/coordinate 1 (-)>>>
             <<<Displacing   2/coordinate 3 (-)>>>
             <<<Displacing   3/coordinate 1 (-)>>>
             <<<Displacing   2/coordinate 1 (+)>>>
             <<<Displacing   2/coordinate 1 (-)>>>
             <<<Displacing   4/coordinate 1 (+)>>>
             <<<Displacing   3/coordinate 3 (+)>>>
             <<<Displacing   4/coordinate 1 (-)>>>
             <<<Displacing   4/coordinate 3 (+)>>>
             <<<Displacing   4/coordinate 2 (+)>>>
             <<<Displacing   5/coordinate 1 (+)>>>
             <<<Displacing   3/coordinate 3 (-)>>>
             <<<Displacing   4/coordinate 2 (-)>>>
             <<<Displacing   4/coordinate 3 (-)>>>
             <<<Displacing   5/coordinate 2 (+)>>>
             <<<Displacing   5/coordinate 1 (-)>>>
             <<<Displacing   5/coordinate 3 (+)>>>
             <<<Displacing   5/coordinate 2 (-)>>>
             <<<Displacing   5/coordinate 3 (-)>>>
             <<<Displacing   6/coordinate 1 (+)>>>
             <<<Displacing   6/coordinate 1 (-)>>>
             <<<Displacing   6/coordinate 2 (+)>>>
             <<<Displacing   6/coordinate 2 (-)>>>
             <<<Displacing   7/coordinate 2 (+)>>>
             <<<Displacing   6/coordinate 3 (+)>>>
             <<<Displacing   7/coordinate 1 (+)>>>
             <<<Displacing   7/coordinate 3 (+)>>>
             <<<Displacing   7/coordinate 2 (-)>>>
             <<<Displacing   6/coordinate 3 (-)>>>
             <<<Displacing   7/coordinate 1 (-)>>>
             <<<Displacing   7/coordinate 3 (-)>>>
             <<<Displacing   8/coordinate 1 (+)>>>
             <<<Displacing   8/coordinate 1 (-)>>>
             <<<Displacing   8/coordinate 2 (+)>>>
             <<<Displacing   8/coordinate 2 (-)>>>
             <<<Displacing   8/coordinate 3 (+)>>>
             <<<Displacing   8/coordinate 3 (-)>>>
             <<<Displacing   9/coordinate 1 (+)>>>
             <<<Displacing   9/coordinate 3 (+)>>>
             <<<Displacing  10/coordinate 2 (+)>>>
             <<<Displacing   9/coordinate 2 (+)>>>
             <<<Displacing  10/coordinate 1 (+)>>>
             <<<Displacing   9/coordinate 3 (-)>>>
             <<<Displacing   9/coordinate 1 (-)>>>
             <<<Displacing  10/coordinate 3 (+)>>>
             <<<Displacing  10/coordinate 2 (-)>>>
             <<<Displacing   9/coordinate 2 (-)>>>
             <<<Displacing  10/coordinate 1 (-)>>>
             <<<Displacing  10/coordinate 3 (-)>>>
             <<<Displacing  11/coordinate 2 (+)>>>
             <<<Displacing  11/coordinate 2 (-)>>>
             <<<Displacing  11/coordinate 1 (+)>>>
             <<<Displacing  11/coordinate 1 (-)>>>
             <<<Displacing  12/coordinate 3 (+)>>>
             <<<Displacing  12/coordinate 1 (+)>>>
             <<<Displacing  12/coordinate 2 (+)>>>
             <<<Displacing  13/coordinate 1 (+)>>>
             <<<Displacing  12/coordinate 1 (-)>>>
             <<<Displacing  12/coordinate 3 (-)>>>
             <<<Displacing  11/coordinate 3 (+)>>>
             <<<Displacing  12/coordinate 2 (-)>>>
             <<<Displacing  13/coordinate 1 (-)>>>
             <<<Displacing  11/coordinate 3 (-)>>>
             <<<Displacing  13/coordinate 2 (+)>>>
             <<<Displacing  13/coordinate 2 (-)>>>
             <<<Displacing  13/coordinate 3 (+)>>>
             <<<Displacing  13/coordinate 3 (-)>>>
             <<<Displacing  14/coordinate 1 (+)>>>
             <<<Displacing  14/coordinate 1 (-)>>>
             <<<Displacing  15/coordinate 3 (+)>>>
             <<<Displacing  14/coordinate 2 (+)>>>
             <<<Displacing  14/coordinate 3 (+)>>>
             <<<Displacing  15/coordinate 3 (-)>>>
             <<<Displacing  14/coordinate 2 (-)>>>
             <<<Displacing  15/coordinate 1 (+)>>>
             <<<Displacing  14/coordinate 3 (-)>>>
             <<<Displacing  15/coordinate 2 (+)>>>
             <<<Displacing  15/coordinate 1 (-)>>>
             <<<Displacing  15/coordinate 2 (-)>>>
             <<<Displacing  16/coordinate 1 (+)>>>
             <<<Displacing  16/coordinate 1 (-)>>>
             <<<Displacing  16/coordinate 3 (+)>>>
             <<<Displacing  16/coordinate 2 (+)>>>
             <<<Displacing  16/coordinate 3 (-)>>>
             <<<Displacing  16/coordinate 2 (-)>>>
             <<<Displacing  17/coordinate 2 (+)>>>
             <<<Displacing  17/coordinate 2 (-)>>>
             <<<Displacing  17/coordinate 1 (+)>>>
             <<<Displacing  17/coordinate 3 (+)>>>
             <<<Displacing  18/coordinate 1 (+)>>>
             <<<Displacing  17/coordinate 1 (-)>>>
             <<<Displacing  17/coordinate 3 (-)>>>
             <<<Displacing  18/coordinate 2 (+)>>>
             <<<Displacing  18/coordinate 1 (-)>>>
             <<<Displacing  18/coordinate 2 (-)>>>
             <<<Displacing  18/coordinate 3 (+)>>>
             <<<Displacing  19/coordinate 1 (+)>>>
             <<<Displacing  18/coordinate 3 (-)>>>
             <<<Displacing  19/coordinate 2 (+)>>>
             <<<Displacing  19/coordinate 1 (-)>>>
             <<<Displacing  19/coordinate 2 (-)>>>
             <<<Displacing  19/coordinate 3 (+)>>>
             <<<Displacing  19/coordinate 3 (-)>>>
             <<<Displacing  20/coordinate 2 (+)>>>
             <<<Displacing  20/coordinate 1 (+)>>>
             <<<Displacing  20/coordinate 3 (+)>>>
             <<<Displacing  20/coordinate 2 (-)>>>
             <<<Displacing  20/coordinate 1 (-)>>>
             <<<Displacing  20/coordinate 3 (-)>>>
             <<<Displacing  21/coordinate 1 (+)>>>
             <<<Displacing  21/coordinate 1 (-)>>>
             <<<Displacing  21/coordinate 2 (+)>>>
             <<<Displacing  21/coordinate 2 (-)>>>
             <<<Displacing  21/coordinate 3 (+)>>>
             <<<Displacing  22/coordinate 1 (+)>>>
             <<<Displacing  21/coordinate 3 (-)>>>
             <<<Displacing  22/coordinate 1 (-)>>>
             <<<Displacing  22/coordinate 2 (+)>>>
             <<<Displacing  22/coordinate 2 (-)>>>
             <<<Displacing  23/coordinate 1 (+)>>>
             <<<Displacing  23/coordinate 1 (-)>>>
             <<<Displacing  22/coordinate 3 (+)>>>
             <<<Displacing  23/coordinate 2 (+)>>>
             <<<Displacing  22/coordinate 3 (-)>>>
             <<<Displacing  23/coordinate 3 (+)>>>
             <<<Displacing  23/coordinate 2 (-)>>>
             <<<Displacing  23/coordinate 3 (-)>>>
             <<<Displacing  24/coordinate 3 (+)>>>
             <<<Displacing  24/coordinate 3 (-)>>>
             <<<Displacing  24/coordinate 2 (+)>>>
             <<<Displacing  24/coordinate 1 (+)>>>
             <<<Displacing  24/coordinate 2 (-)>>>
             <<<Displacing  24/coordinate 1 (-)>>>
             <<<Displacing  25/coordinate 1 (+)>>>
             <<<Displacing  25/coordinate 1 (-)>>>
             <<<Displacing  25/coordinate 2 (+)>>>
             <<<Displacing  25/coordinate 2 (-)>>>
             <<<Displacing  25/coordinate 3 (+)>>>
             <<<Displacing  26/coordinate 1 (+)>>>
             <<<Displacing  26/coordinate 2 (+)>>>
             <<<Displacing  25/coordinate 3 (-)>>>
             <<<Displacing  26/coordinate 1 (-)>>>
             <<<Displacing  26/coordinate 2 (-)>>>
             <<<Displacing  26/coordinate 3 (+)>>>
             <<<Displacing  27/coordinate 1 (+)>>>
             <<<Displacing  26/coordinate 3 (-)>>>
             <<<Displacing  27/coordinate 2 (+)>>>
             <<<Displacing  27/coordinate 1 (-)>>>
             <<<Displacing  27/coordinate 2 (-)>>>
             <<<Displacing  27/coordinate 3 (+)>>>
             <<<Displacing  27/coordinate 3 (-)>>>
             <<<Displacing  28/coordinate 1 (+)>>>
             <<<Displacing  28/coordinate 3 (+)>>>
             <<<Displacing  28/coordinate 1 (-)>>>
             <<<Displacing  28/coordinate 2 (+)>>>
             <<<Displacing  28/coordinate 3 (-)>>>
             <<<Displacing  29/coordinate 1 (+)>>>
             <<<Displacing  28/coordinate 2 (-)>>>
             <<<Displacing  29/coordinate 1 (-)>>>
             <<<Displacing  29/coordinate 2 (+)>>>
             <<<Displacing  29/coordinate 2 (-)>>>
             <<<Displacing  30/coordinate 1 (+)>>>
             <<<Displacing  29/coordinate 3 (+)>>>
             <<<Displacing  30/coordinate 1 (-)>>>
             <<<Displacing  29/coordinate 3 (-)>>>
             <<<Displacing  30/coordinate 2 (+)>>>
             <<<Displacing  30/coordinate 3 (+)>>>
             <<<Displacing  30/coordinate 2 (-)>>>
             <<<Displacing  30/coordinate 3 (-)>>>
             <<<Displacing  31/coordinate 1 (+)>>>
             <<<Displacing  31/coordinate 1 (-)>>>
             <<<Displacing  31/coordinate 2 (+)>>>
             <<<Displacing  31/coordinate 2 (-)>>>
             <<<Displacing  31/coordinate 3 (+)>>>
             <<<Displacing  31/coordinate 3 (-)>>>
             <<<Displacing  32/coordinate 1 (+)>>>
             <<<Displacing  32/coordinate 2 (+)>>>
             <<<Displacing  32/coordinate 1 (-)>>>
             <<<Displacing  32/coordinate 2 (-)>>>
             <<<Displacing  32/coordinate 3 (+)>>>
             <<<Displacing  32/coordinate 3 (-)>>>
             <<<Displacing  33/coordinate 1 (+)>>>
             <<<Displacing  33/coordinate 2 (+)>>>
             <<<Displacing  33/coordinate 1 (-)>>>
             <<<Displacing  33/coordinate 2 (-)>>>
             <<<Displacing  33/coordinate 3 (+)>>>
             <<<Displacing  33/coordinate 3 (-)>>>
             <<<Displacing  34/coordinate 1 (+)>>>
             <<<Displacing  34/coordinate 3 (+)>>>
             <<<Displacing  35/coordinate 1 (+)>>>
             <<<Displacing  34/coordinate 1 (-)>>>
             <<<Displacing  34/coordinate 3 (-)>>>
             <<<Displacing  35/coordinate 1 (-)>>>
             <<<Displacing  34/coordinate 2 (+)>>>
             <<<Displacing  34/coordinate 2 (-)>>>
             <<<Displacing  35/coordinate 2 (+)>>>
             <<<Displacing  35/coordinate 2 (-)>>>
             <<<Displacing  35/coordinate 3 (+)>>>
             <<<Displacing  36/coordinate 1 (+)>>>
             <<<Displacing  35/coordinate 3 (-)>>>
             <<<Displacing  36/coordinate 1 (-)>>>
             <<<Displacing  36/coordinate 3 (+)>>>
             <<<Displacing  36/coordinate 2 (+)>>>
             <<<Displacing  36/coordinate 3 (-)>>>
             <<<Displacing  37/coordinate 2 (+)>>>
             <<<Displacing  36/coordinate 2 (-)>>>
             <<<Displacing  37/coordinate 1 (+)>>>
             <<<Displacing  37/coordinate 2 (-)>>>
             <<<Displacing  37/coordinate 1 (-)>>>
             <<<Displacing  37/coordinate 3 (+)>>>
             <<<Displacing  37/coordinate 3 (-)>>>
             <<<Displacing  38/coordinate 1 (+)>>>
             <<<Displacing  38/coordinate 1 (-)>>>
             <<<Displacing  38/coordinate 2 (+)>>>
             <<<Displacing  39/coordinate 1 (+)>>>
             <<<Displacing  38/coordinate 2 (-)>>>
             <<<Displacing  38/coordinate 3 (+)>>>
             <<<Displacing  39/coordinate 1 (-)>>>
             <<<Displacing  39/coordinate 2 (+)>>>
             <<<Displacing  39/coordinate 3 (+)>>>
             <<<Displacing  38/coordinate 3 (-)>>>
             <<<Displacing  39/coordinate 2 (-)>>>
             <<<Displacing  39/coordinate 3 (-)>>>
             <<<Displacing  40/coordinate 1 (+)>>>
             <<<Displacing  40/coordinate 2 (+)>>>
             <<<Displacing  40/coordinate 1 (-)>>>
             <<<Displacing  40/coordinate 2 (-)>>>
             <<<Displacing  40/coordinate 3 (+)>>>
             <<<Displacing  40/coordinate 3 (-)>>>
             <<<Displacing  41/coordinate 1 (+)>>>
             <<<Displacing  41/coordinate 2 (+)>>>
             <<<Displacing  42/coordinate 1 (+)>>>
             <<<Displacing  41/coordinate 1 (-)>>>
             <<<Displacing  41/coordinate 3 (+)>>>
             <<<Displacing  41/coordinate 2 (-)>>>
             <<<Displacing  42/coordinate 1 (-)>>>
             <<<Displacing  42/coordinate 2 (+)>>>
             <<<Displacing  41/coordinate 3 (-)>>>
             <<<Displacing  43/coordinate 1 (+)>>>
             <<<Displacing  42/coordinate 2 (-)>>>
             <<<Displacing  43/coordinate 1 (-)>>>
             <<<Displacing  42/coordinate 3 (+)>>>
             <<<Displacing  42/coordinate 3 (-)>>>
             <<<Displacing  43/coordinate 2 (+)>>>
             <<<Displacing  43/coordinate 2 (-)>>>
             <<<Displacing  43/coordinate 3 (+)>>>
             <<<Displacing  44/coordinate 2 (+)>>>
             <<<Displacing  44/coordinate 3 (+)>>>
             <<<Displacing  44/coordinate 1 (+)>>>
             <<<Displacing  45/coordinate 1 (+)>>>
             <<<Displacing  43/coordinate 3 (-)>>>
             <<<Displacing  44/coordinate 2 (-)>>>
             <<<Displacing  44/coordinate 1 (-)>>>
             <<<Displacing  44/coordinate 3 (-)>>>
             <<<Displacing  45/coordinate 1 (-)>>>
             <<<Displacing  45/coordinate 2 (+)>>>
             <<<Displacing  45/coordinate 3 (+)>>>
             <<<Displacing  45/coordinate 2 (-)>>>
             <<<Displacing  45/coordinate 3 (-)>>>
             <<<Displacing  46/coordinate 1 (+)>>>
             <<<Displacing  46/coordinate 1 (-)>>>
             <<<Displacing  46/coordinate 2 (+)>>>
             <<<Displacing  46/coordinate 2 (-)>>>
             <<<Displacing  46/coordinate 3 (+)>>>
             <<<Displacing  46/coordinate 3 (-)>>>

-----------------------
VIBRATIONAL FREQUENCIES
-----------------------

Scaling factor for frequencies =  1.000000000 (already applied!)

   0:         0.00 cm**-1
   1:         0.00 cm**-1
   2:         0.00 cm**-1
   3:         0.00 cm**-1
   4:         0.00 cm**-1
   5:         0.00 cm**-1
   6:       -37.79 cm**-1 ***imaginary mode***
   7:        20.47 cm**-1
   8:        37.75 cm**-1
   9:        51.45 cm**-1
  10:        63.28 cm**-1
  11:        65.10 cm**-1
  12:        73.74 cm**-1
  13:        86.86 cm**-1
  14:        96.95 cm**-1
  15:       108.22 cm**-1
  16:       130.07 cm**-1
  17:       132.68 cm**-1
  18:       139.02 cm**-1
  19:       152.07 cm**-1
  20:       164.63 cm**-1
  21:       200.55 cm**-1
  22:       212.48 cm**-1
  23:       237.98 cm**-1
  24:       259.90 cm**-1
  25:       266.97 cm**-1
  26:       271.91 cm**-1
  27:       322.76 cm**-1
  28:       348.46 cm**-1
  29:       371.93 cm**-1
  30:       380.86 cm**-1
  31:       384.05 cm**-1
  32:       390.66 cm**-1
  33:       425.18 cm**-1
  34:       432.08 cm**-1
  35:       520.99 cm**-1
  36:       546.30 cm**-1
  37:       589.64 cm**-1
  38:       611.63 cm**-1
  39:       677.61 cm**-1
  40:       745.12 cm**-1
  41:       760.57 cm**-1
  42:       768.04 cm**-1
  43:       771.37 cm**-1
  44:       810.62 cm**-1
  45:       824.06 cm**-1
  46:       845.44 cm**-1
  47:       884.96 cm**-1
  48:       911.94 cm**-1
  49:       919.11 cm**-1
  50:       922.10 cm**-1
  51:       932.64 cm**-1
  52:       934.02 cm**-1
  53:       941.77 cm**-1
  54:       942.87 cm**-1
  55:       950.82 cm**-1
  56:       971.81 cm**-1
  57:       984.12 cm**-1
  58:      1012.75 cm**-1
  59:      1038.46 cm**-1
  60:      1058.74 cm**-1
  61:      1067.40 cm**-1
  62:      1073.59 cm**-1
  63:      1085.91 cm**-1
  64:      1103.94 cm**-1
  65:      1106.85 cm**-1
  66:      1109.85 cm**-1
  67:      1113.81 cm**-1
  68:      1120.31 cm**-1
  69:      1133.71 cm**-1
  70:      1135.64 cm**-1
  71:      1179.94 cm**-1
  72:      1189.53 cm**-1
  73:      1200.01 cm**-1
  74:      1203.98 cm**-1
  75:      1204.84 cm**-1
  76:      1229.26 cm**-1
  77:      1252.14 cm**-1
  78:      1260.23 cm**-1
  79:      1264.24 cm**-1
  80:      1269.06 cm**-1
  81:      1271.37 cm**-1
  82:      1274.64 cm**-1
  83:      1279.55 cm**-1
  84:      1281.79 cm**-1
  85:      1286.51 cm**-1
  86:      1306.59 cm**-1
  87:      1310.03 cm**-1
  88:      1332.73 cm**-1
  89:      1340.46 cm**-1
  90:      1370.04 cm**-1
  91:      1374.08 cm**-1
  92:      1392.72 cm**-1
  93:      1424.77 cm**-1
  94:      1426.30 cm**-1
  95:      1428.93 cm**-1
  96:      1462.46 cm**-1
  97:      1490.35 cm**-1
  98:      1494.84 cm**-1
  99:      1496.60 cm**-1
 100:      1501.47 cm**-1
 101:      1505.64 cm**-1
 102:      1506.21 cm**-1
 103:      1508.65 cm**-1
 104:      1511.64 cm**-1
 105:      1513.34 cm**-1
 106:      1513.90 cm**-1
 107:      1565.47 cm**-1
 108:      1567.96 cm**-1
 109:      1576.61 cm**-1
 110:      2899.76 cm**-1
 111:      2927.33 cm**-1
 112:      2930.60 cm**-1
 113:      2939.71 cm**-1
 114:      2942.59 cm**-1
 115:      2948.69 cm**-1
 116:      2950.49 cm**-1
 117:      2958.63 cm**-1
 118:      2961.20 cm**-1
 119:      2965.99 cm**-1
 120:      2970.06 cm**-1
 121:      2973.12 cm**-1
 122:      2974.46 cm**-1
 123:      2980.75 cm**-1
 124:      2981.76 cm**-1
 125:      2986.50 cm**-1
 126:      2987.59 cm**-1
 127:      2998.19 cm**-1
 128:      2999.54 cm**-1
 129:      3047.39 cm**-1
 130:      3053.66 cm**-1
 131:      3058.56 cm**-1
 132:      3068.00 cm**-1
 133:      3072.97 cm**-1
 134:      3369.71 cm**-1
 135:      3383.10 cm**-1
 136:      3407.84 cm**-1
 137:      3514.67 cm**-1


------------
NORMAL MODES
------------

These modes are the cartesian displacements weighted by the diagonal matrix
M(i,i)=1/sqrt(m[i]) where m[i] is the mass of the displaced atom
Thus, these vectors are normalized but *not* orthogonal

                  0          1          2          3          4          5    
      0       0.000000   0.000000   0.000000   0.000000   0.000000   0.000000
      1       0.000000   0.000000   0.000000   0.000000   0.000000   0.000000
      2       0.000000   0.000000   0.000000   0.000000   0.000000   0.000000
      3       0.000000   0.000000   0.000000   0.000000   0.000000   0.000000
      4       0.000000   0.000000   0.000000   0.000000   0.000000   0.000000
      5       0.000000   0.000000   0.000000   0.000000   0.000000   0.000000
      6       0.000000   0.000000   0.000000   0.000000   0.000000   0.000000
      7       0.000000   0.000000   0.000000   0.000000   0.000000   0.000000
      8       0.000000   0.000000   0.000000   0.000000   0.000000   0.000000
      9       0.000000   0.000000   0.000000   0.000000   0.000000   0.000000
     10       0.000000   0.000000   0.000000   0.000000   0.000000   0.000000
     11       0.000000   0.000000   0.000000   0.000000   0.000000   0.000000
     12       0.000000   0.000000   0.000000   0.000000   0.000000   0.000000
     13       0.000000   0.000000   0.000000   0.000000   0.000000   0.000000
     14       0.000000   0.000000   0.000000   0.000000   0.000000   0.000000
     15       0.000000   0.000000   0.000000   0.000000   0.000000   0.000000
     16       0.000000   0.000000   0.000000   0.000000   0.000000   0.000000
     17       0.000000   0.000000   0.000000   0.000000   0.000000   0.000000
     18       0.000000   0.000000   0.000000   0.000000   0.000000   0.000000
     19       0.000000   0.000000   0.000000   0.000000   0.000000   0.000000
     20       0.000000   0.000000   0.000000   0.000000   0.000000   0.000000
     21       0.000000   0.000000   0.000000   0.000000   0.000000   0.000000
     22       0.000000   0.000000   0.000000   0.000000   0.000000   0.000000
     23       0.000000   0.000000   0.000000   0.000000   0.000000   0.000000
     24       0.000000   0.000000   0.000000   0.000000   0.000000   0.000000
     25       0.000000   0.000000   0.000000   0.000000   0.000000   0.000000
     26       0.000000   0.000000   0.000000   0.000000   0.000000   0.000000
     27       0.000000   0.000000   0.000000   0.000000   0.000000   0.000000
     28       0.000000   0.000000   0.000000   0.000000   0.000000   0.000000
     29       0.000000   0.000000   0.000000   0.000000   0.000000   0.000000
     30       0.000000   0.000000   0.000000   0.000000   0.000000   0.000000
     31       0.000000   0.000000   0.000000   0.000000   0.000000   0.000000
     32       0.000000   0.000000   0.000000   0.000000   0.000000   0.000000
     33       0.000000   0.000000   0.000000   0.000000   0.000000   0.000000
     34       0.000000   0.000000   0.000000   0.000000   0.000000   0.000000
     35       0.000000   0.000000   0.000000   0.000000   0.000000   0.000000
     36       0.000000   0.000000   0.000000   0.000000   0.000000   0.000000
     37       0.000000   0.000000   0.000000   0.000000   0.000000   0.000000
     38       0.000000   0.000000   0.000000   0.000000   0.000000   0.000000
     39       0.000000   0.000000   0.000000   0.000000   0.000000   0.000000
     40       0.000000   0.000000   0.000000   0.000000   0.000000   0.000000
     41       0.000000   0.000000   0.000000   0.000000   0.000000   0.000000
     42       0.000000   0.000000   0.000000   0.000000   0.000000   0.000000
     43       0.000000   0.000000   0.000000   0.000000   0.000000   0.000000
     44       0.000000   0.000000   0.000000   0.000000   0.000000   0.000000
     45       0.000000   0.000000   0.000000   0.000000   0.000000   0.000000
     46       0.000000   0.000000   0.000000   0.000000   0.000000   0.000000
     47       0.000000   0.000000   0.000000   0.000000   0.000000   0.000000
     48       0.000000   0.000000   0.000000   0.000000   0.000000   0.000000
     49       0.000000   0.000000   0.000000   0.000000   0.000000   0.000000
     50       0.000000   0.000000   0.000000   0.000000   0.000000   0.000000
     51       0.000000   0.000000   0.000000   0.000000   0.000000   0.000000
     52       0.000000   0.000000   0.000000   0.000000   0.000000   0.000000
     53       0.000000   0.000000   0.000000   0.000000   0.000000   0.000000
     54       0.000000   0.000000   0.000000   0.000000   0.000000   0.000000
     55       0.000000   0.000000   0.000000   0.000000   0.000000   0.000000
     56       0.000000   0.000000   0.000000   0.000000   0.000000   0.000000
     57       0.000000   0.000000   0.000000   0.000000   0.000000   0.000000
     58       0.000000   0.000000   0.000000   0.000000   0.000000   0.000000
     59       0.000000   0.000000   0.000000   0.000000   0.000000   0.000000
     60       0.000000   0.000000   0.000000   0.000000   0.000000   0.000000
     61       0.000000   0.000000   0.000000   0.000000   0.000000   0.000000
     62       0.000000   0.000000   0.000000   0.000000   0.000000   0.000000
     63       0.000000   0.000000   0.000000   0.000000   0.000000   0.000000
     64       0.000000   0.000000   0.000000   0.000000   0.000000   0.000000
     65       0.000000   0.000000   0.000000   0.000000   0.000000   0.000000
     66       0.000000   0.000000   0.000000   0.000000   0.000000   0.000000
     67       0.000000   0.000000   0.000000   0.000000   0.000000   0.000000
     68       0.000000   0.000000   0.000000   0.000000   0.000000   0.000000
     69       0.000000   0.000000   0.000000   0.000000   0.000000   0.000000
     70       0.000000   0.000000   0.000000   0.000000   0.000000   0.000000
     71       0.000000   0.000000   0.000000   0.000000   0.000000   0.000000
     72       0.000000   0.000000   0.000000   0.000000   0.000000   0.000000
     73       0.000000   0.000000   0.000000   0.000000   0.000000   0.000000
     74       0.000000   0.000000   0.000000   0.000000   0.000000   0.000000
     75       0.000000   0.000000   0.000000   0.000000   0.000000   0.000000
     76       0.000000   0.000000   0.000000   0.000000   0.000000   0.000000
     77       0.000000   0.000000   0.000000   0.000000   0.000000   0.000000
     78       0.000000   0.000000   0.000000   0.000000   0.000000   0.000000
     79       0.000000   0.000000   0.000000   0.000000   0.000000   0.000000
     80       0.000000   0.000000   0.000000   0.000000   0.000000   0.000000
     81       0.000000   0.000000   0.000000   0.000000   0.000000   0.000000
     82       0.000000   0.000000   0.000000   0.000000   0.000000   0.000000
     83       0.000000   0.000000   0.000000   0.000000   0.000000   0.000000
     84       0.000000   0.000000   0.000000   0.000000   0.000000   0.000000
     85       0.000000   0.000000   0.000000   0.000000   0.000000   0.000000
     86       0.000000   0.000000   0.000000   0.000000   0.000000   0.000000
     87       0.000000   0.000000   0.000000   0.000000   0.000000   0.000000
     88       0.000000   0.000000   0.000000   0.000000   0.000000   0.000000
     89       0.000000   0.000000   0.000000   0.000000   0.000000   0.000000
     90       0.000000   0.000000   0.000000   0.000000   0.000000   0.000000
     91       0.000000   0.000000   0.000000   0.000000   0.000000   0.000000
     92       0.000000   0.000000   0.000000   0.000000   0.000000   0.000000
     93       0.000000   0.000000   0.000000   0.000000   0.000000   0.000000
     94       0.000000   0.000000   0.000000   0.000000   0.000000   0.000000
     95       0.000000   0.000000   0.000000   0.000000   0.000000   0.000000
     96       0.000000   0.000000   0.000000   0.000000   0.000000   0.000000
     97       0.000000   0.000000   0.000000   0.000000   0.000000   0.000000
     98       0.000000   0.000000   0.000000   0.000000   0.000000   0.000000
     99       0.000000   0.000000   0.000000   0.000000   0.000000   0.000000
    100       0.000000   0.000000   0.000000   0.000000   0.000000   0.000000
    101       0.000000   0.000000   0.000000   0.000000   0.000000   0.000000
    102       0.000000   0.000000   0.000000   0.000000   0.000000   0.000000
    103       0.000000   0.000000   0.000000   0.000000   0.000000   0.000000
    104       0.000000   0.000000   0.000000   0.000000   0.000000   0.000000
    105       0.000000   0.000000   0.000000   0.000000   0.000000   0.000000
    106       0.000000   0.000000   0.000000   0.000000   0.000000   0.000000
    107       0.000000   0.000000   0.000000   0.000000   0.000000   0.000000
    108       0.000000   0.000000   0.000000   0.000000   0.000000   0.000000
    109       0.000000   0.000000   0.000000   0.000000   0.000000   0.000000
    110       0.000000   0.000000   0.000000   0.000000   0.000000   0.000000
    111       0.000000   0.000000   0.000000   0.000000   0.000000   0.000000
    112       0.000000   0.000000   0.000000   0.000000   0.000000   0.000000
    113       0.000000   0.000000   0.000000   0.000000   0.000000   0.000000
    114       0.000000   0.000000   0.000000   0.000000   0.000000   0.000000
    115       0.000000   0.000000   0.000000   0.000000   0.000000   0.000000
    116       0.000000   0.000000   0.000000   0.000000   0.000000   0.000000
    117       0.000000   0.000000   0.000000   0.000000   0.000000   0.000000
    118       0.000000   0.000000   0.000000   0.000000   0.000000   0.000000
    119       0.000000   0.000000   0.000000   0.000000   0.000000   0.000000
    120       0.000000   0.000000   0.000000   0.000000   0.000000   0.000000
    121       0.000000   0.000000   0.000000   0.000000   0.000000   0.000000
    122       0.000000   0.000000   0.000000   0.000000   0.000000   0.000000
    123       0.000000   0.000000   0.000000   0.000000   0.000000   0.000000
    124       0.000000   0.000000   0.000000   0.000000   0.000000   0.000000
    125       0.000000   0.000000   0.000000   0.000000   0.000000   0.000000
    126       0.000000   0.000000   0.000000   0.000000   0.000000   0.000000
    127       0.000000   0.000000   0.000000   0.000000   0.000000   0.000000
    128       0.000000   0.000000   0.000000   0.000000   0.000000   0.000000
    129       0.000000   0.000000   0.000000   0.000000   0.000000   0.000000
    130       0.000000   0.000000   0.000000   0.000000   0.000000   0.000000
    131       0.000000   0.000000   0.000000   0.000000   0.000000   0.000000
    132       0.000000   0.000000   0.000000   0.000000   0.000000   0.000000
    133       0.000000   0.000000   0.000000   0.000000   0.000000   0.000000
    134       0.000000   0.000000   0.000000   0.000000   0.000000   0.000000
    135       0.000000   0.000000   0.000000   0.000000   0.000000   0.000000
    136       0.000000   0.000000   0.000000   0.000000   0.000000   0.000000
    137       0.000000   0.000000   0.000000   0.000000   0.000000   0.000000
                  6          7          8          9         10         11    
      0       0.006333  -0.063462   0.044143   0.051778  -0.100543   0.037105
      1      -0.006780  -0.044027  -0.063908  -0.103453   0.036670   0.001304
      2       0.006673  -0.034108  -0.099121   0.046211  -0.068665   0.024934
      3       0.005426  -0.061684   0.046664   0.036075  -0.039234   0.010147
      4      -0.001736  -0.040580  -0.005249  -0.068365  -0.021330   0.024539
      5       0.008225  -0.028789  -0.058830   0.036602   0.016426  -0.013640
      6      -0.000296  -0.066562  -0.004195  -0.020333  -0.008344   0.003514
      7       0.001783  -0.039127   0.007647  -0.031090  -0.044973   0.029385
      8       0.006833  -0.025316  -0.008565   0.001117   0.049900  -0.020903
      9      -0.006374  -0.073390  -0.058244  -0.057594  -0.041372   0.025834
     10       0.000082  -0.040617  -0.040171  -0.031127  -0.010196   0.010225
     11       0.004163  -0.028389  -0.000983  -0.023727  -0.003430   0.010953
     12      -0.005082  -0.074750  -0.060198  -0.039769  -0.103727   0.052879
     13      -0.005253  -0.044080  -0.098600  -0.067625   0.048719  -0.013107
     14       0.003608  -0.033433  -0.040880  -0.011112  -0.089250   0.049473
     15       0.001040  -0.069598  -0.008919   0.014566  -0.134139   0.059080
     16      -0.008465  -0.046055  -0.111205  -0.103351   0.072511  -0.017997
     17       0.004780  -0.036295  -0.089915   0.022382  -0.122824   0.056850
     18       0.009118  -0.056603   0.088247   0.067292  -0.016474  -0.004740
     19      -0.000637  -0.039126   0.031529  -0.067538  -0.046428   0.039070
     20       0.009556  -0.026829  -0.065516   0.056213   0.054114  -0.036390
     21      -0.014682  -0.074740  -0.097838  -0.098495  -0.020038   0.022173
     22       0.004224  -0.040064  -0.030701  -0.002023  -0.025904   0.013012
     23       0.002587  -0.026955   0.036485  -0.057452   0.018548   0.006714
     24       0.001661  -0.070524  -0.010522   0.027064  -0.183059   0.080369
     25      -0.012006  -0.048992  -0.157416  -0.130924   0.118897  -0.036927
     26       0.003817  -0.039918  -0.120834   0.030336  -0.191061   0.087286
     27       0.004708  -0.070301  -0.009686  -0.027265   0.025641  -0.007077
     28       0.021332  -0.002619   0.034028   0.018222  -0.144415  -0.018846
     29      -0.002534   0.003000   0.039551  -0.006227   0.086024  -0.068913
     30       0.007855   0.144098  -0.071537   0.031115  -0.043610  -0.050279
     31      -0.079982  -0.133616   0.030126   0.153166   0.087406   0.072070
     32       0.029982   0.035015   0.175187  -0.097029   0.032900  -0.002709
     33      -0.000410  -0.070344  -0.001859  -0.030635   0.008722  -0.001265
     34      -0.061072   0.009661  -0.003897   0.082314  -0.070749  -0.011411
     35      -0.054252   0.007574   0.043400   0.016775   0.064805  -0.047696
     36       0.001600  -0.101699   0.024804  -0.030636  -0.050038   0.002054
     37      -0.097849   0.001613  -0.012241   0.111796  -0.051258  -0.006275
     38      -0.220395  -0.051647   0.024929   0.150292   0.111859  -0.022287
     39      -0.016458  -0.041967  -0.009472  -0.032335   0.000871   0.015659
     40      -0.203360  -0.040439  -0.023092   0.199351  -0.019413   0.007022
     41       0.028278   0.040142   0.053780  -0.052626   0.033224  -0.056701
     42       0.043667  -0.087179   0.003119  -0.049345   0.034173   0.001702
     43       0.089467   0.018570   0.028209  -0.025775  -0.189961  -0.068462
     44      -0.033183  -0.010897   0.044594   0.014125   0.112978  -0.040741
     45       0.006581   0.160153  -0.003024   0.073980  -0.002313  -0.013276
     46       0.029993  -0.117952   0.104360   0.215132   0.104895   0.055550
     47      -0.028139   0.026793   0.137680  -0.130001   0.024201   0.007049
     48      -0.010824  -0.084318  -0.000219  -0.075897   0.092110   0.005739
     49      -0.001811  -0.046724   0.125597   0.013237  -0.033445   0.091970
     50      -0.007911  -0.026294   0.122002   0.032726   0.137603   0.025600
     51      -0.021680   0.182170   0.035922   0.021661  -0.005097  -0.017308
     52       0.081156  -0.072931   0.126187   0.134808   0.045830  -0.026595
     53       0.038776   0.011441   0.086999  -0.083507   0.003197  -0.021829
     54       0.004478   0.173778   0.133473  -0.007054   0.023290   0.025356
     55       0.270663  -0.075302   0.240580   0.109799   0.025630  -0.048488
     56      -0.045877   0.012060   0.043392  -0.073961   0.015265  -0.007810
     57      -0.101267   0.225994  -0.009234  -0.038204  -0.041794  -0.072410
     58       0.108496  -0.072124   0.142422   0.130286   0.041934  -0.031081
     59       0.238499   0.013482   0.204675  -0.117028  -0.025099  -0.051940
     60      -0.003461  -0.064184   0.001312  -0.033604   0.026675  -0.010717
     61       0.004256  -0.032862   0.072546   0.011535  -0.081398   0.043201
     62       0.001208  -0.015610   0.040101  -0.000850   0.100305  -0.042076
     63      -0.005074  -0.044486   0.028278  -0.021381   0.015328  -0.038160
     64      -0.003976  -0.045311   0.134095   0.029595  -0.053568   0.084418
     65       0.006963  -0.004188   0.004063  -0.011216   0.079293  -0.073538
     66      -0.009771  -0.075553  -0.014463  -0.065242   0.074572   0.002267
     67       0.001834  -0.038070   0.098435   0.017142  -0.070154   0.060321
     68      -0.008211  -0.034166   0.131283   0.021630   0.148080   0.021197
     69       0.052565   0.130226   0.024816   0.181953   0.052506   0.039428
     70       0.006111  -0.122164   0.088541   0.205278   0.103258   0.060781
     71      -0.156002   0.009250   0.052545  -0.191172   0.009397   0.027674
     72       0.008591  -0.066878  -0.018676  -0.029196   0.081193  -0.026337
     73       0.080073   0.097777  -0.012257  -0.041193  -0.061377  -0.025842
     74       0.001787   0.045103   0.056732  -0.042552  -0.007601  -0.028000
     75       0.028653  -0.093576   0.001709  -0.024681   0.081763  -0.117898
     76       0.224447   0.142514   0.021718  -0.151117  -0.137459  -0.107510
     77      -0.074193   0.016223   0.041598   0.018348   0.034085   0.001441
     78      -0.001781  -0.034618  -0.058293  -0.033783   0.177540   0.030382
     79       0.110081   0.103017  -0.001393  -0.062627  -0.085936  -0.048823
     80       0.160686   0.098816   0.087293  -0.165257  -0.071991  -0.112990
     81       0.010766   0.161736   0.007244   0.081642   0.002543  -0.006889
     82      -0.121025  -0.021831  -0.003855   0.090564   0.016003  -0.078117
     83      -0.029946   0.002220  -0.061343   0.010235  -0.001340  -0.034758
     84       0.055539   0.109118   0.041993   0.162046   0.042014   0.051648
     85      -0.150609  -0.024881  -0.018442   0.100463   0.020821  -0.072365
     86      -0.275644  -0.020451  -0.183599   0.089258   0.036023   0.008856
     87       0.014989   0.186950  -0.087623   0.103762  -0.028170  -0.055694
     88      -0.349678  -0.039474  -0.118224   0.158013   0.047051  -0.041710
     89       0.072219   0.012012  -0.017432  -0.018173  -0.017509  -0.054279
     90       0.006158  -0.070266  -0.009722  -0.030207   0.036632  -0.013347
     91      -0.012376   0.117297  -0.080617   0.010084   0.094322   0.106206
     92      -0.052769   0.045581   0.047493  -0.018181  -0.063574   0.081434
     93       0.033379  -0.091568   0.031968  -0.039167  -0.083864  -0.093576
     94      -0.043437   0.113545  -0.091133   0.032864   0.111454   0.114180
     95      -0.162731   0.023184   0.024082   0.066138  -0.044121   0.084095
     96      -0.028105  -0.055397  -0.035110  -0.022549   0.054703   0.112525
     97      -0.109856   0.101426  -0.108303   0.084082   0.134947   0.119338
     98       0.002210   0.058580   0.059994  -0.063652  -0.085789   0.098460
     99      -0.020452   0.178570   0.054372   0.009727  -0.002586  -0.011175
    100       0.025726   0.053987   0.042721  -0.053595  -0.057749  -0.178877
    101       0.087476   0.015348  -0.108056   0.045811  -0.030161  -0.078362
    102      -0.053461   0.158148   0.119477  -0.025407   0.009692   0.020326
    103       0.205120   0.080879   0.113693  -0.141320  -0.113825  -0.238370
    104       0.002743   0.001518  -0.135936   0.083667  -0.003339  -0.048490
    105      -0.026714   0.222086   0.053308  -0.058572  -0.024812  -0.051414
    106       0.053238   0.058055   0.053770  -0.066805  -0.065970  -0.186669
    107       0.284994   0.048168  -0.030417  -0.056456  -0.093435  -0.146350
    108       0.000829   0.164683   0.018206   0.071395   0.003951  -0.004473
    109      -0.088421   0.086321  -0.011634  -0.065447  -0.045476  -0.186386
    110       0.060883   0.006661  -0.215014   0.163760  -0.009423  -0.069236
    111      -0.016722   0.174999   0.051751   0.017708  -0.001266  -0.008641
    112      -0.021636   0.124391   0.007997  -0.146408  -0.087686  -0.256997
    113       0.120567   0.012444  -0.251433   0.195836  -0.024418  -0.100761
    114       0.022044   0.129943   0.025877   0.126500   0.019787   0.033431
    115      -0.105959   0.086130  -0.018757  -0.059468  -0.040251  -0.180518
    116      -0.081129  -0.013426  -0.273598   0.245533   0.044324   0.001172
    117       0.011512   0.179956  -0.050174   0.116329  -0.000860  -0.031771
    118      -0.221487   0.070865  -0.062461   0.001610   0.002554  -0.122959
    119       0.124062   0.015432  -0.198770   0.137407  -0.031953  -0.101046
    120       0.013520  -0.066002  -0.021114  -0.030476   0.124017  -0.060493
    121       0.059437   0.159028  -0.098493  -0.062206   0.178975   0.213441
    122      -0.035889   0.055479   0.052625  -0.042508  -0.121882   0.164633
    123       0.011613  -0.068583  -0.015959  -0.030009   0.089527  -0.048095
    124       0.022269   0.171257  -0.130186  -0.043889   0.265209   0.278135
    125      -0.058670   0.054332   0.051560  -0.032607  -0.174160   0.228749
    126       0.006771  -0.046401  -0.050184  -0.035482   0.227181  -0.001388
    127       0.080908   0.162772  -0.093311  -0.079001   0.171419   0.214912
    128       0.041555   0.074379   0.064289  -0.105855  -0.123068   0.185534
    129       0.026704  -0.078729  -0.005356  -0.026522   0.120427  -0.166119
    130       0.127107   0.172624  -0.084791  -0.115857   0.162862   0.226041
    131      -0.079261   0.044430   0.045931  -0.006142  -0.111842   0.140245
    132      -0.009221  -0.080055  -0.101265  -0.069709  -0.128367   0.069521
    133      -0.006117  -0.046064  -0.134593  -0.068272   0.076430  -0.027821
    134       0.001731  -0.034997  -0.034067  -0.029685  -0.130604   0.073697
    135       0.011053  -0.059749   0.083006   0.092760  -0.123379   0.041122
    136      -0.009118  -0.045249  -0.072856  -0.130616   0.054909  -0.002311
    137       0.006816  -0.036254  -0.136977   0.072792  -0.094936   0.031082
                 12         13         14         15         16         17    
      0      -0.127747   0.016303   0.039110   0.023815  -0.002765  -0.008073
      1       0.083900  -0.012582   0.002905  -0.009622  -0.001654   0.005753
      2      -0.160852   0.058265  -0.010732  -0.020095  -0.010264  -0.021620
      3      -0.128486  -0.008024   0.039029   0.018710   0.007105   0.011809
      4       0.078304  -0.015471   0.046589   0.021285  -0.002816   0.008634
      5      -0.167051   0.009326   0.017095  -0.010577   0.008558   0.019550
      6      -0.001799  -0.016550  -0.004333  -0.005123   0.006910   0.009029
      7      -0.029059   0.002931   0.062848   0.028207  -0.005284   0.003995
      8       0.002512  -0.046599   0.039921   0.008977   0.019506   0.046284
      9       0.118368   0.001918  -0.047064  -0.022591  -0.002509  -0.011976
     10      -0.122618   0.022156   0.034680   0.005335  -0.007924  -0.008031
     11       0.167645  -0.053054   0.037688   0.018259   0.015605   0.044089
     12       0.120868   0.025413  -0.049150  -0.018454  -0.011838  -0.032486
     13      -0.117723   0.025775  -0.009126  -0.025951  -0.006987  -0.011095
     14       0.174175  -0.004870   0.008827   0.008238  -0.001696   0.003969
     15       0.001217   0.032985  -0.006349   0.005452  -0.013129  -0.033845
     16      -0.018007   0.008085  -0.023830  -0.033132  -0.002799  -0.001156
     17       0.014594   0.050750  -0.015434  -0.010354  -0.016105  -0.032262
     18      -0.227954  -0.018156   0.074361   0.034570   0.013315   0.026529
     19       0.153080  -0.030456   0.068549   0.040158  -0.001684   0.014983
     20      -0.299907   0.016849   0.019992  -0.017524   0.011286   0.022932
     21       0.203567   0.001013  -0.079260  -0.036372  -0.005141  -0.018869
     22      -0.191110   0.031926   0.044210   0.008851  -0.008176  -0.010822
     23       0.278173  -0.090158   0.060629   0.032517   0.021714   0.067637
     24       0.004936   0.051854  -0.007612   0.009384  -0.021867  -0.052806
     25      -0.015814   0.009200  -0.056428  -0.057035  -0.000126   0.001312
     26       0.023085   0.088499  -0.037480  -0.016892  -0.031654  -0.068054
     27      -0.001569  -0.016682   0.001064  -0.008911   0.009546   0.025602
     28      -0.036522  -0.192244   0.000024  -0.013797   0.067854   0.105407
[...]
  13:        86.86    0.000000  (  0.000000   0.000000   0.000000)
  14:        96.95    0.000000  (  0.000000   0.000000   0.000000)
  15:       108.22    0.000000  (  0.000000   0.000000   0.000000)
  16:       130.07    0.000000  (  0.000000   0.000000   0.000000)
  17:       132.68    0.000000  (  0.000000   0.000000   0.000000)
  18:       139.02    0.000000  (  0.000000   0.000000   0.000000)
  19:       152.07    0.000000  (  0.000000   0.000000   0.000000)
  20:       164.63    0.000000  (  0.000000   0.000000   0.000000)
  21:       200.55    0.000000  (  0.000000   0.000000   0.000000)
  22:       212.48    0.000000  (  0.000000   0.000000   0.000000)
  23:       237.98    0.000000  (  0.000000   0.000000   0.000000)
  24:       259.90    0.000000  (  0.000000   0.000000   0.000000)
  25:       266.97    0.000000  (  0.000000   0.000000   0.000000)
  26:       271.91    0.000000  (  0.000000   0.000000   0.000000)
  27:       322.76    0.000000  (  0.000000   0.000000   0.000000)
  28:       348.46    0.000000  (  0.000000   0.000000   0.000000)
  29:       371.93    0.000000  (  0.000000   0.000000   0.000000)
  30:       380.86    0.000000  (  0.000000   0.000000   0.000000)
  31:       384.05    0.000000  (  0.000000   0.000000   0.000000)
  32:       390.66    0.000000  (  0.000000   0.000000   0.000000)
  33:       425.18    0.000000  (  0.000000   0.000000   0.000000)
  34:       432.08    0.000000  (  0.000000   0.000000   0.000000)
  35:       520.99    0.000000  (  0.000000   0.000000   0.000000)
  36:       546.30    0.000000  (  0.000000   0.000000   0.000000)
  37:       589.64    0.000000  (  0.000000   0.000000   0.000000)
  38:       611.63    0.000000  (  0.000000   0.000000   0.000000)
  39:       677.61    0.000000  (  0.000000   0.000000   0.000000)
  40:       745.12    0.000000  (  0.000000   0.000000   0.000000)
  41:       760.57    0.000000  (  0.000000   0.000000   0.000000)
  42:       768.04    0.000000  (  0.000000   0.000000   0.000000)
  43:       771.37    0.000000  (  0.000000   0.000000   0.000000)
  44:       810.62    0.000000  (  0.000000   0.000000   0.000000)
  45:       824.06    0.000000  (  0.000000   0.000000   0.000000)
  46:       845.44    0.000000  (  0.000000   0.000000   0.000000)
  47:       884.96    0.000000  (  0.000000   0.000000   0.000000)
  48:       911.94    0.000000  (  0.000000   0.000000   0.000000)
  49:       919.11    0.000000  (  0.000000   0.000000   0.000000)
  50:       922.10    0.000000  (  0.000000   0.000000   0.000000)
  51:       932.64    0.000000  (  0.000000   0.000000   0.000000)
  52:       934.02    0.000000  (  0.000000   0.000000   0.000000)
  53:       941.77    0.000000  (  0.000000   0.000000   0.000000)
  54:       942.87    0.000000  (  0.000000   0.000000   0.000000)
  55:       950.82    0.000000  (  0.000000   0.000000   0.000000)
  56:       971.81    0.000000  (  0.000000   0.000000   0.000000)
  57:       984.12    0.000000  (  0.000000   0.000000   0.000000)
  58:      1012.75    0.000000  (  0.000000   0.000000   0.000000)
  59:      1038.46    0.000000  (  0.000000   0.000000   0.000000)
  60:      1058.74    0.000000  (  0.000000   0.000000   0.000000)
  61:      1067.40    0.000000  (  0.000000   0.000000   0.000000)
  62:      1073.59    0.000000  (  0.000000   0.000000   0.000000)
  63:      1085.91    0.000000  (  0.000000   0.000000   0.000000)
  64:      1103.94    0.000000  (  0.000000   0.000000   0.000000)
  65:      1106.85    0.000000  (  0.000000   0.000000   0.000000)
  66:      1109.85    0.000000  (  0.000000   0.000000   0.000000)
  67:      1113.81    0.000000  (  0.000000   0.000000   0.000000)
  68:      1120.31    0.000000  (  0.000000   0.000000   0.000000)
  69:      1133.71    0.000000  (  0.000000   0.000000   0.000000)
  70:      1135.64    0.000000  (  0.000000   0.000000   0.000000)
  71:      1179.94    0.000000  (  0.000000   0.000000   0.000000)
  72:      1189.53    0.000000  (  0.000000   0.000000   0.000000)
  73:      1200.01    0.000000  (  0.000000   0.000000   0.000000)
  74:      1203.98    0.000000  (  0.000000   0.000000   0.000000)
  75:      1204.84    0.000000  (  0.000000   0.000000   0.000000)
  76:      1229.26    0.000000  (  0.000000   0.000000   0.000000)
  77:      1252.14    0.000000  (  0.000000   0.000000   0.000000)
  78:      1260.23    0.000000  (  0.000000   0.000000   0.000000)
  79:      1264.24    0.000000  (  0.000000   0.000000   0.000000)
  80:      1269.06    0.000000  (  0.000000   0.000000   0.000000)
  81:      1271.37    0.000000  (  0.000000   0.000000   0.000000)
  82:      1274.64    0.000000  (  0.000000   0.000000   0.000000)
  83:      1279.55    0.000000  (  0.000000   0.000000   0.000000)
  84:      1281.79    0.000000  (  0.000000   0.000000   0.000000)
  85:      1286.51    0.000000  (  0.000000   0.000000   0.000000)
  86:      1306.59    0.000000  (  0.000000   0.000000   0.000000)
  87:      1310.03    0.000000  (  0.000000   0.000000   0.000000)
  88:      1332.73    0.000000  (  0.000000   0.000000   0.000000)
  89:      1340.46    0.000000  (  0.000000   0.000000   0.000000)
  90:      1370.04    0.000000  (  0.000000   0.000000   0.000000)
  91:      1374.08    0.000000  (  0.000000   0.000000   0.000000)
  92:      1392.72    0.000000  (  0.000000   0.000000   0.000000)
  93:      1424.77    0.000000  (  0.000000   0.000000   0.000000)
  94:      1426.30    0.000000  (  0.000000   0.000000   0.000000)
  95:      1428.93    0.000000  (  0.000000   0.000000   0.000000)
  96:      1462.46    0.000000  (  0.000000   0.000000   0.000000)
  97:      1490.35    0.000000  (  0.000000   0.000000   0.000000)
  98:      1494.84    0.000000  (  0.000000   0.000000   0.000000)
  99:      1496.60    0.000000  (  0.000000   0.000000   0.000000)
 100:      1501.47    0.000000  (  0.000000   0.000000   0.000000)
 101:      1505.64    0.000000  (  0.000000   0.000000   0.000000)
 102:      1506.21    0.000000  (  0.000000   0.000000   0.000000)
 103:      1508.65    0.000000  (  0.000000   0.000000   0.000000)
 104:      1511.64    0.000000  (  0.000000   0.000000   0.000000)
 105:      1513.34    0.000000  (  0.000000   0.000000   0.000000)
 106:      1513.90    0.000000  (  0.000000   0.000000   0.000000)
 107:      1565.47    0.000000  (  0.000000   0.000000   0.000000)
 108:      1567.96    0.000000  (  0.000000   0.000000   0.000000)
 109:      1576.61    0.000000  (  0.000000   0.000000   0.000000)
 110:      2899.76    0.000000  (  0.000000   0.000000   0.000000)
 111:      2927.33    0.000000  (  0.000000   0.000000   0.000000)
 112:      2930.60    0.000000  (  0.000000   0.000000   0.000000)
 113:      2939.71    0.000000  (  0.000000   0.000000   0.000000)
 114:      2942.59    0.000000  (  0.000000   0.000000   0.000000)
 115:      2948.69    0.000000  (  0.000000   0.000000   0.000000)
 116:      2950.49    0.000000  (  0.000000   0.000000   0.000000)
 117:      2958.63    0.000000  (  0.000000   0.000000   0.000000)
 118:      2961.20    0.000000  (  0.000000   0.000000   0.000000)
 119:      2965.99    0.000000  (  0.000000   0.000000   0.000000)
 120:      2970.06    0.000000  (  0.000000   0.000000   0.000000)
 121:      2973.12    0.000000  (  0.000000   0.000000   0.000000)
 122:      2974.46    0.000000  (  0.000000   0.000000   0.000000)
 123:      2980.75    0.000000  (  0.000000   0.000000   0.000000)
 124:      2981.76    0.000000  (  0.000000   0.000000   0.000000)
 125:      2986.50    0.000000  (  0.000000   0.000000   0.000000)
 126:      2987.59    0.000000  (  0.000000   0.000000   0.000000)
 127:      2998.19    0.000000  (  0.000000   0.000000   0.000000)
 128:      2999.54    0.000000  (  0.000000   0.000000   0.000000)
 129:      3047.39    0.000000  (  0.000000   0.000000   0.000000)
 130:      3053.66    0.000000  (  0.000000   0.000000   0.000000)
 131:      3058.56    0.000000  (  0.000000   0.000000   0.000000)
 132:      3068.00    0.000000  (  0.000000   0.000000   0.000000)
 133:      3072.97    0.000000  (  0.000000   0.000000   0.000000)
 134:      3369.71    0.000000  (  0.000000   0.000000   0.000000)
 135:      3383.10    0.000000  (  0.000000   0.000000   0.000000)
 136:      3407.84    0.000000  (  0.000000   0.000000   0.000000)
 137:      3514.67    0.000000  (  0.000000   0.000000   0.000000)

The first frequency considered to be a vibration is 7
The total number of vibrations considered is 131


--------------------------
THERMOCHEMISTRY AT 298.15K
--------------------------

Temperature         ... 298.15 K
Pressure            ... 1.00 atm
Total Mass          ... 252.40 AMU

Throughout the following assumptions are being made:
  (1) The electronic state is orbitally nondegenerate
  (2) There are no thermally accessible electronically excited states
  (3) Hindered rotations indicated by low frequency modes are not
      treated as such but are treated as vibrations and this may
      cause some error
  (4) All equations used are the standard statistical mechanics
      equations for an ideal gas
  (5) All vibrations are strictly harmonic

freq.      20.47  E(vib)   ...       0.56 
freq.      37.75  E(vib)   ...       0.54 
freq.      51.45  E(vib)   ...       0.52 
freq.      63.28  E(vib)   ...       0.51 
freq.      65.10  E(vib)   ...       0.50 
freq.      73.74  E(vib)   ...       0.49 
freq.      86.86  E(vib)   ...       0.48 
freq.      96.95  E(vib)   ...       0.46 
freq.     108.22  E(vib)   ...       0.45 
freq.     130.07  E(vib)   ...       0.43 
freq.     132.68  E(vib)   ...       0.42 
freq.     139.02  E(vib)   ...       0.42 
freq.     152.07  E(vib)   ...       0.40 
freq.     164.63  E(vib)   ...       0.39 
freq.     200.55  E(vib)   ...       0.35 
freq.     212.48  E(vib)   ...       0.34 
freq.     237.98  E(vib)   ...       0.32 
freq.     259.90  E(vib)   ...       0.30 
freq.     266.97  E(vib)   ...       0.29 
freq.     271.91  E(vib)   ...       0.29 
freq.     322.76  E(vib)   ...       0.25 
freq.     348.46  E(vib)   ...       0.23 
freq.     371.93  E(vib)   ...       0.21 
freq.     380.86  E(vib)   ...       0.21 
freq.     384.05  E(vib)   ...       0.20 
freq.     390.66  E(vib)   ...       0.20 
freq.     425.18  E(vib)   ...       0.18 
freq.     432.08  E(vib)   ...       0.18 
freq.     520.99  E(vib)   ...       0.13 
freq.     546.30  E(vib)   ...       0.12 
freq.     589.64  E(vib)   ...       0.10 
freq.     611.63  E(vib)   ...       0.10 
freq.     677.61  E(vib)   ...       0.08 
freq.     745.12  E(vib)   ...       0.06 
freq.     760.57  E(vib)   ...       0.06 
freq.     768.04  E(vib)   ...       0.06 
freq.     771.37  E(vib)   ...       0.05 
freq.     810.62  E(vib)   ...       0.05 
freq.     824.06  E(vib)   ...       0.05 
freq.     845.44  E(vib)   ...       0.04 
freq.     884.96  E(vib)   ...       0.04 
freq.     911.94  E(vib)   ...       0.03 
freq.     919.11  E(vib)   ...       0.03 
freq.     922.10  E(vib)   ...       0.03 
freq.     932.64  E(vib)   ...       0.03 
freq.     934.02  E(vib)   ...       0.03 
freq.     941.77  E(vib)   ...       0.03 
freq.     942.87  E(vib)   ...       0.03 
freq.     950.82  E(vib)   ...       0.03 
freq.     971.81  E(vib)   ...       0.03 
freq.     984.12  E(vib)   ...       0.02 
freq.    1012.75  E(vib)   ...       0.02 
freq.    1038.46  E(vib)   ...       0.02 
freq.    1058.74  E(vib)   ...       0.02 
freq.    1067.40  E(vib)   ...       0.02 
freq.    1073.59  E(vib)   ...       0.02 
freq.    1085.91  E(vib)   ...       0.02 
freq.    1103.94  E(vib)   ...       0.02 
freq.    1106.85  E(vib)   ...       0.02 
freq.    1109.85  E(vib)   ...       0.02 
freq.    1113.81  E(vib)   ...       0.01 
freq.    1120.31  E(vib)   ...       0.01 
freq.    1133.71  E(vib)   ...       0.01 
freq.    1135.64  E(vib)   ...       0.01 
freq.    1179.94  E(vib)   ...       0.01 
freq.    1189.53  E(vib)   ...       0.01 
freq.    1200.01  E(vib)   ...       0.01 
freq.    1203.98  E(vib)   ...       0.01 
freq.    1204.84  E(vib)   ...       0.01 
freq.    1229.26  E(vib)   ...       0.01 
freq.    1252.14  E(vib)   ...       0.01 
freq.    1260.23  E(vib)   ...       0.01 
freq.    1264.24  E(vib)   ...       0.01 
freq.    1269.06  E(vib)   ...       0.01 
freq.    1271.37  E(vib)   ...       0.01 
freq.    1274.64  E(vib)   ...       0.01 
freq.    1279.55  E(vib)   ...       0.01 
freq.    1281.79  E(vib)   ...       0.01 
freq.    1286.51  E(vib)   ...       0.01 
freq.    1306.59  E(vib)   ...       0.01 
freq.    1310.03  E(vib)   ...       0.01 
freq.    1332.73  E(vib)   ...       0.01 
freq.    1340.46  E(vib)   ...       0.01 
freq.    1370.04  E(vib)   ...       0.01 
freq.    1374.08  E(vib)   ...       0.01 
freq.    1392.72  E(vib)   ...       0.00 
freq.    1424.77  E(vib)   ...       0.00 
freq.    1426.30  E(vib)   ...       0.00 
freq.    1428.93  E(vib)   ...       0.00 
freq.    1462.46  E(vib)   ...       0.00 
freq.    1490.35  E(vib)   ...       0.00 
freq.    1494.84  E(vib)   ...       0.00 
freq.    1496.60  E(vib)   ...       0.00 
freq.    1501.47  E(vib)   ...       0.00 
freq.    1505.64  E(vib)   ...       0.00 
freq.    1506.21  E(vib)   ...       0.00 
freq.    1508.65  E(vib)   ...       0.00 
freq.    1511.64  E(vib)   ...       0.00 
freq.    1513.34  E(vib)   ...       0.00 
freq.    1513.90  E(vib)   ...       0.00 
freq.    1565.47  E(vib)   ...       0.00 
freq.    1567.96  E(vib)   ...       0.00 
freq.    1576.61  E(vib)   ...       0.00 
freq.    2899.76  E(vib)   ...       0.00 
freq.    2927.33  E(vib)   ...       0.00 
freq.    2930.60  E(vib)   ...       0.00 
freq.    2939.71  E(vib)   ...       0.00 
freq.    2942.59  E(vib)   ...       0.00 
freq.    2948.69  E(vib)   ...       0.00 
freq.    2950.49  E(vib)   ...       0.00 
freq.    2958.63  E(vib)   ...       0.00 
freq.    2961.20  E(vib)   ...       0.00 
freq.    2965.99  E(vib)   ...       0.00 
freq.    2970.06  E(vib)   ...       0.00 
freq.    2973.12  E(vib)   ...       0.00 
freq.    2974.46  E(vib)   ...       0.00 
freq.    2980.75  E(vib)   ...       0.00 
freq.    2981.76  E(vib)   ...       0.00 
freq.    2986.50  E(vib)   ...       0.00 
freq.    2987.59  E(vib)   ...       0.00 
freq.    2998.19  E(vib)   ...       0.00 
freq.    2999.54  E(vib)   ...       0.00 
freq.    3047.39  E(vib)   ...       0.00 
freq.    3053.66  E(vib)   ...       0.00 
freq.    3058.56  E(vib)   ...       0.00 
freq.    3068.00  E(vib)   ...       0.00 
freq.    3072.97  E(vib)   ...       0.00 
freq.    3369.71  E(vib)   ...       0.00 
freq.    3383.10  E(vib)   ...       0.00 
freq.    3407.84  E(vib)   ...       0.00 
freq.    3514.67  E(vib)   ...       0.00 

------------
INNER ENERGY
------------

The inner energy is: U= E(el) + E(ZPE) + E(vib) + E(rot) + E(trans)
    E(el)   - is the total energy from the electronic structure calculation
              = E(kin-el) + E(nuc-el) + E(el-el) + E(nuc-nuc)
    E(ZPE)  - the the zero temperature vibrational energy from the frequency calculation
    E(vib)  - the the finite temperature correction to E(ZPE) due to population
              of excited vibrational states
    E(rot)  - is the rotational thermal energy
    E(trans)- is the translational thermal energy

Summary of contributions to the inner energy U:
Electronic energy                ...    -56.31222378 Eh
Zero point energy                ...      0.40455331 Eh     253.86 kcal/mol
Thermal vibrational correction   ...      0.01875277 Eh      11.77 kcal/mol
Thermal rotational correction    ...      0.00141627 Eh       0.89 kcal/mol
Thermal translational correction ...      0.00141627 Eh       0.89 kcal/mol
-----------------------------------------------------------------------
Total thermal energy                    -55.88608516 Eh


Summary of corrections to the electronic energy:
(perhaps to be used in another calculation)
Total thermal correction                  0.02158531 Eh      13.54 kcal/mol
Non-thermal (ZPE) correction              0.40455331 Eh     253.86 kcal/mol
-----------------------------------------------------------------------
Total correction                          0.42613862 Eh     267.41 kcal/mol


--------
ENTHALPY
--------

The enthalpy is H = U + kB*T
                kB is Boltzmann's constant
Total free energy                 ...    -55.88608516 Eh 
Thermal Enthalpy correction       ...      0.00094421 Eh       0.59 kcal/mol
-----------------------------------------------------------------------
Total Enthalpy                    ...    -55.88514095 Eh


Note: Only C1 symmetry has been detected, increase convergence thresholds 
      if your molecule has a higher symmetry. Symmetry factor of 1.0 is   
      used for the rotational entropy correction. 
 

Note: Rotational entropy computed according to Herzberg 
Infrared and Raman Spectra, Chapter V,1, Van Nostrand Reinhold, 1945 
Point Group:  C1, Symmetry Number:   1  
Rotational constants in cm-1:     0.018792     0.006465     0.005330 

Vibrational entropy computed according to the QRRHO of S. Grimme
Chem.Eur.J. 2012 18 9955


-------
ENTROPY
-------

The entropy contributions are T*S = T*(S(el)+S(vib)+S(rot)+S(trans))
     S(el)   - electronic entropy
     S(vib)  - vibrational entropy
     S(rot)  - rotational entropy
     S(trans)- translational entropy
The entropies will be listed as mutliplied by the temperature to get
units of energy

Electronic entropy                ...      0.00000000 Eh      0.00 kcal/mol
Vibrational entropy               ...      0.03392167 Eh     21.29 kcal/mol
Rotational entropy                ...      0.01623812 Eh     10.19 kcal/mol
Translational entropy             ...      0.02018250 Eh     12.66 kcal/mol
-----------------------------------------------------------------------
Final entropy term                ...      0.07034229 Eh     44.14 kcal/mol

In case the symmetry of your molecule has not been determined correctly
or in case you have a reason to use a different symmetry number we print 
out the resulting rotational entropy values for sn=1,12 :
 --------------------------------------------------------
|  sn= 1 | S(rot)=       0.01623812 Eh     10.19 kcal/mol|
|  sn= 2 | S(rot)=       0.01558366 Eh      9.78 kcal/mol|
|  sn= 3 | S(rot)=       0.01520083 Eh      9.54 kcal/mol|
|  sn= 4 | S(rot)=       0.01492920 Eh      9.37 kcal/mol|
|  sn= 5 | S(rot)=       0.01471852 Eh      9.24 kcal/mol|
|  sn= 6 | S(rot)=       0.01454637 Eh      9.13 kcal/mol|
|  sn= 7 | S(rot)=       0.01440083 Eh      9.04 kcal/mol|
|  sn= 8 | S(rot)=       0.01427475 Eh      8.96 kcal/mol|
|  sn= 9 | S(rot)=       0.01416354 Eh      8.89 kcal/mol|
|  sn=10 | S(rot)=       0.01406406 Eh      8.83 kcal/mol|
|  sn=11 | S(rot)=       0.01397407 Eh      8.77 kcal/mol|
|  sn=12 | S(rot)=       0.01389192 Eh      8.72 kcal/mol|
 --------------------------------------------------------


-------------------
GIBBS FREE ENERGY
-------------------

The Gibbs free energy is G = H - T*S

Total enthalpy                    ...    -55.88514095 Eh 
Total entropy correction          ...     -0.07034229 Eh    -44.14 kcal/mol
-----------------------------------------------------------------------
Final Gibbs free energy         ...    -55.95548324 Eh

For completeness - the Gibbs free energy minus the electronic energy
G-E(el)                           ...      0.35674054 Eh    223.86 kcal/mol


Total Time for Numerical Frequencies  :       159.888 sec
Time for Reference State(s)           :         0.107 sec
Time for Displacements                :       142.831 sec

Timings for individual modules:

Sum of individual times         ...        0.227 sec (=   0.004 min)
XTB module                      ...        0.227 sec (=   0.004 min) 100.0 %
                             ****ORCA TERMINATED NORMALLY****
TOTAL RUN TIME: 0 days 0 hours 2 minutes 40 seconds 643 msec
(SLURM) EXECUTION TIME: 160.691477465 seconds.
