(SLURM) JOB ID:         459

                                 *****************
                                 * O   R   C   A *
                                 *****************

           --- An Ab Initio, DFT and Semiempirical electronic structure package ---

                  #######################################################
                  #                        -***-                        #
                  #          Department of theory and spectroscopy      #
                  #               Directorship: Frank Neese             #
                  #        Max Planck Institute fuer Kohlenforschung    #
                  #                Kaiser Wilhelm Platz 1               #
                  #                 D-45470 Muelheim/Ruhr               #
                  #                      Germany                        #
                  #                                                     #
                  #                  All rights reserved                #
                  #                        -***-                        #
                  #######################################################


                         Program Version 4.2.1 -  RELEASE  -


 With contributions from (in alphabetic order):
   Daniel Aravena         : Magnetic Suceptibility
   Michael Atanasov       : Ab Initio Ligand Field Theory (pilot matlab implementation)
   Alexander A. Auer      : GIAO ZORA, VPT2
   Ute Becker             : Parallelization
   Giovanni Bistoni       : ED, misc. LED, open-shell LED, HFLD
   Martin Brehm           : Molecular dynamics
   Dmytro Bykov           : SCF Hessian
   Vijay G. Chilkuri      : MRCI spin determinant printing, contributions to CSF-ICE
   Dipayan Datta          : RHF DLPNO-CCSD density
   Achintya Kumar Dutta   : EOM-CC, STEOM-CC
   Dmitry Ganyushin       : Spin-Orbit,Spin-Spin,Magnetic field MRCI
   Miquel Garcia          : C-PCM Hessian, Gaussian charge scheme
   Yang Guo               : DLPNO-NEVPT2, CIM, IAO-localization
   Andreas Hansen         : Spin unrestricted coupled pair/coupled cluster methods
   Benjamin Helmich-Paris : CASSCF linear response (MC-RPA)
   Lee Huntington         : MR-EOM, pCC
   Robert Izsak           : Overlap fitted RIJCOSX, COSX-SCS-MP3, EOM
   Christian Kollmar      : KDIIS, OOCD, Brueckner-CCSD(T), CCSD density
   Simone Kossmann        : Meta GGA functionals, TD-DFT gradient, OOMP2, MP2 Hessian
   Martin Krupicka        : AUTO-CI
   Lucas Lang             : DCDCAS
   Dagmar Lenk            : GEPOL surface, SMD
   Dimitrios Liakos       : Extrapolation schemes; Compound Job, initial MDCI parallelization
   Dimitrios Manganas     : Further ROCIS development; embedding schemes
   Dimitrios Pantazis     : SARC Basis sets
   Taras Petrenko         : DFT Hessian,TD-DFT gradient, ASA, ECA, R-Raman, ABS, FL, XAS/XES, NRVS
   Peter Pinski           : DLPNO-MP2, DLPNO-MP2 Gradient
   Christoph Reimann      : Effective Core Potentials
   Marius Retegan         : Local ZFS, SOC
   Christoph Riplinger    : Optimizer, TS searches, QM/MM, DLPNO-CCSD(T), (RO)-DLPNO pert. Triples
   Tobias Risthaus        : Range-separated hybrids, TD-DFT gradient, RPA, STAB
   Michael Roemelt        : Original ROCIS implementation
   Masaaki Saitow         : Open-shell DLPNO-CCSD energy and density
   Barbara Sandhoefer     : DKH picture change effects
   Avijit Sen             : IP-ROCIS
   Kantharuban Sivalingam : CASSCF convergence, NEVPT2, FIC-MRCI
   Bernardo de Souza      : ESD, SOC TD-DFT
   Georgi Stoychev        : AutoAux, RI-MP2 NMR
   Willem Van den Heuvel  : Paramagnetic NMR
   Boris Wezisla          : Elementary symmetry handling
   Frank Wennmohs         : Technical directorship


 We gratefully acknowledge several colleagues who have allowed us to
 interface, adapt or use parts of their codes:
   Stefan Grimme, W. Hujo, H. Kruse,             : VdW corrections, initial TS optimization,
                  C. Bannwarth                     DFT functionals, gCP, sTDA/sTD-DF
   Ed Valeev, F. Pavosevic, A. Kumar             : LibInt (2-el integral package), F12 methods
   Garnet Chan, S. Sharma, J. Yang, R. Olivares  : DMRG
   Ulf Ekstrom                                   : XCFun DFT Library
   Mihaly Kallay                                 : mrcc  (arbitrary order and MRCC methods)
   Andreas Klamt, Michael Diedenhofen            : otool_cosmo (COSMO solvation model)
   Jiri Pittner, Ondrej Demel                    : Mk-CCSD
   Frank Weinhold                                : gennbo (NPA and NBO analysis)
   Christopher J. Cramer and Donald G. Truhlar   : smd solvation model
   Lars Goerigk                                  : TD-DFT with DH, B97 family of functionals
   V. Asgeirsson, H. Jonsson                     : NEB implementation
   FAccTs GmbH                                   : IRC, NEB, NEB-TS, Multilevel, MM, QM/MM, CI optimization
   S Lehtola, MJT Oliveira, MAL Marques          : LibXC Library


 Your calculation uses the libint2 library for the computation of 2-el integrals
 For citations please refer to: http://libint.valeyev.net

 Your ORCA version has been built with support for libXC version: 4.2.3
 For citations please refer to: https://tddft.org/programs/libxc/

 This ORCA versions uses:
   CBLAS   interface :  Fast vector & matrix operations
   LAPACKE interface :  Fast linear algebra routines
   SCALAPACK package :  Parallel linear algebra routines




***************************************
The coordinates will be read from file: init.xyz
***************************************


Your calculation utilizes the SMD solvation module
Please cite in your paper:
A.V. Marenich, C.J. Cramer, D.G. Truhlar J. Phys. Chem. B, 113, (2009), 6378 

Your calculation utilizes the semiempirical GFN2-xTB method
Please cite in your paper:
C. Bannwarth, Ehlert S., S. Grimme,  J. Chem. Theory Comput., 15, (2019), 1652.
   

----- Orbital basis set information -----
Your calculation utilizes the basis: def2-SVP
   F. Weigend and R. Ahlrichs, Phys. Chem. Chem. Phys. 7, 3297 (2005).

================================================================================
                                        WARNINGS
                       Please study these warnings very carefully!
================================================================================

WARNING: Gradients needed for Numerical Frequencies
  ===> : Setting RunTyp to EnGrad

WARNING: The environment variable RSH_COMMAND is not set!
  ===> : All Displacements for the Numerical Hessian calculation
         will be started on localhost

WARNING: Found dipole moment calculation with XTB calculation
  ===> : Switching off dipole moment calculation


INFO   : the flag for use of LIBINT has been found!

================================================================================
                                       INPUT FILE
================================================================================
NAME = /tmp/slurm-scratch/freq.459/freq.inp
|  1> ! XTB2 NumFreq
|  2> %maxcore 1150
|  3> 
|  4> * xyzfile 0 1 init.xyz
|  5> 
|  6> %cpcm
|  7>  smd true
|  8>  smdsolvent "ch2cl2"
|  9> end
| 10> %pal nprocs 9 end
| 11> 
| 12>                          ****END OF INPUT****
================================================================================

                     *******************************
                     * Energy+Gradient Calculation *
                     *******************************

      -----------------------------------------------------------      
     |                   =====================                   |     
     |                           x T B                           |     
     |                   =====================                   |     
     |                         S. Grimme                         |     
     |          Mulliken Center for Theoretical Chemistry        |     
     |                    University of Bonn                     |     
      -----------------------------------------------------------      

   * xtb version 6.3.2 (30e43eb) compiled by 'schneider@apollo14' on 2020-08-08

   xtb is free software: you can redistribute it and/or modify it under
   the terms of the GNU Lesser General Public License as published by
   the Free Software Foundation, either version 3 of the License, or
   (at your option) any later version.
   
   xtb is distributed in the hope that it will be useful,
   but WITHOUT ANY WARRANTY; without even the implied warranty of
   MERCHANTABILITY or FITNESS FOR A PARTICULAR PURPOSE.  See the
   GNU Lesser General Public License for more details.
   
   Cite this work as:
   * S. Grimme, C. Bannwarth, P. Shushkov, J. Chem. Theory Comput., 2017,
     13, 1989-2009. DOI: 10.1021/acs.jctc.7b00118
   * C. Bannwarth, S. Ehlert and S. Grimme., J. Chem. Theory Comput., 2019,
     15, 1652-1671. DOI: 10.1021/acs.jctc.8b01176
   * P. Pracht, E. Caldeweyher, S. Ehlert, S. Grimme, ChemRxiv, 2019, preprint.
     DOI: 10.26434/chemrxiv.8326202.v1
   
   for GFN-FF:
   * S. Spicher and S. Grimme, Angew. Chem. Int. Ed., 2020,
     DOI: 10.1002/anie.202004239
   
   for DFT-D4:
   * E. Caldeweyher, C. Bannwarth and S. Grimme, J. Chem. Phys., 2017,
     147, 034112. DOI: 10.1063/1.4993215
   * E. Caldeweyher, S. Ehlert, A. Hansen, H. Neugebauer, S. Spicher,
     C. Bannwarth and S. Grimme, J. Chem. Phys., 2019, 150, 154122.
     DOI: 10.1063/1.5090222
   
   for sTDA-xTB:
   * S. Grimme and C. Bannwarth, J. Chem. Phys., 2016, 145, 054103.
     DOI: 10.1063/1.4959605
   
   in the mass-spec context:
   * V. Asgeirsson, C. Bauer and S. Grimme, Chem. Sci., 2017, 8, 4879.
     DOI: 10.1039/c7sc00601b
   * J. Koopman and S. Grimme, ACS Omega 2019, 4, 12, 15120-15133.
     DOI: 10.1021/acsomega.9b02011
   
   for metadynamics refer to:
   * S. Grimme, J. Chem. Theory Comput., 2019, 155, 2847-2862
     DOI: 10.1021/acs.jctc.9b00143
   
   with help from (in alphabetical order)
   C. Bannwarth, F. Bohle, G. Brandenburg, E. Caldeweyher, M. Checinski,
   S. Dohm, S. Ehlert, S. Ehrlich, F. März, H. Neugebauer, J. Pisarek,
   P. Pracht, P. Shushkov, and S. Spicher.
   
 * started run on 2020/08/25 at 13:13:31.007     

           -------------------------------------------------
          |                Calculation Setup                |
           -------------------------------------------------

          program call               : /opt/orca/otool_xtb /tmp/slurm-scratch/freq.459/freq_XTB.xyz --grad -c 0 -u 0 -P 9 --namespace /tmp/slurm-scratch/freq.459/freq --gbsa CH2Cl2
          hostname                   : apollo14
          calculation namespace      : /tmp/slurm-scratch/freq.459/freq
          coordinate file            : /tmp/slurm-scratch/freq.459/freq_XTB.xyz
          omp threads                :                     9
          number of atoms            :                    33
          number of electrons        :                    80
          charge                     :                     0
          spin                       :                   0.0
          first test random number   :      0.20365447030171

   ID    Z sym.   atoms
    1    6 C      1-6, 12, 18, 21, 25, 30
    2    1 H      7-9, 11, 13-17, 19, 22, 23, 26-29, 31-33
    3    7 N      10
    4    8 O      20, 24

molecular fragmentation (1/2 indicates fragments):
111111111222222221112222222112222
# atoms in fragment 1/2:    14    19
 fragment masses (1/2) :      106.12       91.15
CMA distance (Bohr)    :   8.996
constraining FC (au)   :  0.0500
########################################################################
[WARNING] Please study the warnings concerning your input carefully
-1- prog_main_parseArguments: Process number higher than OMP_NUM_THREADS, I hope you know what you are doing.
########################################################################

           -------------------------------------------------
          |                 G F N 2 - x T B                 |
           -------------------------------------------------

        Reference                      10.1021/acs.jctc.8b01176
      * Hamiltonian:
        H0-scaling (s, p, d)           1.850000    2.230000    2.230000
        zeta-weighting                 0.500000
      * Dispersion:
        s8                             2.700000
        a1                             0.520000
        a2                             5.000000
        s9                             5.000000
      * Repulsion:
        kExp                           1.500000    1.000000
        rExp                           1.000000
      * Coulomb:
        alpha                          2.000000
        third order                    shell-resolved
        anisotropic                    true
        a3                             3.000000
        a5                             4.000000
        cn-shift                       1.200000
        cn-exp                         4.000000
        max-rad                        5.000000

      * Solvation model:               GBSA
        Solvent                        CH2Cl2
        Parameter file                 internal GFN2-xTB/GBSA
        Dielectric constant                8.9300E+00
        Reference state                gsolv [1 M gas/solution]
        Free energy shift                  4.4408E-03 Eh       2.7867E+00 kcal/mol
        Temperature                        2.9815E+02 K
        Density                            1.3300E+00 kg/L
        Solvent mass                       8.4930E+01 g/mol
        Interaction kernel             Still
        Born radius scaling (c1)           1.4917E+00
        Born radii integrator          GBOBC
        Born offset                        0.0000E+00 a0       0.0000E+00 AA
        H-bond correction              false
        Ion screening                  false
        Surface tension                    1.0000E-05 Eh       1.5569E+01 dyn/cm
        Grid points                               230 per atom

          ...................................................
          :                      SETUP                      :
          :.................................................:
          :  # basis functions                  75          :
          :  # atomic orbitals                  75          :
          :  # shells                           47          :
          :  # electrons                        80          :
          :  max. iterations                   250          :
          :  Hamiltonian                  GFN2-xTB          :
          :  restarted?                      false          :
          :  GBSA solvation                   true          :
          :  PC potential                    false          :
          :  electronic temp.          300.0000000     K    :
          :  accuracy                    1.0000000          :
          :  -> integral cutoff          0.2500000E+02      :
          :  -> integral neglect         0.1000000E-07      :
          :  -> SCF convergence          0.1000000E-05 Eh   :
          :  -> wf. convergence          0.1000000E-03 e    :
          :  Broyden damping             0.4000000          :
          ...................................................

 iter      E             dE          RMSdq      gap      omega  full diag
   1    -44.7790276 -0.447790E+02  0.381E+00    2.28       0.0  T
   2    -44.8393610 -0.603334E-01  0.204E+00    2.26       1.0  T
   3    -44.8389273  0.433688E-03  0.101E+00    2.47       1.0  T
   4    -44.8450090 -0.608166E-02  0.213E-01    2.29       1.0  T
   5    -44.8457411 -0.732082E-03  0.733E-02    2.31       1.0  T
   6    -44.8457877 -0.465922E-04  0.384E-02    2.33       1.0  T
   7    -44.8458030 -0.153679E-04  0.134E-02    2.33       1.3  T
   8    -44.8458037 -0.648430E-06  0.406E-03    2.33       4.3  T
   9    -44.8458038 -0.143785E-06  0.165E-03    2.32      10.5  T
  10    -44.8458038 -0.192700E-07  0.915E-04    2.32      19.0  T
  11    -44.8458038 -0.374496E-08  0.306E-04    2.32      57.0  T

   *** convergence criteria satisfied after 11 iterations ***

         #    Occupation            Energy/Eh            Energy/eV
      -------------------------------------------------------------
         1        2.0000           -0.7074418             -19.2505
       ...           ...                  ...                  ...
        34        2.0000           -0.4362796             -11.8718
        35        2.0000           -0.4306945             -11.7198
        36        2.0000           -0.4257085             -11.5841
        37        2.0000           -0.4163863             -11.3304
        38        2.0000           -0.4135816             -11.2541
        39        2.0000           -0.4032990             -10.9743
        40        2.0000           -0.3786757             -10.3043 (HOMO)
        41                         -0.2932573              -7.9799 (LUMO)
        42                         -0.2362251              -6.4280
        43                         -0.2055031              -5.5920
        44                         -0.1010104              -2.7486
        45                          0.0075745               0.2061
       ...                                ...                  ...
        75                          0.6189843              16.8434
      -------------------------------------------------------------
                  HL-Gap            0.0854185 Eh            2.3244 eV
             Fermi-level           -0.3359665 Eh           -9.1421 eV

 SCC (total)                   0 d,  0 h,  0 min,  0.105 sec
 SCC setup                      ...        0 min,  0.003 sec (  2.836%)
 Dispersion                     ...        0 min,  0.002 sec (  1.450%)
 classical contributions        ...        0 min,  0.002 sec (  2.127%)
 integral evaluation            ...        0 min,  0.012 sec ( 11.377%)
 iterations                     ...        0 min,  0.036 sec ( 34.410%)
 molecular gradient             ...        0 min,  0.050 sec ( 47.547%)
 printout                       ...        0 min,  0.000 sec (  0.229%)

         :::::::::::::::::::::::::::::::::::::::::::::::::::::
         ::                     SUMMARY                     ::
         :::::::::::::::::::::::::::::::::::::::::::::::::::::
         :: total energy             -44.262133152583 Eh    ::
         :: total w/o Gsasa/hb       -44.244469970683 Eh    ::
         :: gradient norm              0.051851487463 Eh/a0 ::
         :: HOMO-LUMO gap              2.324354556957 eV    ::
         ::.................................................::
         :: SCC energy               -44.845803837228 Eh    ::
         :: -> isotropic ES            0.079532194361 Eh    ::
         :: -> anisotropic ES          0.001563539129 Eh    ::
         :: -> anisotropic XC          0.025590000225 Eh    ::
         :: -> dispersion             -0.025378406849 Eh    ::
         :: -> Gsolv                  -0.025596143583 Eh    ::
         ::    -> Gborn               -0.007932961683 Eh    ::
         ::    -> Gsasa               -0.022104011074 Eh    ::
         ::    -> Ghb                  0.000000000000 Eh    ::
         ::    -> Gshift               0.004440829173 Eh    ::
         :: repulsion energy           0.583497259838 Eh    ::
         :: add. restraining           0.000000000000 Eh    ::
         :: total charge              -0.000000000000 e     ::
         :::::::::::::::::::::::::::::::::::::::::::::::::::::

           -------------------------------------------------
          |                Property Printout                |
           -------------------------------------------------

    * Orbital Energies and Occupations

         #    Occupation            Energy/Eh            Energy/eV
      -------------------------------------------------------------
         1        2.0000           -0.7074418             -19.2505
       ...           ...                  ...                  ...
        28        2.0000           -0.4809544             -13.0874
        29        2.0000           -0.4675877             -12.7237
        30        2.0000           -0.4500046             -12.2452
        31        2.0000           -0.4465342             -12.1508
        32        2.0000           -0.4448675             -12.1055
        33        2.0000           -0.4385616             -11.9339
        34        2.0000           -0.4362796             -11.8718
        35        2.0000           -0.4306945             -11.7198
        36        2.0000           -0.4257085             -11.5841
        37        2.0000           -0.4163863             -11.3304
        38        2.0000           -0.4135816             -11.2541
        39        2.0000           -0.4032990             -10.9743
        40        2.0000           -0.3786757             -10.3043 (HOMO)
        41                         -0.2932573              -7.9799 (LUMO)
        42                         -0.2362251              -6.4280
        43                         -0.2055031              -5.5920
        44                         -0.1010104              -2.7486
        45                          0.0075745               0.2061
        46                          0.0627267               1.7069
        47                          0.0749403               2.0392
        48                          0.0781425               2.1264
        49                          0.0999581               2.7200
        50                          0.1078788               2.9355
        51                          0.1164764               3.1695
       ...                                ...                  ...
        75                          0.6189843              16.8434
      -------------------------------------------------------------
                  HL-Gap            0.0854185 Eh            2.3244 eV
             Fermi-level           -0.3359665 Eh           -9.1421 eV

     #   Z          covCN         q      C6AA      α(0)
     1   6 C        2.907    -0.025    28.624     8.773
     2   6 C        2.913    -0.024    28.592     8.768
     3   6 C        2.961    -0.007    28.190     8.709
     4   6 C        2.911    -0.014    28.363     8.733
     5   6 C        2.908    -0.025    28.629     8.774
     6   6 C        2.909    -0.018    28.462     8.748
     7   1 H        0.925     0.052     2.300     2.372
     8   1 H        0.925     0.057     2.238     2.340
     9   1 H        0.925     0.052     2.292     2.367
    10   7 N        2.626    -0.353    29.103     8.012
    11   1 H        0.859     0.161     1.327     1.805
    12   6 C        3.727     0.021    20.314     6.435
    13   1 H        0.922     0.012     2.864     2.647
    14   1 H        0.923     0.035     2.512     2.479
    15   1 H        0.859     0.147     1.423     1.869
    16   1 H        0.804     0.285     0.767     1.376
    17   1 H        0.802     0.313     0.684     1.300
    18   6 C        2.764     0.209    23.567     7.950
    19   1 H        0.922     0.034     2.524     2.485
    20   8 O        0.856    -0.427    22.223     6.320
    21   6 C        3.797    -0.062    21.700     6.633
    22   1 H        0.923     0.040     2.451     2.448
    23   1 H        0.923     0.035     2.515     2.480
    24   8 O        1.605    -0.616    25.569     6.825
    25   6 C        3.795    -0.052    21.521     6.606
    26   1 H        0.923     0.030     2.580     2.512
    27   1 H        0.923     0.031     2.573     2.509
    28   1 H        0.925     0.049     2.326     2.385
    29   1 H        0.925     0.052     2.297     2.370
    30   6 C        3.745    -0.100    22.488     6.764
    31   1 H        0.923     0.036     2.501     2.473
    32   1 H        0.923     0.035     2.511     2.478
    33   1 H        0.923     0.035     2.513     2.479

 Mol. C6AA /au·bohr⁶  :       9596.641583
 Mol. C8AA /au·bohr⁸  :     213654.030445
 Mol. α(0) /au        :        151.221267


Wiberg/Mayer (AO) data.
largest (>0.10) Wiberg bond orders for each atom

 ---------------------------------------------------------------------------
     #   Z sym  total        # sym  WBO       # sym  WBO       # sym  WBO
 ---------------------------------------------------------------------------
     1   6 C    3.990 --     2 C    1.462     6 C    1.426    29 H    0.969
                             4 C    0.104
     2   6 C    3.988 --     1 C    1.462     3 C    1.364     7 H    0.966
                             5 C    0.105
     3   6 C    3.988 --     4 C    1.366     2 C    1.364    18 C    1.076
     4   6 C    3.988 --     5 C    1.459     3 C    1.366     8 H    0.966
                             1 C    0.104
     5   6 C    3.990 --     4 C    1.459     6 C    1.427    28 H    0.970
                             2 C    0.105
     6   6 C    3.988 --     5 C    1.427     1 C    1.426     9 H    0.970
     7   1 H    0.997 --     2 C    0.966
     8   1 H    0.997 --     4 C    0.966
     9   1 H    0.997 --     6 C    0.970
    10   7 N    3.080 --    12 C    1.015    15 H    0.964    11 H    0.951
    11   1 H    0.974 --    10 N    0.951
    12   6 C    3.981 --    10 N    1.015    21 C    1.006    14 H    0.975
                            13 H    0.969
    13   1 H    0.999 --    12 C    0.969
    14   1 H    0.999 --    12 C    0.975
    15   1 H    0.978 --    10 N    0.964
    16   1 H    0.919 --    24 O    0.918
    17   1 H    0.902 --    24 O    0.860
    18   6 C    3.910 --    20 O    1.750     3 C    1.076    19 H    0.937
    19   1 H    0.998 --    18 C    0.937
    20   8 O    2.022 --    18 C    1.750
    21   6 C    3.995 --    25 C    1.007    12 C    1.006    23 H    0.976
                            22 H    0.975
    22   1 H    0.998 --    21 C    0.975
    23   1 H    0.999 --    21 C    0.976
    24   8 O    1.820 --    16 H    0.918    17 H    0.860
    25   6 C    3.996 --    30 C    1.019    21 C    1.007    27 H    0.978
                            26 H    0.978
    26   1 H    0.999 --    25 C    0.978
    27   1 H    0.999 --    25 C    0.978
    28   1 H    0.997 --     5 C    0.970
    29   1 H    0.997 --     1 C    0.969
    30   6 C    3.996 --    25 C    1.019    32 H    0.988    33 H    0.988
                            31 H    0.987
    31   1 H    0.998 --    30 C    0.987
    32   1 H    0.999 --    30 C    0.988
    33   1 H    0.999 --    30 C    0.988
 ---------------------------------------------------------------------------

Topologies differ in total number of bonds
Writing topology from bond orders to xtbtopo.mol

molecular dipole:
                 x           y           z       tot (Debye)
 q only:       -0.549       0.781      -0.995
   full:       -0.785       0.566      -0.934       3.419
molecular quadrupole (traceless):
                xx          xy          yy          xz          yz          zz
 q only:        5.291       2.814      -2.792      -6.051      -3.186      -2.499
  q+dip:        4.856       3.436      -2.624      -5.821      -5.615      -2.232
   full:        4.429       5.355      -1.421      -5.216      -4.258      -3.008


           -------------------------------------------------
          | TOTAL ENERGY              -44.262133152583 Eh   |
          | GRADIENT NORM               0.051851487463 Eh/α |
          | HOMO-LUMO GAP               2.324354556957 eV   |
           -------------------------------------------------

------------------------------------------------------------------------
 * finished run on 2020/08/25 at 13:13:31.229     
------------------------------------------------------------------------
 total:
 * wall-time:     0 d,  0 h,  0 min,  0.222 sec
 *  cpu-time:     0 d,  0 h,  0 min,  2.389 sec
 * ratio c/w:    10.777 speedup
 SCF:
 * wall-time:     0 d,  0 h,  0 min,  0.113 sec
 *  cpu-time:     0 d,  0 h,  0 min,  1.307 sec
 * ratio c/w:    11.538 speedup


-------------------------   --------------------
FINAL SINGLE POINT ENERGY       -44.262133152580
-------------------------   --------------------


----------------------------------------------------------------------------
                           ORCA NUMERICAL FREQUENCIES
                              (9-process run)
----------------------------------------------------------------------------

Number of atoms                ... 33
Central differences            ... used
Number of displacements        ... 198
Numerical increment            ... 5.000e-03 bohr
IR-spectrum generation         ... on
Raman-spectrum generation      ... off
Surface Crossing Hessian       ... off
List of participating nodes    ...  /tmp/slurm-scratch/freq.459/freq.hostnames

The output will be reduced. Please look at the following files:
SCF program output             ... >/tmp/slurm-scratch/freq.459/freq.lastscf
Integral program output        ... >/tmp/slurm-scratch/freq.459/freq.lastint
Gradient program output        ... >/tmp/slurm-scratch/freq.459/freq.lastgrad
Dipole moment program output   ... >/tmp/slurm-scratch/freq.459/freq.lastmom
AutoCI program output          ... >/tmp/slurm-scratch/freq.459/freq.lastautoci


         <<< Energy and Gradient at the input geometry >>>

        <<< Energy and Gradient at displaced geometries >>>
             <<<Displacing   2/coordinate 3 (+)>>>
             <<<Displacing   1/coordinate 1 (+)>>>
             <<<Displacing   3/coordinate 1 (+)>>>
             <<<Displacing   3/coordinate 3 (+)>>>
             <<<Displacing   1/coordinate 3 (+)>>>
             <<<Displacing   3/coordinate 3 (-)>>>
             <<<Displacing   1/coordinate 1 (-)>>>
             <<<Displacing   2/coordinate 2 (+)>>>
             <<<Displacing   1/coordinate 3 (-)>>>
             <<<Displacing   2/coordinate 3 (-)>>>
             <<<Displacing   3/coordinate 1 (-)>>>
             <<<Displacing   3/coordinate 2 (+)>>>
             <<<Displacing   2/coordinate 2 (-)>>>
             <<<Displacing   3/coordinate 2 (-)>>>
             <<<Displacing   1/coordinate 2 (+)>>>
             <<<Displacing   2/coordinate 1 (+)>>>
             <<<Displacing   1/coordinate 2 (-)>>>
             <<<Displacing   2/coordinate 1 (-)>>>
             <<<Displacing   4/coordinate 1 (+)>>>
             <<<Displacing   4/coordinate 3 (+)>>>
             <<<Displacing   4/coordinate 1 (-)>>>
             <<<Displacing   4/coordinate 3 (-)>>>
             <<<Displacing   5/coordinate 1 (+)>>>
             <<<Displacing   5/coordinate 3 (+)>>>
             <<<Displacing   5/coordinate 2 (+)>>>
             <<<Displacing   5/coordinate 1 (-)>>>
             <<<Displacing   5/coordinate 3 (-)>>>
             <<<Displacing   6/coordinate 1 (+)>>>
             <<<Displacing   5/coordinate 2 (-)>>>
             <<<Displacing   6/coordinate 1 (-)>>>
             <<<Displacing   4/coordinate 2 (+)>>>
             <<<Displacing   6/coordinate 3 (+)>>>
             <<<Displacing   4/coordinate 2 (-)>>>
             <<<Displacing   6/coordinate 3 (-)>>>
             <<<Displacing   6/coordinate 2 (+)>>>
             <<<Displacing   6/coordinate 2 (-)>>>
             <<<Displacing   7/coordinate 1 (+)>>>
             <<<Displacing   8/coordinate 3 (+)>>>
             <<<Displacing   7/coordinate 1 (-)>>>
             <<<Displacing   8/coordinate 3 (-)>>>
             <<<Displacing   7/coordinate 2 (+)>>>
             <<<Displacing   8/coordinate 1 (+)>>>
             <<<Displacing   7/coordinate 2 (-)>>>
             <<<Displacing   8/coordinate 2 (+)>>>
             <<<Displacing   8/coordinate 1 (-)>>>
             <<<Displacing   9/coordinate 1 (+)>>>
             <<<Displacing   7/coordinate 3 (+)>>>
             <<<Displacing   8/coordinate 2 (-)>>>
             <<<Displacing   9/coordinate 1 (-)>>>
             <<<Displacing   7/coordinate 3 (-)>>>
             <<<Displacing   9/coordinate 2 (+)>>>
             <<<Displacing   9/coordinate 3 (+)>>>
             <<<Displacing   9/coordinate 2 (-)>>>
             <<<Displacing   9/coordinate 3 (-)>>>
             <<<Displacing  10/coordinate 2 (+)>>>
             <<<Displacing  10/coordinate 1 (+)>>>
             <<<Displacing  10/coordinate 3 (+)>>>
             <<<Displacing  10/coordinate 2 (-)>>>
             <<<Displacing  11/coordinate 2 (+)>>>
             <<<Displacing  10/coordinate 1 (-)>>>
             <<<Displacing  11/coordinate 2 (-)>>>
             <<<Displacing  10/coordinate 3 (-)>>>
             <<<Displacing  11/coordinate 1 (+)>>>
             <<<Displacing  12/coordinate 1 (+)>>>
             <<<Displacing  11/coordinate 1 (-)>>>
             <<<Displacing  12/coordinate 1 (-)>>>
             <<<Displacing  11/coordinate 3 (+)>>>
             <<<Displacing  11/coordinate 3 (-)>>>
             <<<Displacing  12/coordinate 2 (+)>>>
             <<<Displacing  12/coordinate 3 (+)>>>
             <<<Displacing  12/coordinate 3 (-)>>>
             <<<Displacing  12/coordinate 2 (-)>>>
             <<<Displacing  13/coordinate 1 (+)>>>
             <<<Displacing  13/coordinate 1 (-)>>>
             <<<Displacing  13/coordinate 2 (+)>>>
             <<<Displacing  14/coordinate 1 (+)>>>
             <<<Displacing  14/coordinate 3 (+)>>>
             <<<Displacing  13/coordinate 2 (-)>>>
             <<<Displacing  14/coordinate 1 (-)>>>
             <<<Displacing  13/coordinate 3 (+)>>>
             <<<Displacing  13/coordinate 3 (-)>>>
             <<<Displacing  14/coordinate 3 (-)>>>
             <<<Displacing  14/coordinate 2 (+)>>>
             <<<Displacing  15/coordinate 1 (+)>>>
             <<<Displacing  15/coordinate 1 (-)>>>
             <<<Displacing  14/coordinate 2 (-)>>>
             <<<Displacing  15/coordinate 2 (+)>>>
             <<<Displacing  15/coordinate 3 (+)>>>
             <<<Displacing  15/coordinate 2 (-)>>>
             <<<Displacing  15/coordinate 3 (-)>>>
             <<<Displacing  16/coordinate 1 (+)>>>
             <<<Displacing  17/coordinate 1 (+)>>>
             <<<Displacing  17/coordinate 1 (-)>>>
             <<<Displacing  16/coordinate 2 (+)>>>
             <<<Displacing  16/coordinate 1 (-)>>>
             <<<Displacing  16/coordinate 3 (+)>>>
             <<<Displacing  16/coordinate 2 (-)>>>
             <<<Displacing  16/coordinate 3 (-)>>>
             <<<Displacing  17/coordinate 2 (+)>>>
             <<<Displacing  17/coordinate 3 (+)>>>
             <<<Displacing  17/coordinate 3 (-)>>>
             <<<Displacing  17/coordinate 2 (-)>>>
             <<<Displacing  18/coordinate 2 (+)>>>
             <<<Displacing  18/coordinate 3 (+)>>>
             <<<Displacing  18/coordinate 2 (-)>>>
             <<<Displacing  18/coordinate 1 (+)>>>
             <<<Displacing  18/coordinate 1 (-)>>>
             <<<Displacing  18/coordinate 3 (-)>>>
             <<<Displacing  19/coordinate 1 (+)>>>
             <<<Displacing  19/coordinate 2 (+)>>>
             <<<Displacing  19/coordinate 1 (-)>>>
             <<<Displacing  19/coordinate 3 (+)>>>
             <<<Displacing  19/coordinate 2 (-)>>>
             <<<Displacing  19/coordinate 3 (-)>>>
             <<<Displacing  20/coordinate 1 (+)>>>
             <<<Displacing  20/coordinate 3 (+)>>>
             <<<Displacing  20/coordinate 2 (+)>>>
             <<<Displacing  20/coordinate 1 (-)>>>
             <<<Displacing  20/coordinate 3 (-)>>>
             <<<Displacing  20/coordinate 2 (-)>>>
             <<<Displacing  21/coordinate 1 (+)>>>
             <<<Displacing  21/coordinate 2 (+)>>>
             <<<Displacing  21/coordinate 1 (-)>>>
             <<<Displacing  21/coordinate 2 (-)>>>
             <<<Displacing  21/coordinate 3 (+)>>>
             <<<Displacing  21/coordinate 3 (-)>>>
             <<<Displacing  22/coordinate 1 (+)>>>
             <<<Displacing  22/coordinate 1 (-)>>>
             <<<Displacing  22/coordinate 2 (+)>>>
             <<<Displacing  22/coordinate 2 (-)>>>
             <<<Displacing  23/coordinate 1 (+)>>>
             <<<Displacing  23/coordinate 1 (-)>>>
             <<<Displacing  22/coordinate 3 (+)>>>
             <<<Displacing  23/coordinate 2 (+)>>>
             <<<Displacing  22/coordinate 3 (-)>>>
             <<<Displacing  23/coordinate 2 (-)>>>
             <<<Displacing  23/coordinate 3 (+)>>>
             <<<Displacing  24/coordinate 1 (+)>>>
             <<<Displacing  23/coordinate 3 (-)>>>
             <<<Displacing  24/coordinate 1 (-)>>>
             <<<Displacing  24/coordinate 2 (+)>>>
             <<<Displacing  24/coordinate 2 (-)>>>
             <<<Displacing  24/coordinate 3 (+)>>>
             <<<Displacing  24/coordinate 3 (-)>>>
             <<<Displacing  25/coordinate 1 (+)>>>
             <<<Displacing  25/coordinate 2 (+)>>>
             <<<Displacing  25/coordinate 1 (-)>>>
             <<<Displacing  25/coordinate 2 (-)>>>
             <<<Displacing  25/coordinate 3 (+)>>>
             <<<Displacing  26/coordinate 1 (+)>>>
             <<<Displacing  26/coordinate 2 (+)>>>
             <<<Displacing  26/coordinate 1 (-)>>>
             <<<Displacing  25/coordinate 3 (-)>>>
             <<<Displacing  26/coordinate 2 (-)>>>
             <<<Displacing  27/coordinate 1 (+)>>>
             <<<Displacing  26/coordinate 3 (+)>>>
             <<<Displacing  27/coordinate 1 (-)>>>
             <<<Displacing  26/coordinate 3 (-)>>>
             <<<Displacing  27/coordinate 2 (+)>>>
             <<<Displacing  27/coordinate 2 (-)>>>
             <<<Displacing  27/coordinate 3 (+)>>>
             <<<Displacing  27/coordinate 3 (-)>>>
             <<<Displacing  28/coordinate 1 (+)>>>
             <<<Displacing  28/coordinate 2 (+)>>>
             <<<Displacing  28/coordinate 1 (-)>>>
             <<<Displacing  28/coordinate 2 (-)>>>
             <<<Displacing  28/coordinate 3 (+)>>>
             <<<Displacing  29/coordinate 1 (+)>>>
             <<<Displacing  28/coordinate 3 (-)>>>
             <<<Displacing  29/coordinate 2 (+)>>>
             <<<Displacing  29/coordinate 1 (-)>>>
             <<<Displacing  29/coordinate 2 (-)>>>
             <<<Displacing  30/coordinate 1 (+)>>>
             <<<Displacing  29/coordinate 3 (+)>>>
             <<<Displacing  30/coordinate 1 (-)>>>
             <<<Displacing  29/coordinate 3 (-)>>>
             <<<Displacing  30/coordinate 2 (+)>>>
             <<<Displacing  30/coordinate 2 (-)>>>
             <<<Displacing  30/coordinate 3 (+)>>>
             <<<Displacing  30/coordinate 3 (-)>>>
             <<<Displacing  31/coordinate 2 (+)>>>
             <<<Displacing  31/coordinate 2 (-)>>>
             <<<Displacing  31/coordinate 1 (+)>>>
             <<<Displacing  31/coordinate 1 (-)>>>
             <<<Displacing  32/coordinate 3 (+)>>>
             <<<Displacing  32/coordinate 3 (-)>>>
             <<<Displacing  31/coordinate 3 (+)>>>
             <<<Displacing  31/coordinate 3 (-)>>>
             <<<Displacing  33/coordinate 1 (+)>>>
             <<<Displacing  33/coordinate 1 (-)>>>
             <<<Displacing  32/coordinate 1 (+)>>>
             <<<Displacing  32/coordinate 2 (+)>>>
             <<<Displacing  33/coordinate 2 (+)>>>
             <<<Displacing  32/coordinate 1 (-)>>>
             <<<Displacing  32/coordinate 2 (-)>>>
             <<<Displacing  33/coordinate 2 (-)>>>
             <<<Displacing  33/coordinate 3 (+)>>>
             <<<Displacing  33/coordinate 3 (-)>>>

-----------------------
VIBRATIONAL FREQUENCIES
-----------------------

Scaling factor for frequencies =  1.000000000 (already applied!)

   0:         0.00 cm**-1
   1:         0.00 cm**-1
   2:         0.00 cm**-1
   3:         0.00 cm**-1
   4:         0.00 cm**-1
   5:         0.00 cm**-1
   6:       -78.82 cm**-1 ***imaginary mode***
   7:        57.06 cm**-1
   8:        59.55 cm**-1
   9:        73.72 cm**-1
  10:        80.80 cm**-1
  11:        93.99 cm**-1
  12:       110.35 cm**-1
  13:       144.42 cm**-1
  14:       159.59 cm**-1
  15:       177.42 cm**-1
  16:       193.12 cm**-1
  17:       209.16 cm**-1
  18:       227.62 cm**-1
  19:       250.65 cm**-1
  20:       330.34 cm**-1
  21:       357.21 cm**-1
  22:       390.77 cm**-1
  23:       400.25 cm**-1
  24:       421.22 cm**-1
  25:       431.37 cm**-1
  26:       456.00 cm**-1
  27:       470.19 cm**-1
  28:       477.26 cm**-1
  29:       550.43 cm**-1
  30:       587.78 cm**-1
  31:       631.62 cm**-1
  32:       670.37 cm**-1
  33:       700.80 cm**-1
  34:       776.30 cm**-1
  35:       798.57 cm**-1
  36:       817.31 cm**-1
  37:       849.59 cm**-1
  38:       898.50 cm**-1
  39:       910.51 cm**-1
  40:       933.40 cm**-1
  41:       936.12 cm**-1
  42:       939.12 cm**-1
  43:       953.00 cm**-1
  44:       956.94 cm**-1
  45:       972.97 cm**-1
  46:       988.74 cm**-1
  47:       995.97 cm**-1
  48:      1052.67 cm**-1
  49:      1059.79 cm**-1
  50:      1071.14 cm**-1
  51:      1105.95 cm**-1
  52:      1109.61 cm**-1
  53:      1143.12 cm**-1
  54:      1168.68 cm**-1
  55:      1184.06 cm**-1
  56:      1197.62 cm**-1
  57:      1203.15 cm**-1
  58:      1235.79 cm**-1
  59:      1251.76 cm**-1
  60:      1273.59 cm**-1
  61:      1281.23 cm**-1
  62:      1281.66 cm**-1
  63:      1297.94 cm**-1
  64:      1349.20 cm**-1
  65:      1355.59 cm**-1
  66:      1379.29 cm**-1
  67:      1409.78 cm**-1
  68:      1433.38 cm**-1
  69:      1434.95 cm**-1
  70:      1499.27 cm**-1
  71:      1507.85 cm**-1
  72:      1510.23 cm**-1
  73:      1514.23 cm**-1
  74:      1517.05 cm**-1
  75:      1518.23 cm**-1
  76:      1532.74 cm**-1
  77:      1546.99 cm**-1
  78:      1561.68 cm**-1
  79:      1574.32 cm**-1
  80:      2769.78 cm**-1
  81:      2792.90 cm**-1
  82:      2863.01 cm**-1
  83:      2875.02 cm**-1
  84:      2893.68 cm**-1
  85:      2896.46 cm**-1
  86:      2900.89 cm**-1
  87:      2911.60 cm**-1
  88:      2917.07 cm**-1
  89:      2929.70 cm**-1
  90:      2982.77 cm**-1
  91:      2988.80 cm**-1
  92:      2995.23 cm**-1
  93:      3002.90 cm**-1
  94:      3014.88 cm**-1
  95:      3156.45 cm**-1
  96:      3267.12 cm**-1
  97:      3309.12 cm**-1
  98:      3426.83 cm**-1


------------
NORMAL MODES
------------

These modes are the cartesian displacements weighted by the diagonal matrix
M(i,i)=1/sqrt(m[i]) where m[i] is the mass of the displaced atom
Thus, these vectors are normalized but *not* orthogonal

                  0          1          2          3          4          5    
      0       0.000000   0.000000   0.000000   0.000000   0.000000   0.000000
      1       0.000000   0.000000   0.000000   0.000000   0.000000   0.000000
      2       0.000000   0.000000   0.000000   0.000000   0.000000   0.000000
      3       0.000000   0.000000   0.000000   0.000000   0.000000   0.000000
      4       0.000000   0.000000   0.000000   0.000000   0.000000   0.000000
      5       0.000000   0.000000   0.000000   0.000000   0.000000   0.000000
      6       0.000000   0.000000   0.000000   0.000000   0.000000   0.000000
      7       0.000000   0.000000   0.000000   0.000000   0.000000   0.000000
      8       0.000000   0.000000   0.000000   0.000000   0.000000   0.000000
      9       0.000000   0.000000   0.000000   0.000000   0.000000   0.000000
     10       0.000000   0.000000   0.000000   0.000000   0.000000   0.000000
     11       0.000000   0.000000   0.000000   0.000000   0.000000   0.000000
     12       0.000000   0.000000   0.000000   0.000000   0.000000   0.000000
     13       0.000000   0.000000   0.000000   0.000000   0.000000   0.000000
     14       0.000000   0.000000   0.000000   0.000000   0.000000   0.000000
     15       0.000000   0.000000   0.000000   0.000000   0.000000   0.000000
     16       0.000000   0.000000   0.000000   0.000000   0.000000   0.000000
     17       0.000000   0.000000   0.000000   0.000000   0.000000   0.000000
     18       0.000000   0.000000   0.000000   0.000000   0.000000   0.000000
     19       0.000000   0.000000   0.000000   0.000000   0.000000   0.000000
     20       0.000000   0.000000   0.000000   0.000000   0.000000   0.000000
     21       0.000000   0.000000   0.000000   0.000000   0.000000   0.000000
     22       0.000000   0.000000   0.000000   0.000000   0.000000   0.000000
     23       0.000000   0.000000   0.000000   0.000000   0.000000   0.000000
     24       0.000000   0.000000   0.000000   0.000000   0.000000   0.000000
     25       0.000000   0.000000   0.000000   0.000000   0.000000   0.000000
     26       0.000000   0.000000   0.000000   0.000000   0.000000   0.000000
     27       0.000000   0.000000   0.000000   0.000000   0.000000   0.000000
     28       0.000000   0.000000   0.000000   0.000000   0.000000   0.000000
     29       0.000000   0.000000   0.000000   0.000000   0.000000   0.000000
     30       0.000000   0.000000   0.000000   0.000000   0.000000   0.000000
     31       0.000000   0.000000   0.000000   0.000000   0.000000   0.000000
     32       0.000000   0.000000   0.000000   0.000000   0.000000   0.000000
     33       0.000000   0.000000   0.000000   0.000000   0.000000   0.000000
     34       0.000000   0.000000   0.000000   0.000000   0.000000   0.000000
     35       0.000000   0.000000   0.000000   0.000000   0.000000   0.000000
     36       0.000000   0.000000   0.000000   0.000000   0.000000   0.000000
     37       0.000000   0.000000   0.000000   0.000000   0.000000   0.000000
     38       0.000000   0.000000   0.000000   0.000000   0.000000   0.000000
     39       0.000000   0.000000   0.000000   0.000000   0.000000   0.000000
     40       0.000000   0.000000   0.000000   0.000000   0.000000   0.000000
     41       0.000000   0.000000   0.000000   0.000000   0.000000   0.000000
     42       0.000000   0.000000   0.000000   0.000000   0.000000   0.000000
     43       0.000000   0.000000   0.000000   0.000000   0.000000   0.000000
     44       0.000000   0.000000   0.000000   0.000000   0.000000   0.000000
     45       0.000000   0.000000   0.000000   0.000000   0.000000   0.000000
     46       0.000000   0.000000   0.000000   0.000000   0.000000   0.000000
     47       0.000000   0.000000   0.000000   0.000000   0.000000   0.000000
     48       0.000000   0.000000   0.000000   0.000000   0.000000   0.000000
     49       0.000000   0.000000   0.000000   0.000000   0.000000   0.000000
     50       0.000000   0.000000   0.000000   0.000000   0.000000   0.000000
     51       0.000000   0.000000   0.000000   0.000000   0.000000   0.000000
     52       0.000000   0.000000   0.000000   0.000000   0.000000   0.000000
     53       0.000000   0.000000   0.000000   0.000000   0.000000   0.000000
     54       0.000000   0.000000   0.000000   0.000000   0.000000   0.000000
     55       0.000000   0.000000   0.000000   0.000000   0.000000   0.000000
     56       0.000000   0.000000   0.000000   0.000000   0.000000   0.000000
     57       0.000000   0.000000   0.000000   0.000000   0.000000   0.000000
     58       0.000000   0.000000   0.000000   0.000000   0.000000   0.000000
     59       0.000000   0.000000   0.000000   0.000000   0.000000   0.000000
     60       0.000000   0.000000   0.000000   0.000000   0.000000   0.000000
     61       0.000000   0.000000   0.000000   0.000000   0.000000   0.000000
     62       0.000000   0.000000   0.000000   0.000000   0.000000   0.000000
     63       0.000000   0.000000   0.000000   0.000000   0.000000   0.000000
     64       0.000000   0.000000   0.000000   0.000000   0.000000   0.000000
     65       0.000000   0.000000   0.000000   0.000000   0.000000   0.000000
     66       0.000000   0.000000   0.000000   0.000000   0.000000   0.000000
     67       0.000000   0.000000   0.000000   0.000000   0.000000   0.000000
     68       0.000000   0.000000   0.000000   0.000000   0.000000   0.000000
     69       0.000000   0.000000   0.000000   0.000000   0.000000   0.000000
     70       0.000000   0.000000   0.000000   0.000000   0.000000   0.000000
     71       0.000000   0.000000   0.000000   0.000000   0.000000   0.000000
     72       0.000000   0.000000   0.000000   0.000000   0.000000   0.000000
     73       0.000000   0.000000   0.000000   0.000000   0.000000   0.000000
     74       0.000000   0.000000   0.000000   0.000000   0.000000   0.000000
     75       0.000000   0.000000   0.000000   0.000000   0.000000   0.000000
     76       0.000000   0.000000   0.000000   0.000000   0.000000   0.000000
     77       0.000000   0.000000   0.000000   0.000000   0.000000   0.000000
     78       0.000000   0.000000   0.000000   0.000000   0.000000   0.000000
     79       0.000000   0.000000   0.000000   0.000000   0.000000   0.000000
     80       0.000000   0.000000   0.000000   0.000000   0.000000   0.000000
     81       0.000000   0.000000   0.000000   0.000000   0.000000   0.000000
     82       0.000000   0.000000   0.000000   0.000000   0.000000   0.000000
     83       0.000000   0.000000   0.000000   0.000000   0.000000   0.000000
     84       0.000000   0.000000   0.000000   0.000000   0.000000   0.000000
     85       0.000000   0.000000   0.000000   0.000000   0.000000   0.000000
     86       0.000000   0.000000   0.000000   0.000000   0.000000   0.000000
     87       0.000000   0.000000   0.000000   0.000000   0.000000   0.000000
     88       0.000000   0.000000   0.000000   0.000000   0.000000   0.000000
     89       0.000000   0.000000   0.000000   0.000000   0.000000   0.000000
     90       0.000000   0.000000   0.000000   0.000000   0.000000   0.000000
     91       0.000000   0.000000   0.000000   0.000000   0.000000   0.000000
     92       0.000000   0.000000   0.000000   0.000000   0.000000   0.000000
     93       0.000000   0.000000   0.000000   0.000000   0.000000   0.000000
     94       0.000000   0.000000   0.000000   0.000000   0.000000   0.000000
     95       0.000000   0.000000   0.000000   0.000000   0.000000   0.000000
     96       0.000000   0.000000   0.000000   0.000000   0.000000   0.000000
     97       0.000000   0.000000   0.000000   0.000000   0.000000   0.000000
     98       0.000000   0.000000   0.000000   0.000000   0.000000   0.000000
                  6          7          8          9         10         11    
      0       0.035337   0.127576   0.074296   0.024465  -0.130562  -0.020742
      1       0.002725  -0.004277   0.048633   0.162164  -0.016619  -0.014377
      2      -0.013475  -0.067315  -0.044964   0.005495   0.042013  -0.026012
      3       0.078801   0.089476   0.041783   0.011297  -0.014482  -0.048310
      4       0.050511  -0.008428   0.060861   0.067644   0.005996  -0.044428
      5       0.016756  -0.085392  -0.057138  -0.021494   0.100952  -0.045254
      6       0.115105   0.060750   0.005807  -0.001697   0.071244  -0.019776
      7       0.084433  -0.009653   0.051925  -0.005230   0.021649   0.004579
      8       0.029994  -0.067458  -0.041247  -0.086547   0.057334  -0.014872
      9       0.090876   0.075559   0.003143   0.001623   0.027235   0.039317
     10       0.048835  -0.003423   0.028473   0.025212   0.003563   0.090107
     11       0.000009  -0.030748  -0.012593  -0.121084  -0.051431   0.037004
     12       0.045261   0.114792   0.037533   0.017628  -0.088911   0.065949
     13       0.002856   0.000550   0.018200   0.123023  -0.017764   0.117957
     14      -0.029714  -0.012681   0.000328  -0.091465  -0.108854   0.056044
     15       0.021681   0.140150   0.072699   0.027317  -0.166450   0.035591
     16      -0.014261  -0.000601   0.028016   0.189551  -0.025250   0.065668
     17      -0.032241  -0.031913  -0.015731  -0.029985  -0.060607   0.024027
     18       0.089457   0.080382   0.042919   0.010133   0.012745  -0.088099
     19       0.060198  -0.009455   0.076755   0.049866   0.010725  -0.100737
     20       0.033664  -0.111748  -0.078224   0.003879   0.178641  -0.081596
     21       0.106709   0.059220  -0.030113  -0.014504   0.081840   0.062836
     22       0.065687  -0.001477   0.019024  -0.031518   0.010946   0.131620
     23       0.005780  -0.017053   0.002718  -0.165807  -0.082186   0.062329
     24      -0.006153   0.168246   0.097837   0.035571  -0.250966   0.054922
     25      -0.041821   0.001537   0.019049   0.257805  -0.037161   0.086454
     26      -0.051389  -0.018445  -0.006207  -0.010454  -0.102321   0.037788
     27      -0.271552  -0.027884   0.032576  -0.012464   0.103625   0.044219
     28      -0.211470   0.134015  -0.003103  -0.084040   0.049116  -0.227379
     29      -0.155560   0.161340  -0.078850   0.097094   0.096880   0.137043
     30      -0.218818  -0.035212   0.052452  -0.038899   0.107360   0.049730
     31      -0.158779   0.128579   0.017538  -0.114728   0.047854  -0.230126
     32      -0.099511   0.128759  -0.082454   0.126521   0.129311   0.198522
     33      -0.164232  -0.036259   0.070523  -0.043136   0.054069   0.023388
     34      -0.126075   0.080631  -0.038715  -0.017126   0.043354  -0.124189
     35      -0.038714   0.139999  -0.059444   0.096054   0.051945   0.152086
     36      -0.228050   0.035206   0.076395  -0.053355   0.089182  -0.012784
     37      -0.116732   0.052847  -0.040003  -0.016726   0.028510  -0.118081
     38       0.070004   0.124494  -0.069918   0.130079   0.046733   0.218053
     39      -0.076303  -0.056751   0.100735  -0.062389   0.001420   0.007410
     40      -0.096590   0.116400  -0.055523   0.015457   0.075969  -0.076897
     41      -0.093912   0.154186  -0.079020   0.108694   0.086087   0.163151
     42      -0.346134  -0.024269   0.013830   0.000485   0.141282   0.055442
     43      -0.430585   0.183876  -0.023710  -0.091098   0.042501  -0.291701
     44      -0.126944   0.161662  -0.069568   0.089297   0.076026   0.128186
     45       0.007250  -0.048131  -0.449058   0.100439  -0.187558  -0.120998
     46       0.024599   0.030873  -0.018579  -0.213459  -0.054729   0.015845
     47       0.013749  -0.122437   0.216892   0.332285   0.010387  -0.192204
     48       0.031870  -0.027036  -0.321587   0.072114  -0.046820  -0.072981
     49       0.014551   0.032231  -0.048288  -0.225715  -0.075966   0.014222
     50       0.001942  -0.098142   0.160680   0.206743   0.028997  -0.149614
     51       0.177425   0.026241  -0.029117  -0.000512   0.199703  -0.037320
     52       0.144674  -0.000350   0.067323  -0.095774   0.034910  -0.024058
     53       0.056286  -0.075782  -0.054455  -0.100138   0.117116  -0.028253
     54       0.146240   0.043986  -0.036806  -0.016911   0.217474  -0.066116
     55       0.108377   0.025805   0.068732  -0.128287   0.035090  -0.060758
     56       0.042601  -0.082686  -0.087103  -0.075430   0.193451  -0.043780
     57       0.138807   0.022041  -0.052386   0.032652   0.265608  -0.017313
     58       0.103300   0.008960   0.080338  -0.101492   0.024977  -0.002407
     59       0.029260  -0.062125  -0.031507  -0.123122   0.072286  -0.020860
     60      -0.103873  -0.112025   0.064993  -0.032984   0.016831   0.064875
     61      -0.064414  -0.000605  -0.054920   0.004369   0.012315  -0.063737
     62       0.012737   0.115197   0.006913   0.024973  -0.035418   0.043424
     63      -0.043743  -0.185441   0.061427  -0.026640  -0.021069   0.106482
     64      -0.085744   0.024894  -0.053582   0.003235   0.023972  -0.074263
     65      -0.019342   0.157874   0.008163   0.014850  -0.004096  -0.003428
     66      -0.142151  -0.074988   0.027583   0.000546   0.086932   0.108578
     67      -0.044977  -0.015024  -0.042627  -0.013281  -0.003096  -0.097379
     68       0.035782   0.092924   0.029069   0.004848  -0.076676   0.016408
     69       0.017708  -0.060537  -0.422510   0.104625  -0.184626  -0.140824
     70       0.016797   0.040940  -0.059873  -0.264961  -0.060635   0.032747
     71       0.010658  -0.118541   0.191158   0.289241   0.006006  -0.185770
     72      -0.069873  -0.141555   0.115166  -0.079370  -0.061236  -0.007188
     73      -0.007304  -0.097895  -0.086911   0.047383  -0.017637   0.071429
     74       0.056240   0.063880   0.040250  -0.001522  -0.111477   0.017896
     75      -0.097808  -0.081440   0.121951  -0.092713  -0.028060  -0.055047
     76      -0.002302  -0.115054  -0.090172   0.052447  -0.025460   0.084221
     77       0.095657   0.012165   0.042406   0.002544  -0.150450   0.064044
     78      -0.040638  -0.175984   0.150242  -0.110087  -0.126802  -0.054530
     79       0.003698  -0.101064  -0.091780   0.053153  -0.014776   0.103634
     80       0.040039   0.083686   0.019497   0.016701  -0.072962   0.047248
     81       0.029884   0.125144   0.036324   0.020616  -0.117253   0.107181
     82      -0.014095   0.003348   0.002910   0.144122  -0.025037   0.176863
     83      -0.050862   0.015989   0.021030  -0.116501  -0.188250   0.093232
     84       0.016027   0.146098   0.099733   0.030622  -0.189519  -0.041238
     85      -0.018749  -0.003216   0.054463   0.211377  -0.026213  -0.049486
     86      -0.021368  -0.079654  -0.057228   0.052053   0.074598  -0.047657
     87      -0.043928  -0.202232   0.107450  -0.065176  -0.091955   0.045366
     88       0.019709  -0.163563  -0.102594   0.070025  -0.043098   0.145681
     89       0.064322   0.056958   0.093376  -0.053029  -0.181546  -0.108753
     90      -0.038948  -0.201162   0.130976  -0.088685  -0.121075  -0.009330
     91       0.041003  -0.208156  -0.123474   0.095165  -0.046386   0.229880
     92       0.075485   0.043475   0.106173  -0.064437  -0.206694  -0.126992
     93      -0.020279  -0.256957   0.102973  -0.054791  -0.122652   0.088439
     94       0.013230  -0.145453  -0.102095   0.067461  -0.031628   0.136116
     95       0.049248   0.075701   0.099806  -0.060896  -0.177445  -0.146622
     96      -0.054762  -0.190085   0.083345  -0.042529  -0.053137   0.093717
     97       0.023075  -0.181921  -0.092122   0.062151  -0.068535   0.122011
     98       0.071340   0.048291   0.109242  -0.067833  -0.207531  -0.140790
                 12         13         14         15         16         17    
      0      -0.127542   0.016029  -0.020602  -0.000454   0.015490  -0.028013
      1      -0.165460  -0.001846   0.009694   0.014306   0.011546  -0.025983
      2      -0.066026  -0.022487   0.042717   0.028102  -0.001594  -0.020584
      3      -0.107449   0.018159  -0.015509   0.010258  -0.007380   0.124837
      4      -0.174705   0.088148  -0.076156  -0.006145   0.005231   0.134290
      5      -0.059208  -0.000151   0.023191   0.027442  -0.012556   0.087401
      6       0.022685  -0.010168   0.010206   0.016083  -0.022681   0.149261
      7      -0.013432   0.101413  -0.100069  -0.021070  -0.000867   0.141469
      8       0.014149   0.033207  -0.017673   0.008558  -0.009052   0.080009
      9       0.132702  -0.032288   0.022069   0.014240  -0.025389   0.151454
     10       0.163508   0.043255  -0.058793  -0.014752  -0.010301   0.161367
     11       0.086292   0.057093  -0.050725  -0.009508   0.000621   0.046934
     12       0.117540  -0.034600   0.017878   0.004536  -0.003854   0.005227
     13       0.178681  -0.046302   0.030254   0.007732  -0.006672   0.008341
     14       0.082875   0.036814  -0.032948  -0.009095   0.011869  -0.059108
     15      -0.013099  -0.015719   0.002429  -0.002686   0.018348  -0.122953
     16       0.013384  -0.074402   0.069543   0.021160   0.008747  -0.146137
     17       0.007066  -0.006123   0.018170   0.009726   0.012229  -0.126431
     18      -0.184620   0.035824  -0.028108   0.011993  -0.007291   0.166922
     19      -0.300932   0.133298  -0.116489  -0.011803   0.011794   0.186451
     20      -0.105556  -0.015443   0.045890   0.040986  -0.022057   0.139615
     21       0.221186  -0.052139   0.037715   0.019889  -0.040007   0.222347
     22       0.282490   0.061767  -0.086825  -0.026384  -0.016856   0.228247
     23       0.144923   0.090227  -0.090607  -0.025301   0.004330   0.065289
     24      -0.025173  -0.022148   0.005421  -0.009750   0.035816  -0.270923
     25       0.023611  -0.145638   0.138739   0.035773   0.017131  -0.322935
     26       0.003927  -0.025593   0.035559   0.009855   0.022200  -0.235288
     27      -0.039213  -0.055039  -0.078682  -0.023850   0.035197   0.013272
     28       0.095906  -0.042395  -0.066510  -0.000565   0.042134   0.050512
     29      -0.075594  -0.091758  -0.112177  -0.041867   0.056120   0.048975
     30      -0.055788  -0.052893  -0.086438   0.000709   0.016459   0.025381
     31       0.082030  -0.037089  -0.073712   0.021801   0.025535   0.067210
     32      -0.105317  -0.103456  -0.117360  -0.007837   0.021580   0.011572
     33      -0.024726   0.109739   0.018797   0.061879  -0.090239  -0.027611
     34       0.077505   0.089655   0.036635   0.081577  -0.093813  -0.080852
     35      -0.068539   0.091219   0.002786   0.059067  -0.095434  -0.025777
     36      -0.027621   0.104624  -0.099997   0.215435  -0.154230  -0.038650
     37       0.080912   0.063701   0.078561  -0.014480  -0.035008  -0.055060
     38      -0.083345   0.288860   0.060796   0.280441  -0.319145  -0.170475
     39      -0.007627   0.235711   0.123889   0.094329  -0.171181  -0.056407
     40       0.054775   0.225520  -0.019214   0.360792  -0.306235  -0.205392
     41      -0.079791   0.015200  -0.065563   0.046842  -0.050253  -0.011627
     42      -0.052300  -0.184347  -0.154863  -0.080220   0.126435   0.046344
     43       0.125587  -0.183913  -0.129970  -0.127727   0.203420   0.133886
     44      -0.067175  -0.029023  -0.073406  -0.018003   0.014879   0.035014
     45      -0.024847   0.049253  -0.052509  -0.014096  -0.001939  -0.021296
     46      -0.120715  -0.238165   0.208319   0.029926  -0.045271   0.119926
     47       0.027441  -0.101115   0.080116  -0.003136  -0.027966   0.076016
     48       0.003283   0.006090  -0.046213  -0.015812   0.015212  -0.064908
     49      -0.130626  -0.229040   0.202719   0.032197  -0.047666   0.118543
     50       0.002751  -0.080859   0.046963   0.001924  -0.017100   0.011925
     51       0.035989  -0.031713   0.018387   0.010108  -0.003345  -0.002302
     52      -0.043620   0.104056  -0.102271  -0.034644   0.008516  -0.034067
     53       0.013923   0.020687  -0.021133   0.000278   0.005713  -0.018543
     54       0.024898  -0.029700   0.014131   0.009771  -0.002230   0.018352
     55      -0.065433   0.113464  -0.107467  -0.035309   0.004920  -0.004375
     56       0.028779   0.012497  -0.029727   0.000451   0.019493  -0.022301
     57       0.048869  -0.091925   0.010118  -0.008236   0.042729  -0.186183
     58      -0.060640   0.035682  -0.088311  -0.052234   0.040328  -0.238597
     59      -0.007814  -0.011269  -0.001673  -0.002918   0.007199  -0.085988
     60      -0.026045   0.104037   0.125404  -0.097279  -0.014210   0.002605
     61       0.069494   0.081901   0.141502  -0.075252  -0.020400  -0.057380
     62      -0.014273   0.093238   0.127729  -0.117598  -0.001411   0.043849
     63      -0.030823   0.081962   0.201589  -0.239610   0.070779   0.049198
     64       0.069954   0.085351   0.084386   0.032590  -0.042237  -0.077236
     65      -0.004642   0.126022   0.266079  -0.394487  -0.094273   0.044743
     66      -0.057097   0.135164   0.153322  -0.180683  -0.120882  -0.016612
     67       0.084782   0.093915   0.308851  -0.392723  -0.027423  -0.019671
     68       0.004488   0.074767   0.117970  -0.082611   0.059821   0.055754
     69      -0.018399   0.041351  -0.040579  -0.021862   0.003050  -0.006725
     70      -0.134897  -0.218740   0.186918   0.033067  -0.042601   0.087790
     71       0.017412  -0.087989   0.066923  -0.003271  -0.023864   0.054571
     72       0.017096   0.060214   0.057149   0.057689   0.096054  -0.004447
     73       0.028446   0.032584   0.056120   0.055140   0.101036   0.001508
     74       0.012282   0.040055   0.044694   0.053133   0.128538   0.053208
     75       0.036659   0.179931   0.192676   0.115719   0.229486  -0.004373
     76       0.020355  -0.021732   0.000792  -0.007006   0.002707  -0.007750
     77       0.010152   0.052768   0.021518   0.273607   0.367618   0.109524
     78       0.047450  -0.005659  -0.030160   0.166178   0.144920  -0.024158
     79       0.027293   0.134755   0.139418   0.261696   0.389398   0.064852
     80      -0.005512   0.083598   0.099767   0.000350   0.114273   0.067424
     81       0.199138  -0.053880   0.029771   0.003065  -0.003716  -0.023769
     82       0.309139  -0.093617   0.068874   0.013661  -0.012605  -0.022061
     83       0.133649   0.051785  -0.057358  -0.023464   0.021949  -0.103319
     84      -0.221162   0.035758  -0.037697  -0.006411   0.030449  -0.089814
     85      -0.283925  -0.018453   0.031477   0.023771   0.020376  -0.081611
     86      -0.121430  -0.053957   0.077915   0.042351  -0.003380  -0.033662
     87      -0.006094  -0.066699  -0.090753  -0.008107  -0.055666  -0.000063
     88      -0.004012  -0.090515  -0.090007  -0.011499  -0.041883   0.022109
     89       0.065434  -0.102497  -0.095711  -0.001252  -0.063815  -0.057972
     90       0.021977  -0.088851  -0.111659   0.039425  -0.025962  -0.031814
     91      -0.036005  -0.112631  -0.132610   0.019496   0.002851   0.086172
     92       0.078399  -0.127925  -0.126690   0.048058  -0.024878  -0.063792
     93      -0.025515  -0.187663  -0.232975  -0.066214  -0.197712   0.003776
     94       0.002203  -0.035170  -0.028281   0.032839   0.047653   0.031409
     95       0.073064  -0.137517  -0.120305  -0.107095  -0.227836  -0.111976
     96      -0.031651  -0.013508  -0.034273  -0.044229  -0.053489   0.032821
     97      -0.001153  -0.209439  -0.212926  -0.134284  -0.278839  -0.034383
     98       0.081828  -0.142681  -0.138128   0.014993  -0.077978  -0.081917
                 18         19         20         21         22         23    
      0       0.006802  -0.048579   0.036838  -0.001418   0.005285   0.097559
      1       0.003967  -0.003458   0.057605  -0.002346   0.005487   0.143773
      2      -0.004661   0.047039   0.050507  -0.002710   0.001118   0.075548
      3       0.021156   0.083852   0.043929  -0.000697   0.004173  -0.113316
      4       0.040354  -0.135568   0.038888  -0.001023   0.002862  -0.167393
      5       0.011228   0.071076   0.048294  -0.001990   0.000607  -0.094140
      6       0.011456   0.164913  -0.002285  -0.000217  -0.005081   0.012414
      7       0.034904  -0.139633  -0.042184   0.000228  -0.007573   0.019045
      8       0.012760   0.013327  -0.008982  -0.000950  -0.002779   0.009711
      9       0.013435   0.159914   0.075690  -0.000738   0.004464   0.096766
     10       0.034970  -0.074396   0.078889  -0.000465   0.007386   0.145751
     11       0.019712  -0.139710   0.046642  -0.001600   0.001563   0.075881
     12      -0.004661   0.046915   0.003494  -0.000762   0.002228  -0.113269
     13      -0.007042   0.069530  -0.001341  -0.000857   0.004336  -0.165560
     14       0.002254  -0.177328  -0.005695  -0.001771  -0.000726  -0.093197
     15      -0.017647  -0.035038  -0.066251  -0.000863  -0.003875   0.016026
     16      -0.035696   0.109731  -0.085079  -0.001477  -0.006713   0.024258
     17      -0.017915  -0.079289  -0.042254  -0.002312  -0.007773   0.009103
     18       0.030959   0.079394   0.064754  -0.000558   0.007429  -0.249491
     19       0.059427  -0.196676   0.064180  -0.000584   0.009148  -0.370956
     20       0.012956   0.157010   0.075192  -0.002239   0.001463  -0.205077
     21       0.017609   0.265456   0.120864  -0.000556   0.010155   0.221546
     22       0.049283  -0.114051   0.137081  -0.000332   0.013921   0.333769
     23       0.031125  -0.253150   0.073617  -0.001585   0.004194   0.178308
     24      -0.040596  -0.097267  -0.155192  -0.000829  -0.010462   0.037392
     25      -0.078931   0.206807  -0.196676  -0.001627  -0.016188   0.055689
     26      -0.038485  -0.085097  -0.109121  -0.002326  -0.012936   0.026201
     27       0.109579   0.027117  -0.011576   0.001328  -0.174424   0.002477
     28      -0.177299  -0.005512  -0.004831  -0.000252   0.022660   0.004617
     29       0.064818   0.032763  -0.041014   0.003436   0.144380   0.003385
     30       0.068610   0.012415  -0.085170   0.001896  -0.224315   0.030923
     31      -0.245201  -0.021607  -0.073292  -0.000016  -0.018424   0.030804
     32       0.265579   0.037925  -0.132290   0.006614   0.046857   0.041343
     33      -0.079787  -0.019103   0.010716  -0.005474  -0.167616  -0.001541
     34       0.058225  -0.010283   0.018205  -0.002957   0.059405  -0.000089
     35      -0.023118  -0.009192  -0.006312  -0.003491   0.093828  -0.001819
     36      -0.193975  -0.036322   0.019818  -0.001536  -0.235057  -0.000888
     37       0.101845   0.002102   0.012292  -0.004398   0.080436   0.000131
     38       0.004232  -0.046985   0.017237  -0.005501   0.122272  -0.006299
     39      -0.183975  -0.049565   0.038471  -0.010902  -0.230079  -0.005003
     40       0.042062  -0.041011   0.034378  -0.000740   0.065418  -0.002858
     41       0.043052   0.009554  -0.023159   0.000020   0.134846   0.000119
     42       0.247545   0.057575  -0.051102   0.007586  -0.203046   0.016785
     43      -0.249356   0.026873   0.136204   0.002133   0.153891  -0.053891
     44      -0.013460   0.017739  -0.011449   0.000153   0.167393  -0.007657
     45       0.012754   0.015352  -0.002513   0.000517   0.004381  -0.001506
     46       0.009363  -0.146678  -0.033964   0.000767   0.009106   0.019545
     47      -0.003063  -0.091602  -0.029226   0.001366   0.009306   0.021344
     48       0.017501  -0.029112   0.065863   0.000816  -0.022861   0.016545
     49       0.008835  -0.122665  -0.042541   0.000831   0.008426   0.009080
     50      -0.010347   0.021532   0.022461   0.001603  -0.015702  -0.016568
     51      -0.015890  -0.003923  -0.142238   0.000713  -0.005956   0.020276
     52      -0.015934   0.061650  -0.203506   0.001673  -0.008454   0.028858
     53      -0.009958   0.008838  -0.103446   0.000149  -0.001033   0.016775
     54      -0.046825   0.028105  -0.441145   0.002100  -0.009165   0.036206
     55      -0.057311   0.219219  -0.574940   0.003410  -0.013062   0.048165
     56      -0.021220  -0.274053  -0.309749   0.001083  -0.003546   0.028729
     57      -0.008693  -0.306619   0.100087   0.000055   0.002987  -0.018845
     58      -0.016952   0.171508   0.146229   0.000786   0.002058  -0.024756
     59      -0.014005   0.253020   0.063085  -0.000222   0.002527  -0.007852
     60      -0.008901  -0.001575  -0.010678  -0.010031  -0.038749  -0.001009
     61       0.163359   0.010537  -0.004496  -0.007674   0.109291   0.000178
     62      -0.126435  -0.012367   0.018332  -0.009808  -0.060427   0.000682
     63       0.014945   0.016657  -0.037688  -0.017965  -0.053119   0.000803
     64       0.148770   0.001750   0.006879   0.004959   0.109025  -0.001071
     65      -0.114660  -0.008912   0.023050  -0.066912  -0.039273   0.003365
     66      -0.009934  -0.005835  -0.018154  -0.041071  -0.060992  -0.001909
     67       0.169783   0.020931  -0.009017  -0.057332   0.102516   0.003286
     68      -0.122472  -0.009336   0.021815   0.005704  -0.045392   0.001464
     69      -0.008723   0.012997  -0.008097   0.000765   0.001722  -0.000396
     70       0.009160  -0.086387  -0.014125   0.000822   0.000670  -0.000928
     71      -0.012033  -0.040811  -0.015082   0.001508   0.000955   0.003713
     72       0.054117   0.007142  -0.016167   0.023629   0.157148   0.000913
     73       0.074453   0.012676  -0.007506   0.021466  -0.102810  -0.001204
     74      -0.087558  -0.003473   0.017500   0.027218  -0.051684   0.001503
     75       0.144813   0.017434  -0.026203   0.046903   0.211044   0.001591
     76       0.038662   0.006515  -0.002368   0.005415  -0.117993  -0.001676
     77      -0.116670   0.005147   0.015638   0.056392  -0.090350   0.002612
     78       0.138441   0.018261  -0.025576   0.027727   0.215437   0.001286
     79       0.057612   0.022381  -0.009062   0.061736  -0.112676   0.000263
     80      -0.136188  -0.009387   0.022490   0.025959  -0.088121   0.001351
     81      -0.012481   0.049318  -0.005966  -0.000661   0.004664  -0.235283
     82      -0.021855   0.133191  -0.008600  -0.000860   0.007362  -0.347463
     83       0.001178  -0.275756  -0.024785  -0.001458   0.002183  -0.190644
     84       0.007898  -0.153161   0.064806  -0.002155   0.008498   0.204845
     85      -0.001481   0.013916   0.112910  -0.003372   0.012215   0.302636
     86      -0.011193   0.140884   0.087616  -0.003251   0.005756   0.163174
     87      -0.075052  -0.007903  -0.002600  -0.004586   0.231527   0.001342
     88      -0.100131  -0.005917   0.013018  -0.005737  -0.099945  -0.000807
     89       0.148783   0.011871  -0.004499  -0.005761  -0.121620  -0.001380
     90       0.062811   0.007758  -0.022387  -0.330588   0.157911  -0.000804
     91      -0.288958  -0.018857   0.027926  -0.318695   0.021416   0.000941
     92       0.202694   0.020752  -0.016308  -0.376509  -0.143925  -0.002585
     93      -0.197610  -0.021775   0.011048  -0.066913   0.297875   0.001844
     94      -0.063166   0.000328   0.006736  -0.091690  -0.113938  -0.000903
     95       0.207583   0.008197   0.000121   0.546489  -0.178795  -0.001844
     96      -0.193097  -0.021267   0.015046   0.360022   0.293638   0.003504
     97      -0.087918  -0.014236   0.020712   0.368486  -0.121122  -0.001438
     98       0.224527   0.019870  -0.015321  -0.217706  -0.163213  -0.002797
                 24         25         26         27         28         29    
      0       0.011440  -0.142726   0.003883  -0.041283   0.045105  -0.005579
      1       0.005443   0.016827   0.001835  -0.050721   0.070679   0.016848
      2      -0.005096   0.167837   0.001164  -0.024167   0.036114  -0.005763
      3       0.001554  -0.052357   0.001656  -0.006461  -0.001291  -0.014107
      4      -0.001436  -0.035407  -0.000407  -0.007928   0.001773   0.005376
      5      -0.008668   0.138775   0.000000  -0.000135  -0.001725  -0.013966
      6      -0.010731   0.139636  -0.002323   0.080110  -0.095290   0.001946
      7      -0.005049  -0.056941  -0.003634   0.108075  -0.137075   0.000533
      8      -0.000217  -0.095888  -0.000055   0.054578  -0.076581  -0.023151
      9      -0.001072   0.152364   0.000371  -0.001232   0.008131   0.006850
     10       0.013328  -0.144569   0.001387  -0.017921   0.017236   0.000101
     11       0.000521   0.093778   0.000314  -0.003243   0.012046   0.008794
     12      -0.001434   0.042164   0.001185  -0.029871   0.035151   0.004231
     13       0.002892  -0.074393   0.000820  -0.050453   0.058359  -0.002607
     14      -0.003724   0.091328   0.000310  -0.022778   0.034435   0.010093
     15       0.003118  -0.148733   0.000946   0.041962  -0.060319  -0.013610
     16      -0.005014  -0.040618  -0.001792   0.069012  -0.086220  -0.012700
     17      -0.014300   0.240866  -0.002137   0.047282  -0.045286   0.010282
     18       0.002341  -0.039201   0.002534  -0.043735   0.048561  -0.014842
     19       0.006620  -0.148823   0.001848  -0.067645   0.077535  -0.001585
     20      -0.017320   0.338660  -0.000671  -0.022596   0.037507  -0.004776
     21       0.007407   0.098784   0.001671  -0.054115   0.081656  -0.032169
     22       0.022956  -0.114131   0.005140  -0.091642   0.128881  -0.007635
     23       0.004703   0.153309   0.003036  -0.040929   0.072576   0.027436
     24       0.001491  -0.192558   0.000032   0.082070  -0.104217  -0.013577
     25      -0.012666  -0.008703  -0.003344   0.131374  -0.155151  -0.026410
     26      -0.016593   0.223243  -0.002871   0.079856  -0.081377   0.006248
     27      -0.101646  -0.014395   0.002895   0.064568   0.061501   0.011542
     28       0.047015   0.029517  -0.002247  -0.070728  -0.065827  -0.020336
     29       0.049857   0.030066  -0.001913  -0.006661  -0.013379   0.001031
     30      -0.207143   0.038395  -0.049304  -0.300592  -0.220953  -0.052327
     31      -0.017886   0.084286  -0.053477  -0.423816  -0.342610  -0.077207
     32      -0.358978   0.049148  -0.040047  -0.347428  -0.252737  -0.084582
     33       0.043492  -0.001564   0.001097   0.003727   0.005273   0.001189
     34      -0.123834  -0.030304  -0.000198   0.042896   0.039905   0.006737
     35       0.085605   0.014536  -0.001754  -0.007959  -0.015222  -0.000543
     36       0.056693   0.002248   0.005626  -0.017982  -0.010931  -0.007825
     37      -0.126253  -0.027403  -0.001182   0.047712   0.041558   0.007630
     38       0.073197  -0.015859  -0.003120   0.016909   0.012771   0.012359
     39       0.064774  -0.014207   0.003799   0.005091   0.007435   0.000306
     40      -0.113637  -0.043402  -0.003973   0.045215   0.047163   0.014696
     41       0.070760   0.021090  -0.003778  -0.005706  -0.013333   0.001204
     42      -0.291372  -0.013741  -0.013312  -0.022887   0.004101  -0.005797
     43       0.460963  -0.045852   0.066185   0.561504   0.399500   0.146944
     44       0.175518   0.024827   0.009866   0.074658   0.042433   0.020563
     45      -0.082260   0.034698   0.928191  -0.099389  -0.135270   0.017519
     46       0.043289   0.054030  -0.131821   0.112189   0.165848  -0.516291
     47       0.010565   0.072308   0.242605   0.063007   0.102513  -0.480532
     48      -0.071013  -0.046739  -0.207283  -0.103208  -0.084823  -0.260954
     49       0.026385   0.038214   0.030513   0.066028   0.092801  -0.223894
     50      -0.044467  -0.103659  -0.053982  -0.138932  -0.199582   0.575100
     51      -0.000168   0.016682   0.002359  -0.008835   0.045020   0.032189
     52      -0.005858   0.159148   0.000975  -0.003539   0.057349   0.000455
     53       0.012749  -0.271820   0.003334  -0.013838   0.025322  -0.014167
     54       0.013660   0.061154   0.013495  -0.104104   0.259758   0.049967
     55       0.010918   0.233485   0.013948  -0.123508   0.333039   0.030957
     56       0.024228  -0.311600   0.011916  -0.069188   0.152343  -0.007952
     57       0.002866  -0.009695   0.002183   0.001698  -0.012666  -0.003664
     58      -0.003112   0.134256  -0.001461   0.006334  -0.008923  -0.006406
     59       0.014289  -0.316591   0.003416  -0.011805  -0.001202  -0.000434
     60       0.111318   0.021037   0.000788  -0.032349  -0.030809  -0.004984
     61      -0.039474  -0.006847  -0.001100   0.008529   0.006014   0.003187
     62      -0.076042  -0.016531  -0.000988   0.011068   0.011532   0.001291
     63       0.200486   0.052133   0.000649  -0.092219  -0.077493  -0.013404
     64      -0.066028  -0.019570  -0.000665   0.035662   0.027216   0.007150
     65      -0.152381  -0.022872  -0.001983   0.007786   0.008960  -0.000385
     66       0.202595   0.040095   0.000569  -0.063966  -0.061911  -0.011474
     67      -0.094592  -0.004640  -0.002044  -0.021215  -0.016104  -0.002457
     68      -0.132551  -0.027349  -0.001223   0.026367   0.027339   0.004446
     69       0.006796   0.002043  -0.052596   0.009312   0.012568   0.010321
     70       0.000629  -0.014727   0.006053  -0.003347  -0.011608   0.050368
     71       0.007963   0.000119  -0.010545   0.003570   0.004306   0.013117
     72       0.031945   0.011015  -0.001606  -0.016312  -0.017708  -0.002664
     73       0.102677   0.019535   0.001803  -0.024443  -0.024443  -0.002600
     74      -0.121046  -0.024776  -0.001654   0.029239   0.029719   0.005435
     75       0.048849   0.016524  -0.001936  -0.021483  -0.023727  -0.003124
     76       0.091482   0.015917   0.002055  -0.021183  -0.020937  -0.002288
     77      -0.119193  -0.022012  -0.001897   0.030415   0.030752   0.005753
     78       0.046157   0.016677  -0.001906  -0.017600  -0.020359  -0.002797
     79       0.085276   0.019047   0.000881  -0.019346  -0.020091  -0.001025
     80      -0.126823  -0.027408  -0.001599   0.028926   0.030294   0.005311
[...]
     17       0.000080   0.000012  -0.000004
     18       0.000179   0.001224   0.000312
     19       0.000049  -0.000874  -0.000236
     20       0.000077  -0.000261   0.000036
     21       0.000366   0.000544   0.002247
     22       0.000137  -0.000637  -0.002054
     23       0.000185   0.000415   0.002123
     24       0.000387   0.000141  -0.000070
     25       0.000222  -0.000013  -0.000162
     26      -0.000810  -0.000181   0.000408
     27       0.032979  -0.052212  -0.000280
     28      -0.036321   0.025133   0.000378
     29      -0.028823  -0.052356   0.000140
     30      -0.677948   0.306901   0.005343
     31       0.582040  -0.291706  -0.005872
     32       0.036870  -0.051944   0.001691
     33       0.000051  -0.001665   0.000017
     34      -0.001657   0.000235  -0.000080
     35      -0.001571  -0.002118   0.000096
     36      -0.003944  -0.001268   0.000671
     37      -0.001982  -0.001204   0.000873
     38       0.003604   0.002065  -0.000141
     39       0.005196   0.008973  -0.000190
     40       0.001006   0.001478   0.000133
     41       0.006538   0.007424  -0.001216
     42       0.224701   0.427704  -0.001688
     43      -0.060606  -0.057423   0.000240
     44       0.374467   0.790837  -0.002366
     45       0.002284   0.000344   0.272970
     46       0.004827  -0.000708   0.652729
     47      -0.008583   0.001118  -0.701554
     48       0.003122  -0.000278  -0.009972
     49       0.044096  -0.007387  -0.058564
     50       0.020347  -0.003502   0.005508
     51      -0.000365  -0.000089  -0.000076
     52      -0.000249   0.000297   0.000010
     53      -0.000093  -0.000235   0.000042
     54       0.000999   0.000310   0.000154
     55       0.000742  -0.000395  -0.000334
     56       0.000205  -0.000336  -0.000119
     57       0.000055   0.000050   0.000031
     58       0.000027  -0.000155   0.000073
     59       0.000018   0.000124  -0.000005
     60      -0.000139  -0.000075   0.000002
     61      -0.000005   0.000074  -0.000011
     62       0.000164   0.000018  -0.000009
     63       0.001188  -0.001304  -0.000003
     64       0.003882  -0.002771   0.000238
     65       0.000706  -0.001177   0.000036
     66      -0.002093   0.004508  -0.000186
     67       0.000069  -0.000880   0.000102
     68      -0.003351   0.003658  -0.000175
     69      -0.000481   0.000099  -0.016602
     70      -0.002987   0.000448  -0.037515
     71      -0.000801   0.000219   0.043808
     72      -0.000000  -0.000037   0.000002
     73       0.000010   0.000029  -0.000023
     74      -0.000001  -0.000030   0.000015
     75      -0.000266  -0.000235   0.000085
     76      -0.000586  -0.000205   0.000183
     77      -0.000129   0.000042  -0.000022
     78       0.000160  -0.000072  -0.000051
     79       0.000085   0.000095   0.000029
     80       0.000426   0.000970  -0.000181
     81       0.001038   0.000104   0.000415
     82      -0.000445  -0.000070  -0.000255
     83      -0.000515   0.000004  -0.000087
     84      -0.000527   0.000038   0.000087
     85       0.000892  -0.000006  -0.000148
     86      -0.001008   0.000003   0.000148
     87       0.000027  -0.000000   0.000000
     88      -0.000027   0.000008  -0.000009
     89       0.000009  -0.000018   0.000005
     90      -0.000205  -0.000332   0.000011
     91      -0.000088  -0.000016   0.000007
     92       0.000234   0.000297  -0.000014
     93       0.000166  -0.000086  -0.000001
     94       0.000540  -0.000267   0.000039
     95       0.000101  -0.000119   0.000006
     96      -0.000356   0.000391  -0.000023
     97       0.000054  -0.000051   0.000019
     98      -0.000450   0.000432  -0.000019


-----------
IR SPECTRUM  
-----------

 Mode    freq (cm**-1)   T**2         TX         TY         TZ
-------------------------------------------------------------------
   7:        57.06    0.000000  (  0.000000   0.000000   0.000000)
   8:        59.55    0.000000  (  0.000000   0.000000   0.000000)
   9:        73.72    0.000000  (  0.000000   0.000000   0.000000)
  10:        80.80    0.000000  (  0.000000   0.000000   0.000000)
  11:        93.99    0.000000  (  0.000000   0.000000   0.000000)
  12:       110.35    0.000000  (  0.000000   0.000000   0.000000)
  13:       144.42    0.000000  (  0.000000   0.000000   0.000000)
  14:       159.59    0.000000  (  0.000000   0.000000   0.000000)
  15:       177.42    0.000000  (  0.000000   0.000000   0.000000)
  16:       193.12    0.000000  (  0.000000   0.000000   0.000000)
  17:       209.16    0.000000  (  0.000000   0.000000   0.000000)
  18:       227.62    0.000000  (  0.000000   0.000000   0.000000)
  19:       250.65    0.000000  (  0.000000   0.000000   0.000000)
  20:       330.34    0.000000  (  0.000000   0.000000   0.000000)
  21:       357.21    0.000000  (  0.000000   0.000000   0.000000)
  22:       390.77    0.000000  (  0.000000   0.000000   0.000000)
  23:       400.25    0.000000  (  0.000000   0.000000   0.000000)
  24:       421.22    0.000000  (  0.000000   0.000000   0.000000)
  25:       431.37    0.000000  (  0.000000   0.000000   0.000000)
  26:       456.00    0.000000  (  0.000000   0.000000   0.000000)
  27:       470.19    0.000000  (  0.000000   0.000000   0.000000)
  28:       477.26    0.000000  (  0.000000   0.000000   0.000000)
  29:       550.43    0.000000  (  0.000000   0.000000   0.000000)
  30:       587.78    0.000000  (  0.000000   0.000000   0.000000)
  31:       631.62    0.000000  (  0.000000   0.000000   0.000000)
  32:       670.37    0.000000  (  0.000000   0.000000   0.000000)
  33:       700.80    0.000000  (  0.000000   0.000000   0.000000)
  34:       776.30    0.000000  (  0.000000   0.000000   0.000000)
  35:       798.57    0.000000  (  0.000000   0.000000   0.000000)
  36:       817.31    0.000000  (  0.000000   0.000000   0.000000)
  37:       849.59    0.000000  (  0.000000   0.000000   0.000000)
  38:       898.50    0.000000  (  0.000000   0.000000   0.000000)
  39:       910.51    0.000000  (  0.000000   0.000000   0.000000)
  40:       933.40    0.000000  (  0.000000   0.000000   0.000000)
  41:       936.12    0.000000  (  0.000000   0.000000   0.000000)
  42:       939.12    0.000000  (  0.000000   0.000000   0.000000)
  43:       953.00    0.000000  (  0.000000   0.000000   0.000000)
  44:       956.94    0.000000  (  0.000000   0.000000   0.000000)
  45:       972.97    0.000000  (  0.000000   0.000000   0.000000)
  46:       988.74    0.000000  (  0.000000   0.000000   0.000000)
  47:       995.97    0.000000  (  0.000000   0.000000   0.000000)
  48:      1052.67    0.000000  (  0.000000   0.000000   0.000000)
  49:      1059.79    0.000000  (  0.000000   0.000000   0.000000)
  50:      1071.14    0.000000  (  0.000000   0.000000   0.000000)
  51:      1105.95    0.000000  (  0.000000   0.000000   0.000000)
  52:      1109.61    0.000000  (  0.000000   0.000000   0.000000)
  53:      1143.12    0.000000  (  0.000000   0.000000   0.000000)
  54:      1168.68    0.000000  (  0.000000   0.000000   0.000000)
  55:      1184.06    0.000000  (  0.000000   0.000000   0.000000)
  56:      1197.62    0.000000  (  0.000000   0.000000   0.000000)
  57:      1203.15    0.000000  (  0.000000   0.000000   0.000000)
  58:      1235.79    0.000000  (  0.000000   0.000000   0.000000)
  59:      1251.76    0.000000  (  0.000000   0.000000   0.000000)
  60:      1273.59    0.000000  (  0.000000   0.000000   0.000000)
  61:      1281.23    0.000000  (  0.000000   0.000000   0.000000)
  62:      1281.66    0.000000  (  0.000000   0.000000   0.000000)
  63:      1297.94    0.000000  (  0.000000   0.000000   0.000000)
  64:      1349.20    0.000000  (  0.000000   0.000000   0.000000)
  65:      1355.59    0.000000  (  0.000000   0.000000   0.000000)
  66:      1379.29    0.000000  (  0.000000   0.000000   0.000000)
  67:      1409.78    0.000000  (  0.000000   0.000000   0.000000)
  68:      1433.38    0.000000  (  0.000000   0.000000   0.000000)
  69:      1434.95    0.000000  (  0.000000   0.000000   0.000000)
  70:      1499.27    0.000000  (  0.000000   0.000000   0.000000)
  71:      1507.85    0.000000  (  0.000000   0.000000   0.000000)
  72:      1510.23    0.000000  (  0.000000   0.000000   0.000000)
  73:      1514.23    0.000000  (  0.000000   0.000000   0.000000)
  74:      1517.05    0.000000  (  0.000000   0.000000   0.000000)
  75:      1518.23    0.000000  (  0.000000   0.000000   0.000000)
  76:      1532.74    0.000000  (  0.000000   0.000000   0.000000)
  77:      1546.99    0.000000  (  0.000000   0.000000   0.000000)
  78:      1561.68    0.000000  (  0.000000   0.000000   0.000000)
  79:      1574.32    0.000000  (  0.000000   0.000000   0.000000)
  80:      2769.78    0.000000  (  0.000000   0.000000   0.000000)
  81:      2792.90    0.000000  (  0.000000   0.000000   0.000000)
  82:      2863.01    0.000000  (  0.000000   0.000000   0.000000)
  83:      2875.02    0.000000  (  0.000000   0.000000   0.000000)
  84:      2893.68    0.000000  (  0.000000   0.000000   0.000000)
  85:      2896.46    0.000000  (  0.000000   0.000000   0.000000)
  86:      2900.89    0.000000  (  0.000000   0.000000   0.000000)
  87:      2911.60    0.000000  (  0.000000   0.000000   0.000000)
  88:      2917.07    0.000000  (  0.000000   0.000000   0.000000)
  89:      2929.70    0.000000  (  0.000000   0.000000   0.000000)
  90:      2982.77    0.000000  (  0.000000   0.000000   0.000000)
  91:      2988.80    0.000000  (  0.000000   0.000000   0.000000)
  92:      2995.23    0.000000  (  0.000000   0.000000   0.000000)
  93:      3002.90    0.000000  (  0.000000   0.000000   0.000000)
  94:      3014.88    0.000000  (  0.000000   0.000000   0.000000)
  95:      3156.45    0.000000  (  0.000000   0.000000   0.000000)
  96:      3267.12    0.000000  (  0.000000   0.000000   0.000000)
  97:      3309.12    0.000000  (  0.000000   0.000000   0.000000)
  98:      3426.83    0.000000  (  0.000000   0.000000   0.000000)

The first frequency considered to be a vibration is 7
The total number of vibrations considered is 92


--------------------------
THERMOCHEMISTRY AT 298.15K
--------------------------

Temperature         ... 298.15 K
Pressure            ... 1.00 atm
Total Mass          ... 197.28 AMU

Throughout the following assumptions are being made:
  (1) The electronic state is orbitally nondegenerate
  (2) There are no thermally accessible electronically excited states
  (3) Hindered rotations indicated by low frequency modes are not
      treated as such but are treated as vibrations and this may
      cause some error
  (4) All equations used are the standard statistical mechanics
      equations for an ideal gas
  (5) All vibrations are strictly harmonic

freq.      57.06  E(vib)   ...       0.51 
freq.      59.55  E(vib)   ...       0.51 
freq.      73.72  E(vib)   ...       0.49 
freq.      80.80  E(vib)   ...       0.48 
freq.      93.99  E(vib)   ...       0.47 
freq.     110.35  E(vib)   ...       0.45 
freq.     144.42  E(vib)   ...       0.41 
freq.     159.59  E(vib)   ...       0.39 
freq.     177.42  E(vib)   ...       0.37 
freq.     193.12  E(vib)   ...       0.36 
freq.     209.16  E(vib)   ...       0.34 
freq.     227.62  E(vib)   ...       0.33 
freq.     250.65  E(vib)   ...       0.30 
freq.     330.34  E(vib)   ...       0.24 
freq.     357.21  E(vib)   ...       0.22 
freq.     390.77  E(vib)   ...       0.20 
freq.     400.25  E(vib)   ...       0.19 
freq.     421.22  E(vib)   ...       0.18 
freq.     431.37  E(vib)   ...       0.18 
freq.     456.00  E(vib)   ...       0.16 
freq.     470.19  E(vib)   ...       0.16 
freq.     477.26  E(vib)   ...       0.15 
freq.     550.43  E(vib)   ...       0.12 
freq.     587.78  E(vib)   ...       0.10 
freq.     631.62  E(vib)   ...       0.09 
freq.     670.37  E(vib)   ...       0.08 
freq.     700.80  E(vib)   ...       0.07 
freq.     776.30  E(vib)   ...       0.05 
freq.     798.57  E(vib)   ...       0.05 
freq.     817.31  E(vib)   ...       0.05 
freq.     849.59  E(vib)   ...       0.04 
freq.     898.50  E(vib)   ...       0.03 
freq.     910.51  E(vib)   ...       0.03 
freq.     933.40  E(vib)   ...       0.03 
freq.     936.12  E(vib)   ...       0.03 
freq.     939.12  E(vib)   ...       0.03 
freq.     953.00  E(vib)   ...       0.03 
freq.     956.94  E(vib)   ...       0.03 
freq.     972.97  E(vib)   ...       0.03 
freq.     988.74  E(vib)   ...       0.02 
freq.     995.97  E(vib)   ...       0.02 
freq.    1052.67  E(vib)   ...       0.02 
freq.    1059.79  E(vib)   ...       0.02 
freq.    1071.14  E(vib)   ...       0.02 
freq.    1105.95  E(vib)   ...       0.02 
freq.    1109.61  E(vib)   ...       0.02 
freq.    1143.12  E(vib)   ...       0.01 
freq.    1168.68  E(vib)   ...       0.01 
freq.    1184.06  E(vib)   ...       0.01 
freq.    1197.62  E(vib)   ...       0.01 
freq.    1203.15  E(vib)   ...       0.01 
freq.    1235.79  E(vib)   ...       0.01 
freq.    1251.76  E(vib)   ...       0.01 
freq.    1273.59  E(vib)   ...       0.01 
freq.    1281.23  E(vib)   ...       0.01 
freq.    1281.66  E(vib)   ...       0.01 
freq.    1297.94  E(vib)   ...       0.01 
freq.    1349.20  E(vib)   ...       0.01 
freq.    1355.59  E(vib)   ...       0.01 
freq.    1379.29  E(vib)   ...       0.01 
freq.    1409.78  E(vib)   ...       0.00 
freq.    1433.38  E(vib)   ...       0.00 
freq.    1434.95  E(vib)   ...       0.00 
freq.    1499.27  E(vib)   ...       0.00 
freq.    1507.85  E(vib)   ...       0.00 
freq.    1510.23  E(vib)   ...       0.00 
freq.    1514.23  E(vib)   ...       0.00 
freq.    1517.05  E(vib)   ...       0.00 
freq.    1518.23  E(vib)   ...       0.00 
freq.    1532.74  E(vib)   ...       0.00 
freq.    1546.99  E(vib)   ...       0.00 
freq.    1561.68  E(vib)   ...       0.00 
freq.    1574.32  E(vib)   ...       0.00 
freq.    2769.78  E(vib)   ...       0.00 
freq.    2792.90  E(vib)   ...       0.00 
freq.    2863.01  E(vib)   ...       0.00 
freq.    2875.02  E(vib)   ...       0.00 
freq.    2893.68  E(vib)   ...       0.00 
freq.    2896.46  E(vib)   ...       0.00 
freq.    2900.89  E(vib)   ...       0.00 
freq.    2911.60  E(vib)   ...       0.00 
freq.    2917.07  E(vib)   ...       0.00 
freq.    2929.70  E(vib)   ...       0.00 
freq.    2982.77  E(vib)   ...       0.00 
freq.    2988.80  E(vib)   ...       0.00 
freq.    2995.23  E(vib)   ...       0.00 
freq.    3002.90  E(vib)   ...       0.00 
freq.    3014.88  E(vib)   ...       0.00 
freq.    3156.45  E(vib)   ...       0.00 
freq.    3267.12  E(vib)   ...       0.00 
freq.    3309.12  E(vib)   ...       0.00 
freq.    3426.83  E(vib)   ...       0.00 

------------
INNER ENERGY
------------

The inner energy is: U= E(el) + E(ZPE) + E(vib) + E(rot) + E(trans)
    E(el)   - is the total energy from the electronic structure calculation
              = E(kin-el) + E(nuc-el) + E(el-el) + E(nuc-nuc)
    E(ZPE)  - the the zero temperature vibrational energy from the frequency calculation
    E(vib)  - the the finite temperature correction to E(ZPE) due to population
              of excited vibrational states
    E(rot)  - is the rotational thermal energy
    E(trans)- is the translational thermal energy

Summary of contributions to the inner energy U:
Electronic energy                ...    -44.26213315 Eh
Zero point energy                ...      0.27542325 Eh     172.83 kcal/mol
Thermal vibrational correction   ...      0.01322082 Eh       8.30 kcal/mol
Thermal rotational correction    ...      0.00141627 Eh       0.89 kcal/mol
Thermal translational correction ...      0.00141627 Eh       0.89 kcal/mol
-----------------------------------------------------------------------
Total thermal energy                    -43.97065654 Eh


Summary of corrections to the electronic energy:
(perhaps to be used in another calculation)
Total thermal correction                  0.01605336 Eh      10.07 kcal/mol
Non-thermal (ZPE) correction              0.27542325 Eh     172.83 kcal/mol
-----------------------------------------------------------------------
Total correction                          0.29147661 Eh     182.90 kcal/mol


--------
ENTHALPY
--------

The enthalpy is H = U + kB*T
                kB is Boltzmann's constant
Total free energy                 ...    -43.97065654 Eh 
Thermal Enthalpy correction       ...      0.00094421 Eh       0.59 kcal/mol
-----------------------------------------------------------------------
Total Enthalpy                    ...    -43.96971233 Eh


Note: Only C1 symmetry has been detected, increase convergence thresholds 
      if your molecule has a higher symmetry. Symmetry factor of 1.0 is   
      used for the rotational entropy correction. 
 

Note: Rotational entropy computed according to Herzberg 
Infrared and Raman Spectra, Chapter V,1, Van Nostrand Reinhold, 1945 
Point Group:  C1, Symmetry Number:   1  
Rotational constants in cm-1:     0.032192     0.009467     0.008153 

Vibrational entropy computed according to the QRRHO of S. Grimme
Chem.Eur.J. 2012 18 9955


-------
ENTROPY
-------

The entropy contributions are T*S = T*(S(el)+S(vib)+S(rot)+S(trans))
     S(el)   - electronic entropy
     S(vib)  - vibrational entropy
     S(rot)  - rotational entropy
     S(trans)- translational entropy
The entropies will be listed as mutliplied by the temperature to get
units of energy

Electronic entropy                ...      0.00000000 Eh      0.00 kcal/mol
Vibrational entropy               ...      0.02316334 Eh     14.54 kcal/mol
Rotational entropy                ...      0.01560328 Eh      9.79 kcal/mol
Translational entropy             ...      0.01983352 Eh     12.45 kcal/mol
-----------------------------------------------------------------------
Final entropy term                ...      0.05860013 Eh     36.77 kcal/mol

In case the symmetry of your molecule has not been determined correctly
or in case you have a reason to use a different symmetry number we print 
out the resulting rotational entropy values for sn=1,12 :
 --------------------------------------------------------
|  sn= 1 | S(rot)=       0.01560328 Eh      9.79 kcal/mol|
|  sn= 2 | S(rot)=       0.01494882 Eh      9.38 kcal/mol|
|  sn= 3 | S(rot)=       0.01456599 Eh      9.14 kcal/mol|
|  sn= 4 | S(rot)=       0.01429436 Eh      8.97 kcal/mol|
|  sn= 5 | S(rot)=       0.01408368 Eh      8.84 kcal/mol|
|  sn= 6 | S(rot)=       0.01391153 Eh      8.73 kcal/mol|
|  sn= 7 | S(rot)=       0.01376599 Eh      8.64 kcal/mol|
|  sn= 8 | S(rot)=       0.01363991 Eh      8.56 kcal/mol|
|  sn= 9 | S(rot)=       0.01352870 Eh      8.49 kcal/mol|
|  sn=10 | S(rot)=       0.01342922 Eh      8.43 kcal/mol|
|  sn=11 | S(rot)=       0.01333923 Eh      8.37 kcal/mol|
|  sn=12 | S(rot)=       0.01325708 Eh      8.32 kcal/mol|
 --------------------------------------------------------


-------------------
GIBBS FREE ENERGY
-------------------

The Gibbs free energy is G = H - T*S

Total enthalpy                    ...    -43.96971233 Eh 
Total entropy correction          ...     -0.05860013 Eh    -36.77 kcal/mol
-----------------------------------------------------------------------
Final Gibbs free energy         ...    -44.02831246 Eh

For completeness - the Gibbs free energy minus the electronic energy
G-E(el)                           ...      0.23382069 Eh    146.72 kcal/mol


Total Time for Numerical Frequencies  :        97.412 sec
Time for Reference State(s)           :         0.216 sec
Time for Displacements                :        88.326 sec

Timings for individual modules:

Sum of individual times         ...        0.445 sec (=   0.007 min)
XTB module                      ...        0.445 sec (=   0.007 min) 100.0 %
                             ****ORCA TERMINATED NORMALLY****
TOTAL RUN TIME: 0 days 0 hours 1 minutes 38 seconds 666 msec
(SLURM) EXECUTION TIME: 99.379666153 seconds.
