(SLURM) JOB ID:         335

                                 *****************
                                 * O   R   C   A *
                                 *****************

           --- An Ab Initio, DFT and Semiempirical electronic structure package ---

                  #######################################################
                  #                        -***-                        #
                  #          Department of theory and spectroscopy      #
                  #               Directorship: Frank Neese             #
                  #        Max Planck Institute fuer Kohlenforschung    #
                  #                Kaiser Wilhelm Platz 1               #
                  #                 D-45470 Muelheim/Ruhr               #
                  #                      Germany                        #
                  #                                                     #
                  #                  All rights reserved                #
                  #                        -***-                        #
                  #######################################################


                         Program Version 4.2.1 -  RELEASE  -


 With contributions from (in alphabetic order):
   Daniel Aravena         : Magnetic Suceptibility
   Michael Atanasov       : Ab Initio Ligand Field Theory (pilot matlab implementation)
   Alexander A. Auer      : GIAO ZORA, VPT2
   Ute Becker             : Parallelization
   Giovanni Bistoni       : ED, misc. LED, open-shell LED, HFLD
   Martin Brehm           : Molecular dynamics
   Dmytro Bykov           : SCF Hessian
   Vijay G. Chilkuri      : MRCI spin determinant printing, contributions to CSF-ICE
   Dipayan Datta          : RHF DLPNO-CCSD density
   Achintya Kumar Dutta   : EOM-CC, STEOM-CC
   Dmitry Ganyushin       : Spin-Orbit,Spin-Spin,Magnetic field MRCI
   Miquel Garcia          : C-PCM Hessian, Gaussian charge scheme
   Yang Guo               : DLPNO-NEVPT2, CIM, IAO-localization
   Andreas Hansen         : Spin unrestricted coupled pair/coupled cluster methods
   Benjamin Helmich-Paris : CASSCF linear response (MC-RPA)
   Lee Huntington         : MR-EOM, pCC
   Robert Izsak           : Overlap fitted RIJCOSX, COSX-SCS-MP3, EOM
   Christian Kollmar      : KDIIS, OOCD, Brueckner-CCSD(T), CCSD density
   Simone Kossmann        : Meta GGA functionals, TD-DFT gradient, OOMP2, MP2 Hessian
   Martin Krupicka        : AUTO-CI
   Lucas Lang             : DCDCAS
   Dagmar Lenk            : GEPOL surface, SMD
   Dimitrios Liakos       : Extrapolation schemes; Compound Job, initial MDCI parallelization
   Dimitrios Manganas     : Further ROCIS development; embedding schemes
   Dimitrios Pantazis     : SARC Basis sets
   Taras Petrenko         : DFT Hessian,TD-DFT gradient, ASA, ECA, R-Raman, ABS, FL, XAS/XES, NRVS
   Peter Pinski           : DLPNO-MP2, DLPNO-MP2 Gradient
   Christoph Reimann      : Effective Core Potentials
   Marius Retegan         : Local ZFS, SOC
   Christoph Riplinger    : Optimizer, TS searches, QM/MM, DLPNO-CCSD(T), (RO)-DLPNO pert. Triples
   Tobias Risthaus        : Range-separated hybrids, TD-DFT gradient, RPA, STAB
   Michael Roemelt        : Original ROCIS implementation
   Masaaki Saitow         : Open-shell DLPNO-CCSD energy and density
   Barbara Sandhoefer     : DKH picture change effects
   Avijit Sen             : IP-ROCIS
   Kantharuban Sivalingam : CASSCF convergence, NEVPT2, FIC-MRCI
   Bernardo de Souza      : ESD, SOC TD-DFT
   Georgi Stoychev        : AutoAux, RI-MP2 NMR
   Willem Van den Heuvel  : Paramagnetic NMR
   Boris Wezisla          : Elementary symmetry handling
   Frank Wennmohs         : Technical directorship


 We gratefully acknowledge several colleagues who have allowed us to
 interface, adapt or use parts of their codes:
   Stefan Grimme, W. Hujo, H. Kruse,             : VdW corrections, initial TS optimization,
                  C. Bannwarth                     DFT functionals, gCP, sTDA/sTD-DF
   Ed Valeev, F. Pavosevic, A. Kumar             : LibInt (2-el integral package), F12 methods
   Garnet Chan, S. Sharma, J. Yang, R. Olivares  : DMRG
   Ulf Ekstrom                                   : XCFun DFT Library
   Mihaly Kallay                                 : mrcc  (arbitrary order and MRCC methods)
   Andreas Klamt, Michael Diedenhofen            : otool_cosmo (COSMO solvation model)
   Jiri Pittner, Ondrej Demel                    : Mk-CCSD
   Frank Weinhold                                : gennbo (NPA and NBO analysis)
   Christopher J. Cramer and Donald G. Truhlar   : smd solvation model
   Lars Goerigk                                  : TD-DFT with DH, B97 family of functionals
   V. Asgeirsson, H. Jonsson                     : NEB implementation
   FAccTs GmbH                                   : IRC, NEB, NEB-TS, Multilevel, MM, QM/MM, CI optimization
   S Lehtola, MJT Oliveira, MAL Marques          : LibXC Library


 Your calculation uses the libint2 library for the computation of 2-el integrals
 For citations please refer to: http://libint.valeyev.net

 Your ORCA version has been built with support for libXC version: 4.2.3
 For citations please refer to: https://tddft.org/programs/libxc/

 This ORCA versions uses:
   CBLAS   interface :  Fast vector & matrix operations
   LAPACKE interface :  Fast linear algebra routines
   SCALAPACK package :  Parallel linear algebra routines




***************************************
The coordinates will be read from file: init.xyz
***************************************


Your calculation utilizes the SMD solvation module
Please cite in your paper:
A.V. Marenich, C.J. Cramer, D.G. Truhlar J. Phys. Chem. B, 113, (2009), 6378 

Your calculation utilizes the semiempirical GFN2-xTB method
Please cite in your paper:
C. Bannwarth, Ehlert S., S. Grimme,  J. Chem. Theory Comput., 15, (2019), 1652.
   

----- Orbital basis set information -----
Your calculation utilizes the basis: def2-SVP
   F. Weigend and R. Ahlrichs, Phys. Chem. Chem. Phys. 7, 3297 (2005).

================================================================================
                                        WARNINGS
                       Please study these warnings very carefully!
================================================================================

WARNING: Gradients needed for Numerical Frequencies
  ===> : Setting RunTyp to EnGrad

WARNING: The environment variable RSH_COMMAND is not set!
  ===> : All Displacements for the Numerical Hessian calculation
         will be started on localhost

WARNING: Found dipole moment calculation with XTB calculation
  ===> : Switching off dipole moment calculation


INFO   : the flag for use of LIBINT has been found!

================================================================================
                                       INPUT FILE
================================================================================
NAME = /tmp/slurm-scratch/freq.335/freq.inp
|  1> ! XTB2 NumFreq
|  2> %maxcore 1450
|  3> 
|  4> * xyzfile 0 1 init.xyz
|  5> 
|  6> %cpcm
|  7>  smd true
|  8>  smdsolvent "ch2cl2"
|  9> end
| 10> %pal nprocs 8 end
| 11> 
| 12>                          ****END OF INPUT****
================================================================================

                     *******************************
                     * Energy+Gradient Calculation *
                     *******************************

      -----------------------------------------------------------      
     |                   =====================                   |     
     |                           x T B                           |     
     |                   =====================                   |     
     |                         S. Grimme                         |     
     |          Mulliken Center for Theoretical Chemistry        |     
     |                    University of Bonn                     |     
      -----------------------------------------------------------      

   * xtb version 6.3.0 (preview) compiled by 'ehlert@majestix' on 2020-01-15

   This program is distributed in the hope that it will be useful,
   but WITHOUT ANY WARRANTY; without even the implied warranty of
   MERCHANTABILITY or FITNESS FOR A PARTICULAR PURPOSE.
   
   FOR NON-COMMERCIAL, ACADEMIA USE ONLY.
   
   Cite this work as:
   * S. Grimme, C. Bannwarth, P. Shushkov, J. Chem. Theory Comput., 2017,
     13, 1989-2009. DOI: 10.1021/acs.jctc.7b00118
   * C. Bannwarth, S. Ehlert and S. Grimme., J. Chem. Theory Comput., 2019,
     15, 1652-1671. DOI: 10.1021/acs.jctc.8b01176
   * P. Pracht, E. Caldeweyher, S. Ehlert, S. Grimme, ChemRxiv, 2019, preprint.
     DOI: 10.26434/chemrxiv.8326202.v1
   * S. Grimme, S. Spicher unpublished
   
   for DFT-D4:
   * E. Caldeweyher, C. Bannwarth and S. Grimme, J. Chem. Phys., 2017,
     147, 034112. DOI: 10.1063/1.4993215
   * E. Caldeweyher, S. Ehlert, A. Hansen, H. Neugebauer, S. Spicher,
     C. Bannwarth and S. Grimme, J. Chem. Phys., 2019, 150, 154122.
     DOI: 10.1063/1.5090222
   
   for sTDA-xTB:
   * S. Grimme and C. Bannwarth, J. Chem. Phys., 2016, 145, 054103.
     DOI: 10.1063/1.4959605
   
   in the mass-spec context:
   * V. Asgeirsson, C. Bauer and S. Grimme, Chem. Sci., 2017, 8, 4879.
     DOI: 10.1039/c7sc00601b
   
   for metadynamics refer to:
   * S. Grimme, J. Chem. Theory Comput., 2019, 155, 2847-2862
     DOI: 10.1021/acs.jctc.9b00143
   
   with help from (in alphabetical order)
   C. Bannwarth, F. Bohle, G. Brandenburg, E. Caldeweyher, M. Checinski,
   S. Dohm, S. Ehlert, S. Ehrlich, F. März, H. Neugebauer, J. Pisarek,
   P. Pracht, P. Shushkov, and S. Spicher.
   
 * started run on 2020/12/07 at 08:55:52.639     

           -------------------------------------------------
          |                Calculation Setup                |
           -------------------------------------------------

          program call               : /opt/orca/otool_xtb /tmp/slurm-scratch/freq.335/freq_XTB.xyz --grad -c 0 -u 0 -P 8 --namespace /tmp/slurm-scratch/freq.335/freq --gbsa CH2Cl2
          hostname                   : headnode-pbs
          calculation namespace      : /tmp/slurm-scratch/freq.335/freq
          coordinate file            : /tmp/slurm-scratch/freq.335/freq_XTB.xyz
          omp threads                :                     8
          number of atoms            :                    49
          number of electrons        :                   112
          charge                     :                     0
          spin                       :                   0.0
          first test random number   :      0.41961368763222


molecular fragmentation (1/2 indicates fragments):
1111111111111111112122222211111111122222222222222
# atoms in fragment 1/2:    28    21
 fragment masses (1/2) :      162.25      108.16
CMA distance (Bohr)    :   6.404
constraining FC (au)   :  0.0500

########################################################################
# WARNING! Please study the warnings concerning your input carefully
#  - Process number higher than OMP_NUM_THREADS, I hope you know what you are doing.
########################################################################

           ------------------------------------------------- 
          |                 G F N 2 - x T B                 |
          | Geometry, Frequencies, Noncovalent interactions |
          |            JCTC 2019 parametrisation            |
           ------------------------------------------------- 
             k(s)              :                1.8500
             k(p)              :                2.2300
             k(d)              :                2.2300
             k(f)              :                2.0000
             kEN (H0ij)        :               -2.0000
             D4 a1             :                0.5200
             D4 a2             :                5.0000
             D4 s6             :                1.0000
             D4 s8             :                2.7000
             D4 s9             :                5.0000
             alphaj            :                2.0000

  Z AO/shell   Hii/eV     exponent
  1     Wed Apr 25 08:07:45 CEST 2018   EN: 2.200 GM2: 0.406  GM3: 0.0800  RAES: 1.40
     1s    -10.707211    1.230000
  6     Wed Apr 25 08:07:45 CEST 2018   EN: 2.550 GM2: 0.538  GM3: 0.1500  RAES: 3.00
     2s    -13.970922    2.096432
     2p    -10.063292    1.800000
  7     Wed Apr 25 08:07:45 CEST 2018   EN: 3.040 GM2: 0.461  GM3:-0.0640  RAES: 1.90
     2s    -16.686243    2.339881
     2p    -12.523956    2.014332
  8     Wed Apr 25 08:07:45 CEST 2018   EN: 3.440 GM2: 0.452  GM3:-0.0517  RAES: 1.80
     2s    -20.229985    2.439742
     2p    -15.503117    2.137023

 Solvent             : CH2Cl2
 Using internal parameter file: .param_gbsa2_CH2Cl2
 Gsolv ref. state (COSMO-RS): gsolv [1 M gas/solution]
 temperature (mdtemp)       :    298.150000000000     
 dielectric constant        :    8.93000000000000     
 rho                        :    1.33000000000000     
 mass                       :    84.9300000000000     
 surface tension            :    15.5689454083859     
 probe radius               :   0.719875900000000     
 Gshift (Eh)                :   4.440829173451759E-003
 c1                         :    1.49173776000000     
 soset                      :   0.000000000000000E+000
 HB correction              :  F
           ------------------------------------------------- 
          |        Self-Consistent Charge Iterations        |
           ------------------------------------------------- 

          ...................................................
          :                      SETUP                      :
          :.................................................:
          :  # basis functions                 106          :
          :  # atomic orbitals                 106          :
          :  # shells                           68          :
          :  # electrons                       112          :
          :  max. iterations                   250          :
          :  Hamiltonian                  GFN2-xTB          :
          :  GBSA solvation                   true          :
          :  PC potential                    false          :
          :  electronic temp.          300.0000000     K    :
          :  accuracy                    1.0000000          :
          :  -> integral cutoff          0.2500000E+02      :
          :  -> integral neglect         0.1000000E-07      :
          :  -> SCF convergence          0.1000000E-05 Eh   :
          :  -> wf. convergence          0.1000000E-03 e    :
          :  Broyden damping             0.4000000          :
          ...................................................
  Checking positiv definite overlap ...  done.
 

 iter      E             dE          RMSdq      gap      omega  full diag
   1    -62.0477296 -0.620477E+02  0.367E+00    2.80       0.0  T
   2    -62.1650563 -0.117327E+00  0.212E+00    2.41       1.0  T
   3    -62.1673568 -0.230056E-02  0.900E-01    1.44       1.0  T
   4    -62.1717216 -0.436482E-02  0.408E-01    1.63       1.0  T
   5    -62.1761919 -0.447029E-02  0.825E-02    1.60       1.0  T
   6    -62.1762491 -0.572018E-04  0.370E-02    1.64       1.0  T
   7    -62.1762557 -0.652795E-05  0.173E-02    1.65       1.0  T
   8    -62.1762601 -0.446516E-05  0.594E-03    1.65       2.4  T
   9    -62.1762605 -0.343645E-06  0.205E-03    1.65       7.0  T
  10    -62.1762605 -0.491547E-07  0.108E-03    1.65      13.3  T
  11    -62.1762605 -0.728412E-08  0.471E-04    1.65      30.3  T
  12    -62.1762605 -0.248055E-08  0.118E-04    1.65     120.8  T

   *** convergence criteria satisfied after 12 iterations ***

         #    Occupation            Energy/Eh            Energy/eV
      -------------------------------------------------------------
         1        2.0000           -0.6909091             -18.8006
       ...           ...                  ...                  ...
        50        2.0000           -0.4256753             -11.5832
        51        2.0000           -0.4237897             -11.5319
        52        2.0000           -0.4209937             -11.4558
        53        2.0000           -0.3983422             -10.8394
        54        2.0000           -0.3864580             -10.5161
        55        2.0000           -0.3696770             -10.0594
        56        2.0000           -0.3630667              -9.8795 (HOMO)
        57                         -0.3023005              -8.2260 (LUMO)
        58                         -0.2424332              -6.5969
        59                         -0.2123485              -5.7783
        60                         -0.1048922              -2.8543
        61                         -0.0273190              -0.7434
       ...                                ...                  ...
       106                          0.6408312              17.4379
      -------------------------------------------------------------
                  HL-Gap            0.0607662 Eh            1.6535 eV
             Fermi-level           -0.3326836 Eh           -9.0528 eV

 SCC (total)                   0 d,  0 h,  0 min,  0.131 sec
 SCC setup                      ...        0 min,  0.007 sec (  5.507%)
 Dispersion                     ...        0 min,  0.001 sec (  0.869%)
 integral evaluation            ...        0 min,  0.012 sec (  9.242%)
 zeroth order Hamiltonian       ...        0 min,  0.000 sec (  0.015%)
 iterations                     ...        0 min,  0.082 sec ( 62.759%)
 molecular gradient             ...        0 min,  0.027 sec ( 20.733%)
 printout                       ...        0 min,  0.001 sec (  0.830%)

         :::::::::::::::::::::::::::::::::::::::::::::::::::::
         ::                     SUMMARY                     ::
         :::::::::::::::::::::::::::::::::::::::::::::::::::::
         :: total energy             -61.351577811273 Eh    ::
         :: total w/o Gsasa/hb       -61.327672859011 Eh    ::
         :: gradient norm              0.034463222239 Eh/a0 ::
         :: HOMO-LUMO gap              1.653531593379 eV    ::
         ::.................................................::
         :: SCC energy               -62.200165484357 Eh    ::
         :: -> isotropic ES            0.179791523239 Eh    ::
         :: -> anisotropic ES         -0.023990672138 Eh    ::
         :: -> anisotropic XC          0.036566449410 Eh    ::
         :: -> dispersion             -0.040435072829 Eh    ::
         :: -> Gsolv                  -0.053647867575 Eh    ::
         ::    -> Gborn               -0.029742915314 Eh    ::
         ::    -> Gsasa               -0.028345781435 Eh    ::
         ::    -> Ghb                  0.000000000000 Eh    ::
         ::    -> Gshift               0.004440829173 Eh    ::
         :: repulsion energy           0.847905641176 Eh    ::
         :: add. restraining           0.000000000000 Eh    ::
         :::::::::::::::::::::::::::::::::::::::::::::::::::::

           -------------------------------------------------
          |                Property Printout                |
           -------------------------------------------------

    * Orbital Energies and Occupations

         #    Occupation            Energy/Eh            Energy/eV
      -------------------------------------------------------------
         1        2.0000           -0.6909091             -18.8006
       ...           ...                  ...                  ...
        44        2.0000           -0.4439033             -12.0792
        45        2.0000           -0.4402637             -11.9802
        46        2.0000           -0.4389759             -11.9451
        47        2.0000           -0.4375662             -11.9068
        48        2.0000           -0.4372542             -11.8983
        49        2.0000           -0.4262668             -11.5993
        50        2.0000           -0.4256753             -11.5832
        51        2.0000           -0.4237897             -11.5319
        52        2.0000           -0.4209937             -11.4558
        53        2.0000           -0.3983422             -10.8394
        54        2.0000           -0.3864580             -10.5161
        55        2.0000           -0.3696770             -10.0594
        56        2.0000           -0.3630667              -9.8795 (HOMO)
        57                         -0.3023005              -8.2260 (LUMO)
        58                         -0.2424332              -6.5969
        59                         -0.2123485              -5.7783
        60                         -0.1048922              -2.8543
        61                         -0.0273190              -0.7434
        62                          0.0091054               0.2478
        63                          0.0634598               1.7268
        64                          0.0715823               1.9479
        65                          0.0858976               2.3374
        66                          0.0909642               2.4753
        67                          0.0966163               2.6291
       ...                                ...                  ...
       106                          0.6408312              17.4379
      -------------------------------------------------------------
                  HL-Gap            0.0607662 Eh            1.6535 eV
             Fermi-level           -0.3326836 Eh           -9.0528 eV

     #   Z        covCN         q      C6AA      α(0)
     1   6 C      2.970     0.013    27.724     8.637
     2   6 C      2.918    -0.030    28.755     8.793
     3   6 C      2.914    -0.023    28.586     8.767
     4   6 C      2.916    -0.017    28.436     8.744
     5   6 C      2.914    -0.023    28.591     8.768
     6   6 C      2.924    -0.020    28.511     8.756
     7   6 C      2.841     0.086    26.074     8.368
     8   1 H      0.926     0.057     2.235     2.338
     9   1 H      0.925     0.059     2.210     2.325
    10   1 H      0.925     0.059     2.205     2.322
    11   7 N      2.680    -0.048    22.182     6.995
    12   6 C      3.747    -0.022    21.037     6.542
    13   1 H      0.857     0.247     0.895     1.482
    14   6 C      3.803    -0.071    21.862     6.657
    15   1 H      0.925     0.072     2.068     2.249
    16   1 H      0.924     0.092     1.860     2.133
    17   1 H      0.924     0.057     2.238     2.340
    18   1 H      0.924     0.057     2.234     2.338
    19   8 O      1.423    -0.731    28.805     7.230
    20   1 H      0.926     0.106     1.733     2.059
    21   1 H      0.805     0.232     0.967     1.544
    22   8 O      1.241    -0.831    32.155     7.619
    23   1 H      1.054     0.310     0.677     1.285
    24   1 H      0.805     0.190     1.170     1.699
    25   1 H      0.858     0.196     1.129     1.664
    26   1 H      0.860     0.138     1.489     1.912
    27   6 C      3.800    -0.055    21.554     6.610
    28   1 H      0.924     0.034     2.526     2.485
    29   1 H      0.924     0.040     2.451     2.448
    30   1 H      0.925     0.058     2.227     2.334
    31   1 H      0.925     0.058     2.221     2.330
    32   6 C      3.750    -0.106    22.590     6.778
    33   1 H      0.924     0.040     2.455     2.450
    34   1 H      0.924     0.042     2.425     2.435
    35   1 H      0.924     0.040     2.453     2.449
    36   6 C      3.731     0.020    20.333     6.436
    37   1 H      0.924     0.033     2.542     2.493
    38   1 H      0.923     0.006     2.963     2.692
    39   6 C      3.802    -0.067    21.784     6.645
    40   1 H      0.924     0.042     2.423     2.434
    41   1 H      0.924     0.035     2.517     2.481
    42   6 C      3.800    -0.054    21.538     6.608
    43   1 H      0.924     0.029     2.598     2.521
    44   1 H      0.924     0.033     2.547     2.496
    45   6 C      3.750    -0.104    22.546     6.772
    46   1 H      0.924     0.039     2.456     2.451
    47   1 H      0.924     0.036     2.506     2.476
    48   1 H      0.924     0.037     2.486     2.466
    49   7 N      2.627    -0.387    30.023     8.138

 Mol. C6AA /au·bohr⁶  :      19089.686394
 Mol. C8AA /au·bohr⁸  :     416032.419386
 Mol. α(0) /au        :        210.995911


Wiberg/Mayer (AO) data.
largest (>0.10) Wiberg bond orders for each atom
          total WBO             WBO to atom ...
     1  C   3.985        C    6 1.359    C    2 1.358    C    7 1.108
     2  C   3.989        C    3 1.464    C    1 1.358    H    8 0.961    C    5 0.104
     3  C   3.990        C    2 1.464    C    4 1.424    H   31 0.969    C    6 0.103
     4  C   3.985        C    5 1.428    C    3 1.424    H   10 0.969
     5  C   3.990        C    6 1.461    C    4 1.428    H   30 0.969    C    2 0.104
     6  C   3.984        C    5 1.461    C    1 1.359    H    9 0.966    C    3 0.103
     7  C   3.928        N   11 1.612    C    1 1.108    H   20 0.945    O   19 0.132
     8  H   0.997        C    2 0.961
     9  H   0.996        C    6 0.966
    10  H   0.996        C    4 0.969
    11  N   3.645        C    7 1.612    C   12 0.981    H   13 0.817
    12  C   3.948        C   14 0.995    N   11 0.981    H   15 0.969    H   16 0.942
    13  H   0.939        N   11 0.817
    14  C   3.987        C   27 1.005    C   12 0.995    H   18 0.975    H   17 0.969
    15  H   0.995        C   12 0.969
    16  H   0.988        C   12 0.942
    17  H   0.997        C   14 0.969
    18  H   0.997        C   14 0.975
    19  O   1.794        H   21 0.942    H   23 0.492    C    7 0.132    O   22 0.117
    20  H   0.988        C    7 0.945
    21  H   0.946        O   19 0.942
    22  O   1.575        H   24 0.958    H   23 0.410    O   19 0.117
    23  H   0.904        O   19 0.492    O   22 0.410
    24  H   0.964        O   22 0.958
    25  H   0.961        N   49 0.897
    26  H   0.981        N   49 0.966
    27  C   3.995        C   32 1.019    C   14 1.005    H   28 0.977    H   29 0.977
    28  H   0.999        C   27 0.977
    29  H   0.998        C   27 0.977
    30  H   0.996        C    5 0.969
    31  H   0.996        C    3 0.969
    32  C   3.995        C   27 1.019    H   35 0.987    H   34 0.987    H   33 0.987
    33  H   0.998        C   32 0.987
    34  H   0.998        C   32 0.987
    35  H   0.998        C   32 0.987
    36  C   3.983        N   49 1.014    C   39 1.005    H   37 0.973    H   38 0.972
    37  H   0.999        C   36 0.973
    38  H   0.999        C   36 0.972
    39  C   3.996        C   42 1.007    C   36 1.005    H   41 0.976    H   40 0.974
    40  H   0.998        C   39 0.974
    41  H   0.999        C   39 0.976
    42  C   3.997        C   45 1.020    C   39 1.007    H   43 0.978    H   44 0.978
    43  H   0.999        C   42 0.978
    44  H   0.999        C   42 0.978
    45  C   3.996        C   42 1.020    H   47 0.988    H   46 0.987    H   48 0.987
    46  H   0.998        C   45 0.987
    47  H   0.999        C   45 0.988
    48  H   0.998        C   45 0.987
    49  N   3.083        C   36 1.014    H   26 0.966    H   25 0.897

molecular dipole:
                 x           y           z       tot (Debye)
 q only:       -0.578      -2.568       2.827
   full:       -0.373      -1.688       2.641       8.022
molecular quadrupole (traceless):
                xx          xy          yy          xz          yz          zz
 q only:       37.244      38.920     -22.284     -28.188      33.617     -14.960
  q+dip:       27.415      22.095     -12.248     -27.356      31.556     -15.166
   full:       27.002      23.802     -10.792     -27.253      29.350     -16.210

           -------------------------------------------------
          |                Property Printout                |
           -------------------------------------------------

    * Orbital Energies and Occupations

         #    Occupation            Energy/Eh            Energy/eV
      -------------------------------------------------------------
         1        2.0000           -0.6909091             -18.8006
       ...           ...                  ...                  ...
        44        2.0000           -0.4439033             -12.0792
        45        2.0000           -0.4402637             -11.9802
        46        2.0000           -0.4389759             -11.9451
        47        2.0000           -0.4375662             -11.9068
        48        2.0000           -0.4372542             -11.8983
        49        2.0000           -0.4262668             -11.5993
        50        2.0000           -0.4256753             -11.5832
        51        2.0000           -0.4237897             -11.5319
        52        2.0000           -0.4209937             -11.4558
        53        2.0000           -0.3983422             -10.8394
        54        2.0000           -0.3864580             -10.5161
        55        2.0000           -0.3696770             -10.0594
        56        2.0000           -0.3630667              -9.8795 (HOMO)
        57                         -0.3023005              -8.2260 (LUMO)
        58                         -0.2424332              -6.5969
        59                         -0.2123485              -5.7783
        60                         -0.1048922              -2.8543
        61                         -0.0273190              -0.7434
        62                          0.0091054               0.2478
        63                          0.0634598               1.7268
        64                          0.0715823               1.9479
        65                          0.0858976               2.3374
        66                          0.0909642               2.4753
        67                          0.0966163               2.6291
       ...                                ...                  ...
       106                          0.6408312              17.4379
      -------------------------------------------------------------
                  HL-Gap            0.0607662 Eh            1.6535 eV
             Fermi-level           -0.3326836 Eh           -9.0528 eV

     #   Z        covCN         q      C6AA      α(0)
     1   6 C      2.970     0.013    27.724     8.637
     2   6 C      2.918    -0.030    28.755     8.793
     3   6 C      2.914    -0.023    28.586     8.767
     4   6 C      2.916    -0.017    28.436     8.744
     5   6 C      2.914    -0.023    28.591     8.768
     6   6 C      2.924    -0.020    28.511     8.756
     7   6 C      2.841     0.086    26.074     8.368
     8   1 H      0.926     0.057     2.235     2.338
     9   1 H      0.925     0.059     2.210     2.325
    10   1 H      0.925     0.059     2.205     2.322
    11   7 N      2.680    -0.048    22.182     6.995
    12   6 C      3.747    -0.022    21.037     6.542
    13   1 H      0.857     0.247     0.895     1.482
    14   6 C      3.803    -0.071    21.862     6.657
    15   1 H      0.925     0.072     2.068     2.249
    16   1 H      0.924     0.092     1.860     2.133
    17   1 H      0.924     0.057     2.238     2.340
    18   1 H      0.924     0.057     2.234     2.338
    19   8 O      1.423    -0.731    28.805     7.230
    20   1 H      0.926     0.106     1.733     2.059
    21   1 H      0.805     0.232     0.967     1.544
    22   8 O      1.241    -0.831    32.155     7.619
    23   1 H      1.054     0.310     0.677     1.285
    24   1 H      0.805     0.190     1.170     1.699
    25   1 H      0.858     0.196     1.129     1.664
    26   1 H      0.860     0.138     1.489     1.912
    27   6 C      3.800    -0.055    21.554     6.610
    28   1 H      0.924     0.034     2.526     2.485
    29   1 H      0.924     0.040     2.451     2.448
    30   1 H      0.925     0.058     2.227     2.334
    31   1 H      0.925     0.058     2.221     2.330
    32   6 C      3.750    -0.106    22.590     6.778
    33   1 H      0.924     0.040     2.455     2.450
    34   1 H      0.924     0.042     2.425     2.435
    35   1 H      0.924     0.040     2.453     2.449
    36   6 C      3.731     0.020    20.333     6.436
    37   1 H      0.924     0.033     2.542     2.493
    38   1 H      0.923     0.006     2.963     2.692
    39   6 C      3.802    -0.067    21.784     6.645
    40   1 H      0.924     0.042     2.423     2.434
    41   1 H      0.924     0.035     2.517     2.481
    42   6 C      3.800    -0.054    21.538     6.608
    43   1 H      0.924     0.029     2.598     2.521
    44   1 H      0.924     0.033     2.547     2.496
    45   6 C      3.750    -0.104    22.546     6.772
    46   1 H      0.924     0.039     2.456     2.451
    47   1 H      0.924     0.036     2.506     2.476
    48   1 H      0.924     0.037     2.486     2.466
    49   7 N      2.627    -0.387    30.023     8.138

 Mol. C6AA /au·bohr⁶  :      19089.686394
 Mol. C8AA /au·bohr⁸  :     416032.419386
 Mol. α(0) /au        :        210.995911


Wiberg/Mayer (AO) data.
largest (>0.10) Wiberg bond orders for each atom
          total WBO             WBO to atom ...
     1  C   3.985        C    6 1.359    C    2 1.358    C    7 1.108
     2  C   3.989        C    3 1.464    C    1 1.358    H    8 0.961    C    5 0.104
     3  C   3.990        C    2 1.464    C    4 1.424    H   31 0.969    C    6 0.103
     4  C   3.985        C    5 1.428    C    3 1.424    H   10 0.969
     5  C   3.990        C    6 1.461    C    4 1.428    H   30 0.969    C    2 0.104
     6  C   3.984        C    5 1.461    C    1 1.359    H    9 0.966    C    3 0.103
     7  C   3.928        N   11 1.612    C    1 1.108    H   20 0.945    O   19 0.132
     8  H   0.997        C    2 0.961
     9  H   0.996        C    6 0.966
    10  H   0.996        C    4 0.969
    11  N   3.645        C    7 1.612    C   12 0.981    H   13 0.817
    12  C   3.948        C   14 0.995    N   11 0.981    H   15 0.969    H   16 0.942
    13  H   0.939        N   11 0.817
    14  C   3.987        C   27 1.005    C   12 0.995    H   18 0.975    H   17 0.969
    15  H   0.995        C   12 0.969
    16  H   0.988        C   12 0.942
    17  H   0.997        C   14 0.969
    18  H   0.997        C   14 0.975
    19  O   1.794        H   21 0.942    H   23 0.492    C    7 0.132    O   22 0.117
    20  H   0.988        C    7 0.945
    21  H   0.946        O   19 0.942
    22  O   1.575        H   24 0.958    H   23 0.410    O   19 0.117
    23  H   0.904        O   19 0.492    O   22 0.410
    24  H   0.964        O   22 0.958
    25  H   0.961        N   49 0.897
    26  H   0.981        N   49 0.966
    27  C   3.995        C   32 1.019    C   14 1.005    H   28 0.977    H   29 0.977
    28  H   0.999        C   27 0.977
    29  H   0.998        C   27 0.977
    30  H   0.996        C    5 0.969
    31  H   0.996        C    3 0.969
    32  C   3.995        C   27 1.019    H   35 0.987    H   34 0.987    H   33 0.987
    33  H   0.998        C   32 0.987
    34  H   0.998        C   32 0.987
    35  H   0.998        C   32 0.987
    36  C   3.983        N   49 1.014    C   39 1.005    H   37 0.973    H   38 0.972
    37  H   0.999        C   36 0.973
    38  H   0.999        C   36 0.972
    39  C   3.996        C   42 1.007    C   36 1.005    H   41 0.976    H   40 0.974
    40  H   0.998        C   39 0.974
    41  H   0.999        C   39 0.976
    42  C   3.997        C   45 1.020    C   39 1.007    H   43 0.978    H   44 0.978
    43  H   0.999        C   42 0.978
    44  H   0.999        C   42 0.978
    45  C   3.996        C   42 1.020    H   47 0.988    H   46 0.987    H   48 0.987
    46  H   0.998        C   45 0.987
    47  H   0.999        C   45 0.988
    48  H   0.998        C   45 0.987
    49  N   3.083        C   36 1.014    H   26 0.966    H   25 0.897

molecular dipole:
                 x           y           z       tot (Debye)
 q only:       -0.578      -2.568       2.827
   full:       -0.373      -1.688       2.641       8.022
molecular quadrupole (traceless):
                xx          xy          yy          xz          yz          zz
 q only:       37.244      38.920     -22.284     -28.188      33.617     -14.960
  q+dip:       27.415      22.095     -12.248     -27.356      31.556     -15.166
   full:       27.002      23.802     -10.792     -27.253      29.350     -16.210


           -------------------------------------------------
          | TOTAL ENERGY              -61.351577811273 Eh   |
          | GRADIENT NORM               0.034463222239 Eh/α |
          | HOMO-LUMO GAP               1.653531593379 eV   |
           -------------------------------------------------

------------------------------------------------------------------------
 * finished run on 2020/12/07 at 08:55:52.924     
------------------------------------------------------------------------
 total:
 * wall-time:     0 d,  0 h,  0 min,  0.285 sec
 *  cpu-time:     0 d,  0 h,  0 min,  0.995 sec
 * ratio c/w:     3.492 speedup
 SCF:
 * wall-time:     0 d,  0 h,  0 min,  0.133 sec
 *  cpu-time:     0 d,  0 h,  0 min,  0.506 sec
 * ratio c/w:     3.798 speedup


-------------------------   --------------------
FINAL SINGLE POINT ENERGY       -61.351577811270
-------------------------   --------------------


----------------------------------------------------------------------------
                           ORCA NUMERICAL FREQUENCIES
                              (8-process run)
----------------------------------------------------------------------------

Number of atoms                ... 49
Central differences            ... used
Number of displacements        ... 294
Numerical increment            ... 5.000e-03 bohr
IR-spectrum generation         ... on
Raman-spectrum generation      ... off
Surface Crossing Hessian       ... off
List of participating nodes    ...  /tmp/slurm-scratch/freq.335/freq.hostnames

The output will be reduced. Please look at the following files:
SCF program output             ... >/tmp/slurm-scratch/freq.335/freq.lastscf
Integral program output        ... >/tmp/slurm-scratch/freq.335/freq.lastint
Gradient program output        ... >/tmp/slurm-scratch/freq.335/freq.lastgrad
Dipole moment program output   ... >/tmp/slurm-scratch/freq.335/freq.lastmom
AutoCI program output          ... >/tmp/slurm-scratch/freq.335/freq.lastautoci


         <<< Energy and Gradient at the input geometry >>>

        <<< Energy and Gradient at displaced geometries >>>
             <<<Displacing   3/coordinate 2 (+)>>>
             <<<Displacing   2/coordinate 1 (+)>>>
             <<<Displacing   3/coordinate 1 (+)>>>
             <<<Displacing   2/coordinate 2 (+)>>>
             <<<Displacing   2/coordinate 3 (+)>>>
             <<<Displacing   1/coordinate 3 (+)>>>
             <<<Displacing   1/coordinate 1 (+)>>>
             <<<Displacing   1/coordinate 2 (+)>>>
             <<<Displacing   2/coordinate 2 (-)>>>
             <<<Displacing   3/coordinate 2 (-)>>>
             <<<Displacing   3/coordinate 1 (-)>>>
             <<<Displacing   1/coordinate 3 (-)>>>
             <<<Displacing   2/coordinate 1 (-)>>>
             <<<Displacing   2/coordinate 3 (-)>>>
             <<<Displacing   1/coordinate 2 (-)>>>
             <<<Displacing   1/coordinate 1 (-)>>>
             <<<Displacing   3/coordinate 3 (+)>>>
             <<<Displacing   3/coordinate 3 (-)>>>
             <<<Displacing   4/coordinate 3 (+)>>>
             <<<Displacing   4/coordinate 1 (+)>>>
             <<<Displacing   4/coordinate 2 (+)>>>
             <<<Displacing   5/coordinate 2 (+)>>>
             <<<Displacing   5/coordinate 1 (+)>>>
             <<<Displacing   6/coordinate 1 (+)>>>
             <<<Displacing   4/coordinate 1 (-)>>>
             <<<Displacing   4/coordinate 2 (-)>>>
             <<<Displacing   4/coordinate 3 (-)>>>
             <<<Displacing   5/coordinate 2 (-)>>>
             <<<Displacing   5/coordinate 1 (-)>>>
             <<<Displacing   5/coordinate 3 (+)>>>
             <<<Displacing   6/coordinate 1 (-)>>>
             <<<Displacing   5/coordinate 3 (-)>>>
             <<<Displacing   6/coordinate 2 (+)>>>
             <<<Displacing   6/coordinate 2 (-)>>>
             <<<Displacing   6/coordinate 3 (+)>>>
             <<<Displacing   7/coordinate 1 (+)>>>
             <<<Displacing   7/coordinate 1 (-)>>>
             <<<Displacing   7/coordinate 2 (+)>>>
             <<<Displacing   6/coordinate 3 (-)>>>
             <<<Displacing   7/coordinate 3 (+)>>>
             <<<Displacing   8/coordinate 1 (+)>>>
             <<<Displacing   8/coordinate 2 (+)>>>
             <<<Displacing   7/coordinate 3 (-)>>>
             <<<Displacing   8/coordinate 2 (-)>>>
             <<<Displacing   7/coordinate 2 (-)>>>
             <<<Displacing   8/coordinate 1 (-)>>>
             <<<Displacing   8/coordinate 3 (+)>>>
             <<<Displacing   8/coordinate 3 (-)>>>
             <<<Displacing   9/coordinate 1 (+)>>>
             <<<Displacing   9/coordinate 1 (-)>>>
             <<<Displacing   9/coordinate 2 (+)>>>
             <<<Displacing   9/coordinate 2 (-)>>>
             <<<Displacing  10/coordinate 1 (+)>>>
             <<<Displacing  10/coordinate 2 (+)>>>
             <<<Displacing   9/coordinate 3 (+)>>>
             <<<Displacing  10/coordinate 3 (+)>>>
             <<<Displacing  10/coordinate 2 (-)>>>
             <<<Displacing  10/coordinate 1 (-)>>>
             <<<Displacing   9/coordinate 3 (-)>>>
             <<<Displacing  10/coordinate 3 (-)>>>
             <<<Displacing  11/coordinate 2 (+)>>>
             <<<Displacing  11/coordinate 1 (+)>>>
             <<<Displacing  11/coordinate 2 (-)>>>
             <<<Displacing  11/coordinate 1 (-)>>>
             <<<Displacing  11/coordinate 3 (+)>>>
             <<<Displacing  11/coordinate 3 (-)>>>
             <<<Displacing  12/coordinate 2 (+)>>>
             <<<Displacing  12/coordinate 1 (+)>>>
             <<<Displacing  12/coordinate 3 (+)>>>
             <<<Displacing  12/coordinate 2 (-)>>>
             <<<Displacing  13/coordinate 1 (+)>>>
             <<<Displacing  12/coordinate 1 (-)>>>
             <<<Displacing  12/coordinate 3 (-)>>>
             <<<Displacing  13/coordinate 3 (+)>>>
             <<<Displacing  13/coordinate 1 (-)>>>
             <<<Displacing  13/coordinate 3 (-)>>>
             <<<Displacing  13/coordinate 2 (+)>>>
             <<<Displacing  14/coordinate 1 (+)>>>
             <<<Displacing  13/coordinate 2 (-)>>>
             <<<Displacing  14/coordinate 1 (-)>>>
             <<<Displacing  14/coordinate 2 (+)>>>
             <<<Displacing  14/coordinate 2 (-)>>>
             <<<Displacing  14/coordinate 3 (+)>>>
             <<<Displacing  15/coordinate 1 (+)>>>
             <<<Displacing  14/coordinate 3 (-)>>>
             <<<Displacing  15/coordinate 3 (+)>>>
             <<<Displacing  15/coordinate 2 (+)>>>
             <<<Displacing  16/coordinate 1 (+)>>>
             <<<Displacing  15/coordinate 1 (-)>>>
             <<<Displacing  15/coordinate 2 (-)>>>
             <<<Displacing  15/coordinate 3 (-)>>>
             <<<Displacing  16/coordinate 1 (-)>>>
             <<<Displacing  16/coordinate 2 (+)>>>
             <<<Displacing  16/coordinate 2 (-)>>>
             <<<Displacing  16/coordinate 3 (+)>>>
             <<<Displacing  16/coordinate 3 (-)>>>
             <<<Displacing  17/coordinate 1 (+)>>>
             <<<Displacing  17/coordinate 1 (-)>>>
             <<<Displacing  17/coordinate 2 (+)>>>
             <<<Displacing  17/coordinate 3 (+)>>>
             <<<Displacing  17/coordinate 2 (-)>>>
             <<<Displacing  18/coordinate 1 (+)>>>
             <<<Displacing  18/coordinate 2 (+)>>>
             <<<Displacing  17/coordinate 3 (-)>>>
             <<<Displacing  18/coordinate 3 (+)>>>
             <<<Displacing  18/coordinate 1 (-)>>>
             <<<Displacing  18/coordinate 3 (-)>>>
             <<<Displacing  18/coordinate 2 (-)>>>
             <<<Displacing  19/coordinate 1 (+)>>>
             <<<Displacing  19/coordinate 1 (-)>>>
             <<<Displacing  19/coordinate 2 (+)>>>
             <<<Displacing  19/coordinate 2 (-)>>>
             <<<Displacing  19/coordinate 3 (+)>>>
             <<<Displacing  19/coordinate 3 (-)>>>
             <<<Displacing  20/coordinate 1 (+)>>>
             <<<Displacing  20/coordinate 3 (+)>>>
             <<<Displacing  20/coordinate 2 (+)>>>
             <<<Displacing  20/coordinate 1 (-)>>>
             <<<Displacing  20/coordinate 3 (-)>>>
             <<<Displacing  21/coordinate 1 (+)>>>
             <<<Displacing  20/coordinate 2 (-)>>>
             <<<Displacing  21/coordinate 2 (+)>>>
             <<<Displacing  21/coordinate 3 (+)>>>
             <<<Displacing  21/coordinate 1 (-)>>>
             <<<Displacing  21/coordinate 2 (-)>>>
             <<<Displacing  21/coordinate 3 (-)>>>
             <<<Displacing  22/coordinate 1 (+)>>>
             <<<Displacing  22/coordinate 1 (-)>>>
             <<<Displacing  22/coordinate 2 (+)>>>
             <<<Displacing  22/coordinate 2 (-)>>>
             <<<Displacing  22/coordinate 3 (+)>>>
             <<<Displacing  22/coordinate 3 (-)>>>
             <<<Displacing  23/coordinate 2 (+)>>>
             <<<Displacing  23/coordinate 1 (+)>>>
             <<<Displacing  23/coordinate 2 (-)>>>
             <<<Displacing  23/coordinate 1 (-)>>>
             <<<Displacing  24/coordinate 1 (+)>>>
             <<<Displacing  23/coordinate 3 (+)>>>
             <<<Displacing  24/coordinate 3 (+)>>>
             <<<Displacing  23/coordinate 3 (-)>>>
             <<<Displacing  24/coordinate 1 (-)>>>
             <<<Displacing  24/coordinate 3 (-)>>>
             <<<Displacing  24/coordinate 2 (+)>>>
             <<<Displacing  24/coordinate 2 (-)>>>
             <<<Displacing  25/coordinate 1 (+)>>>
             <<<Displacing  25/coordinate 1 (-)>>>
             <<<Displacing  25/coordinate 2 (+)>>>
             <<<Displacing  25/coordinate 2 (-)>>>
             <<<Displacing  26/coordinate 1 (+)>>>
             <<<Displacing  26/coordinate 2 (+)>>>
             <<<Displacing  26/coordinate 1 (-)>>>
             <<<Displacing  25/coordinate 3 (+)>>>
             <<<Displacing  26/coordinate 3 (+)>>>
             <<<Displacing  26/coordinate 2 (-)>>>
             <<<Displacing  26/coordinate 3 (-)>>>
             <<<Displacing  27/coordinate 1 (+)>>>
             <<<Displacing  25/coordinate 3 (-)>>>
             <<<Displacing  27/coordinate 1 (-)>>>
             <<<Displacing  27/coordinate 2 (+)>>>
             <<<Displacing  27/coordinate 2 (-)>>>
             <<<Displacing  28/coordinate 1 (+)>>>
             <<<Displacing  27/coordinate 3 (+)>>>
             <<<Displacing  28/coordinate 2 (+)>>>
             <<<Displacing  28/coordinate 1 (-)>>>
             <<<Displacing  27/coordinate 3 (-)>>>
             <<<Displacing  28/coordinate 2 (-)>>>
             <<<Displacing  29/coordinate 2 (+)>>>
             <<<Displacing  29/coordinate 2 (-)>>>
             <<<Displacing  29/coordinate 1 (+)>>>
             <<<Displacing  29/coordinate 1 (-)>>>
             <<<Displacing  28/coordinate 3 (+)>>>
             <<<Displacing  29/coordinate 3 (+)>>>
             <<<Displacing  28/coordinate 3 (-)>>>
             <<<Displacing  29/coordinate 3 (-)>>>
             <<<Displacing  30/coordinate 1 (+)>>>
             <<<Displacing  30/coordinate 1 (-)>>>
             <<<Displacing  30/coordinate 2 (+)>>>
             <<<Displacing  30/coordinate 2 (-)>>>
             <<<Displacing  30/coordinate 3 (+)>>>
             <<<Displacing  31/coordinate 1 (+)>>>
             <<<Displacing  31/coordinate 1 (-)>>>
             <<<Displacing  30/coordinate 3 (-)>>>
             <<<Displacing  32/coordinate 1 (+)>>>
             <<<Displacing  31/coordinate 3 (+)>>>
             <<<Displacing  32/coordinate 1 (-)>>>
             <<<Displacing  31/coordinate 3 (-)>>>
             <<<Displacing  32/coordinate 2 (+)>>>
             <<<Displacing  31/coordinate 2 (+)>>>
             <<<Displacing  32/coordinate 2 (-)>>>
             <<<Displacing  31/coordinate 2 (-)>>>
             <<<Displacing  32/coordinate 3 (+)>>>
             <<<Displacing  32/coordinate 3 (-)>>>
             <<<Displacing  33/coordinate 1 (+)>>>
             <<<Displacing  33/coordinate 2 (+)>>>
             <<<Displacing  33/coordinate 1 (-)>>>
             <<<Displacing  33/coordinate 2 (-)>>>
             <<<Displacing  34/coordinate 1 (+)>>>
             <<<Displacing  33/coordinate 3 (+)>>>
             <<<Displacing  34/coordinate 1 (-)>>>
             <<<Displacing  33/coordinate 3 (-)>>>
             <<<Displacing  34/coordinate 3 (+)>>>
             <<<Displacing  34/coordinate 2 (+)>>>
             <<<Displacing  35/coordinate 1 (+)>>>
             <<<Displacing  34/coordinate 3 (-)>>>
             <<<Displacing  35/coordinate 1 (-)>>>
             <<<Displacing  34/coordinate 2 (-)>>>
             <<<Displacing  35/coordinate 2 (+)>>>
             <<<Displacing  35/coordinate 2 (-)>>>
             <<<Displacing  35/coordinate 3 (+)>>>
             <<<Displacing  35/coordinate 3 (-)>>>
             <<<Displacing  36/coordinate 1 (+)>>>
             <<<Displacing  36/coordinate 1 (-)>>>
             <<<Displacing  37/coordinate 1 (+)>>>
             <<<Displacing  36/coordinate 2 (+)>>>
             <<<Displacing  37/coordinate 2 (+)>>>
             <<<Displacing  37/coordinate 3 (+)>>>
             <<<Displacing  37/coordinate 1 (-)>>>
             <<<Displacing  36/coordinate 2 (-)>>>
             <<<Displacing  36/coordinate 3 (+)>>>
             <<<Displacing  37/coordinate 3 (-)>>>
             <<<Displacing  37/coordinate 2 (-)>>>
             <<<Displacing  36/coordinate 3 (-)>>>
             <<<Displacing  38/coordinate 1 (+)>>>
             <<<Displacing  38/coordinate 1 (-)>>>
             <<<Displacing  38/coordinate 2 (+)>>>
             <<<Displacing  38/coordinate 2 (-)>>>
             <<<Displacing  38/coordinate 3 (+)>>>
             <<<Displacing  38/coordinate 3 (-)>>>
             <<<Displacing  39/coordinate 3 (+)>>>
             <<<Displacing  39/coordinate 2 (+)>>>
             <<<Displacing  40/coordinate 1 (+)>>>
             <<<Displacing  39/coordinate 1 (+)>>>
             <<<Displacing  39/coordinate 3 (-)>>>
             <<<Displacing  39/coordinate 1 (-)>>>
             <<<Displacing  40/coordinate 3 (+)>>>
             <<<Displacing  39/coordinate 2 (-)>>>
             <<<Displacing  40/coordinate 1 (-)>>>
             <<<Displacing  40/coordinate 2 (+)>>>
             <<<Displacing  40/coordinate 3 (-)>>>
             <<<Displacing  40/coordinate 2 (-)>>>
             <<<Displacing  41/coordinate 2 (+)>>>
             <<<Displacing  41/coordinate 2 (-)>>>
             <<<Displacing  41/coordinate 1 (+)>>>
             <<<Displacing  41/coordinate 1 (-)>>>
             <<<Displacing  41/coordinate 3 (+)>>>
             <<<Displacing  42/coordinate 1 (+)>>>
             <<<Displacing  41/coordinate 3 (-)>>>
             <<<Displacing  42/coordinate 2 (+)>>>
             <<<Displacing  42/coordinate 3 (+)>>>
             <<<Displacing  42/coordinate 1 (-)>>>
             <<<Displacing  42/coordinate 3 (-)>>>
             <<<Displacing  43/coordinate 1 (+)>>>
             <<<Displacing  42/coordinate 2 (-)>>>
             <<<Displacing  43/coordinate 2 (+)>>>
             <<<Displacing  43/coordinate 2 (-)>>>
             <<<Displacing  43/coordinate 1 (-)>>>
             <<<Displacing  43/coordinate 3 (+)>>>
             <<<Displacing  43/coordinate 3 (-)>>>
             <<<Displacing  44/coordinate 1 (+)>>>
             <<<Displacing  44/coordinate 1 (-)>>>
             <<<Displacing  44/coordinate 2 (+)>>>
             <<<Displacing  44/coordinate 2 (-)>>>
             <<<Displacing  44/coordinate 3 (+)>>>
             <<<Displacing  44/coordinate 3 (-)>>>
             <<<Displacing  45/coordinate 3 (+)>>>
             <<<Displacing  45/coordinate 1 (+)>>>
             <<<Displacing  45/coordinate 3 (-)>>>
             <<<Displacing  46/coordinate 1 (+)>>>
             <<<Displacing  45/coordinate 1 (-)>>>
             <<<Displacing  46/coordinate 1 (-)>>>
             <<<Displacing  45/coordinate 2 (+)>>>
             <<<Displacing  45/coordinate 2 (-)>>>
             <<<Displacing  46/coordinate 2 (+)>>>
             <<<Displacing  46/coordinate 2 (-)>>>
             <<<Displacing  46/coordinate 3 (+)>>>
             <<<Displacing  46/coordinate 3 (-)>>>
             <<<Displacing  47/coordinate 1 (+)>>>
             <<<Displacing  47/coordinate 1 (-)>>>
             <<<Displacing  47/coordinate 2 (+)>>>
             <<<Displacing  47/coordinate 3 (+)>>>
             <<<Displacing  47/coordinate 2 (-)>>>
             <<<Displacing  47/coordinate 3 (-)>>>
             <<<Displacing  48/coordinate 1 (+)>>>
             <<<Displacing  48/coordinate 3 (+)>>>
             <<<Displacing  48/coordinate 1 (-)>>>
             <<<Displacing  48/coordinate 3 (-)>>>
             <<<Displacing  48/coordinate 2 (+)>>>
             <<<Displacing  48/coordinate 2 (-)>>>
             <<<Displacing  49/coordinate 1 (+)>>>
             <<<Displacing  49/coordinate 1 (-)>>>
             <<<Displacing  49/coordinate 2 (+)>>>
             <<<Displacing  49/coordinate 2 (-)>>>
             <<<Displacing  49/coordinate 3 (+)>>>
             <<<Displacing  49/coordinate 3 (-)>>>

-----------------------
VIBRATIONAL FREQUENCIES
-----------------------

Scaling factor for frequencies =  1.000000000 (already applied!)

   0:         0.00 cm**-1
   1:         0.00 cm**-1
   2:         0.00 cm**-1
   3:         0.00 cm**-1
   4:         0.00 cm**-1
   5:         0.00 cm**-1
   6:      -326.39 cm**-1 ***imaginary mode***
   7:        24.08 cm**-1
   8:        33.36 cm**-1
   9:        37.07 cm**-1
  10:        41.36 cm**-1
  11:        57.39 cm**-1
  12:        61.27 cm**-1
  13:        68.92 cm**-1
  14:        80.34 cm**-1
  15:        86.42 cm**-1
  16:        89.13 cm**-1
  17:        98.47 cm**-1
  18:       112.39 cm**-1
  19:       123.79 cm**-1
  20:       137.28 cm**-1
  21:       142.81 cm**-1
  22:       151.19 cm**-1
  23:       174.29 cm**-1
  24:       189.04 cm**-1
  25:       213.69 cm**-1
  26:       243.53 cm**-1
  27:       264.17 cm**-1
  28:       269.75 cm**-1
  29:       272.93 cm**-1
  30:       275.52 cm**-1
  31:       307.39 cm**-1
  32:       356.57 cm**-1
  33:       374.69 cm**-1
  34:       392.59 cm**-1
  35:       410.48 cm**-1
  36:       430.27 cm**-1
  37:       450.72 cm**-1
  38:       483.74 cm**-1
  39:       495.89 cm**-1
  40:       517.63 cm**-1
  41:       574.45 cm**-1
  42:       587.80 cm**-1
  43:       610.18 cm**-1
  44:       660.08 cm**-1
  45:       663.93 cm**-1
  46:       687.91 cm**-1
  47:       750.35 cm**-1
  48:       761.97 cm**-1
  49:       770.89 cm**-1
  50:       772.78 cm**-1
  51:       821.94 cm**-1
  52:       825.36 cm**-1
  53:       835.34 cm**-1
  54:       855.60 cm**-1
  55:       871.97 cm**-1
  56:       912.31 cm**-1
  57:       931.88 cm**-1
  58:       934.41 cm**-1
  59:       939.50 cm**-1
  60:       941.86 cm**-1
  61:       944.40 cm**-1
  62:       947.00 cm**-1
  63:       967.46 cm**-1
  64:       986.05 cm**-1
  65:      1009.26 cm**-1
  66:      1031.31 cm**-1
  67:      1047.51 cm**-1
  68:      1070.32 cm**-1
  69:      1078.34 cm**-1
  70:      1094.65 cm**-1
  71:      1101.54 cm**-1
  72:      1104.16 cm**-1
  73:      1116.11 cm**-1
  74:      1125.64 cm**-1
  75:      1128.15 cm**-1
  76:      1132.18 cm**-1
  77:      1178.94 cm**-1
  78:      1182.12 cm**-1
  79:      1182.51 cm**-1
  80:      1204.33 cm**-1
  81:      1207.37 cm**-1
  82:      1214.91 cm**-1
  83:      1242.90 cm**-1
  84:      1248.86 cm**-1
  85:      1254.91 cm**-1
  86:      1274.07 cm**-1
  87:      1276.18 cm**-1
  88:      1277.59 cm**-1
  89:      1282.19 cm**-1
  90:      1295.41 cm**-1
  91:      1296.98 cm**-1
  92:      1309.87 cm**-1
  93:      1331.14 cm**-1
  94:      1345.50 cm**-1
  95:      1354.04 cm**-1
  96:      1363.90 cm**-1
  97:      1367.07 cm**-1
  98:      1379.28 cm**-1
  99:      1420.25 cm**-1
 100:      1428.47 cm**-1
 101:      1429.25 cm**-1
 102:      1445.24 cm**-1
 103:      1451.87 cm**-1
 104:      1468.44 cm**-1
 105:      1492.26 cm**-1
 106:      1503.78 cm**-1
 107:      1504.56 cm**-1
 108:      1506.22 cm**-1
 109:      1507.52 cm**-1
 110:      1508.65 cm**-1
 111:      1510.01 cm**-1
 112:      1510.79 cm**-1
 113:      1512.74 cm**-1
 114:      1531.67 cm**-1
 115:      1560.31 cm**-1
 116:      1564.86 cm**-1
 117:      1629.16 cm**-1
 118:      2684.75 cm**-1
 119:      2880.96 cm**-1
 120:      2932.32 cm**-1
 121:      2944.91 cm**-1
 122:      2947.24 cm**-1
 123:      2958.56 cm**-1
 124:      2962.64 cm**-1
 125:      2966.36 cm**-1
 126:      2970.03 cm**-1
 127:      2975.24 cm**-1
 128:      2976.97 cm**-1
 129:      2978.93 cm**-1
 130:      2982.42 cm**-1
 131:      2985.23 cm**-1
 132:      2985.99 cm**-1
 133:      2991.78 cm**-1
 134:      2998.00 cm**-1
 135:      3001.93 cm**-1
 136:      3013.65 cm**-1
 137:      3046.60 cm**-1
 138:      3062.65 cm**-1
 139:      3066.01 cm**-1
 140:      3071.94 cm**-1
 141:      3079.40 cm**-1
 142:      3090.18 cm**-1
 143:      3097.68 cm**-1
 144:      3407.13 cm**-1
 145:      3612.78 cm**-1
 146:      3638.55 cm**-1


------------
NORMAL MODES
------------

These modes are the cartesian displacements weighted by the diagonal matrix
M(i,i)=1/sqrt(m[i]) where m[i] is the mass of the displaced atom
Thus, these vectors are normalized but *not* orthogonal

                  0          1          2          3          4          5    
      0       0.000000   0.000000   0.000000   0.000000   0.000000   0.000000
      1       0.000000   0.000000   0.000000   0.000000   0.000000   0.000000
      2       0.000000   0.000000   0.000000   0.000000   0.000000   0.000000
      3       0.000000   0.000000   0.000000   0.000000   0.000000   0.000000
      4       0.000000   0.000000   0.000000   0.000000   0.000000   0.000000
      5       0.000000   0.000000   0.000000   0.000000   0.000000   0.000000
      6       0.000000   0.000000   0.000000   0.000000   0.000000   0.000000
      7       0.000000   0.000000   0.000000   0.000000   0.000000   0.000000
      8       0.000000   0.000000   0.000000   0.000000   0.000000   0.000000
      9       0.000000   0.000000   0.000000   0.000000   0.000000   0.000000
     10       0.000000   0.000000   0.000000   0.000000   0.000000   0.000000
     11       0.000000   0.000000   0.000000   0.000000   0.000000   0.000000
     12       0.000000   0.000000   0.000000   0.000000   0.000000   0.000000
     13       0.000000   0.000000   0.000000   0.000000   0.000000   0.000000
     14       0.000000   0.000000   0.000000   0.000000   0.000000   0.000000
     15       0.000000   0.000000   0.000000   0.000000   0.000000   0.000000
     16       0.000000   0.000000   0.000000   0.000000   0.000000   0.000000
     17       0.000000   0.000000   0.000000   0.000000   0.000000   0.000000
     18       0.000000   0.000000   0.000000   0.000000   0.000000   0.000000
     19       0.000000   0.000000   0.000000   0.000000   0.000000   0.000000
     20       0.000000   0.000000   0.000000   0.000000   0.000000   0.000000
     21       0.000000   0.000000   0.000000   0.000000   0.000000   0.000000
     22       0.000000   0.000000   0.000000   0.000000   0.000000   0.000000
     23       0.000000   0.000000   0.000000   0.000000   0.000000   0.000000
     24       0.000000   0.000000   0.000000   0.000000   0.000000   0.000000
     25       0.000000   0.000000   0.000000   0.000000   0.000000   0.000000
     26       0.000000   0.000000   0.000000   0.000000   0.000000   0.000000
     27       0.000000   0.000000   0.000000   0.000000   0.000000   0.000000
     28       0.000000   0.000000   0.000000   0.000000   0.000000   0.000000
     29       0.000000   0.000000   0.000000   0.000000   0.000000   0.000000
     30       0.000000   0.000000   0.000000   0.000000   0.000000   0.000000
     31       0.000000   0.000000   0.000000   0.000000   0.000000   0.000000
     32       0.000000   0.000000   0.000000   0.000000   0.000000   0.000000
     33       0.000000   0.000000   0.000000   0.000000   0.000000   0.000000
     34       0.000000   0.000000   0.000000   0.000000   0.000000   0.000000
     35       0.000000   0.000000   0.000000   0.000000   0.000000   0.000000
     36       0.000000   0.000000   0.000000   0.000000   0.000000   0.000000
     37       0.000000   0.000000   0.000000   0.000000   0.000000   0.000000
     38       0.000000   0.000000   0.000000   0.000000   0.000000   0.000000
     39       0.000000   0.000000   0.000000   0.000000   0.000000   0.000000
     40       0.000000   0.000000   0.000000   0.000000   0.000000   0.000000
     41       0.000000   0.000000   0.000000   0.000000   0.000000   0.000000
     42       0.000000   0.000000   0.000000   0.000000   0.000000   0.000000
     43       0.000000   0.000000   0.000000   0.000000   0.000000   0.000000
     44       0.000000   0.000000   0.000000   0.000000   0.000000   0.000000
     45       0.000000   0.000000   0.000000   0.000000   0.000000   0.000000
     46       0.000000   0.000000   0.000000   0.000000   0.000000   0.000000
     47       0.000000   0.000000   0.000000   0.000000   0.000000   0.000000
     48       0.000000   0.000000   0.000000   0.000000   0.000000   0.000000
     49       0.000000   0.000000   0.000000   0.000000   0.000000   0.000000
     50       0.000000   0.000000   0.000000   0.000000   0.000000   0.000000
     51       0.000000   0.000000   0.000000   0.000000   0.000000   0.000000
     52       0.000000   0.000000   0.000000   0.000000   0.000000   0.000000
     53       0.000000   0.000000   0.000000   0.000000   0.000000   0.000000
     54       0.000000   0.000000   0.000000   0.000000   0.000000   0.000000
     55       0.000000   0.000000   0.000000   0.000000   0.000000   0.000000
     56       0.000000   0.000000   0.000000   0.000000   0.000000   0.000000
     57       0.000000   0.000000   0.000000   0.000000   0.000000   0.000000
     58       0.000000   0.000000   0.000000   0.000000   0.000000   0.000000
     59       0.000000   0.000000   0.000000   0.000000   0.000000   0.000000
     60       0.000000   0.000000   0.000000   0.000000   0.000000   0.000000
     61       0.000000   0.000000   0.000000   0.000000   0.000000   0.000000
     62       0.000000   0.000000   0.000000   0.000000   0.000000   0.000000
     63       0.000000   0.000000   0.000000   0.000000   0.000000   0.000000
     64       0.000000   0.000000   0.000000   0.000000   0.000000   0.000000
     65       0.000000   0.000000   0.000000   0.000000   0.000000   0.000000
     66       0.000000   0.000000   0.000000   0.000000   0.000000   0.000000
     67       0.000000   0.000000   0.000000   0.000000   0.000000   0.000000
     68       0.000000   0.000000   0.000000   0.000000   0.000000   0.000000
     69       0.000000   0.000000   0.000000   0.000000   0.000000   0.000000
     70       0.000000   0.000000   0.000000   0.000000   0.000000   0.000000
     71       0.000000   0.000000   0.000000   0.000000   0.000000   0.000000
     72       0.000000   0.000000   0.000000   0.000000   0.000000   0.000000
     73       0.000000   0.000000   0.000000   0.000000   0.000000   0.000000
     74       0.000000   0.000000   0.000000   0.000000   0.000000   0.000000
     75       0.000000   0.000000   0.000000   0.000000   0.000000   0.000000
     76       0.000000   0.000000   0.000000   0.000000   0.000000   0.000000
     77       0.000000   0.000000   0.000000   0.000000   0.000000   0.000000
     78       0.000000   0.000000   0.000000   0.000000   0.000000   0.000000
     79       0.000000   0.000000   0.000000   0.000000   0.000000   0.000000
     80       0.000000   0.000000   0.000000   0.000000   0.000000   0.000000
     81       0.000000   0.000000   0.000000   0.000000   0.000000   0.000000
     82       0.000000   0.000000   0.000000   0.000000   0.000000   0.000000
     83       0.000000   0.000000   0.000000   0.000000   0.000000   0.000000
     84       0.000000   0.000000   0.000000   0.000000   0.000000   0.000000
     85       0.000000   0.000000   0.000000   0.000000   0.000000   0.000000
     86       0.000000   0.000000   0.000000   0.000000   0.000000   0.000000
     87       0.000000   0.000000   0.000000   0.000000   0.000000   0.000000
     88       0.000000   0.000000   0.000000   0.000000   0.000000   0.000000
     89       0.000000   0.000000   0.000000   0.000000   0.000000   0.000000
     90       0.000000   0.000000   0.000000   0.000000   0.000000   0.000000
     91       0.000000   0.000000   0.000000   0.000000   0.000000   0.000000
     92       0.000000   0.000000   0.000000   0.000000   0.000000   0.000000
     93       0.000000   0.000000   0.000000   0.000000   0.000000   0.000000
     94       0.000000   0.000000   0.000000   0.000000   0.000000   0.000000
     95       0.000000   0.000000   0.000000   0.000000   0.000000   0.000000
     96       0.000000   0.000000   0.000000   0.000000   0.000000   0.000000
     97       0.000000   0.000000   0.000000   0.000000   0.000000   0.000000
     98       0.000000   0.000000   0.000000   0.000000   0.000000   0.000000
     99       0.000000   0.000000   0.000000   0.000000   0.000000   0.000000
    100       0.000000   0.000000   0.000000   0.000000   0.000000   0.000000
    101       0.000000   0.000000   0.000000   0.000000   0.000000   0.000000
    102       0.000000   0.000000   0.000000   0.000000   0.000000   0.000000
    103       0.000000   0.000000   0.000000   0.000000   0.000000   0.000000
    104       0.000000   0.000000   0.000000   0.000000   0.000000   0.000000
    105       0.000000   0.000000   0.000000   0.000000   0.000000   0.000000
    106       0.000000   0.000000   0.000000   0.000000   0.000000   0.000000
    107       0.000000   0.000000   0.000000   0.000000   0.000000   0.000000
    108       0.000000   0.000000   0.000000   0.000000   0.000000   0.000000
    109       0.000000   0.000000   0.000000   0.000000   0.000000   0.000000
    110       0.000000   0.000000   0.000000   0.000000   0.000000   0.000000
    111       0.000000   0.000000   0.000000   0.000000   0.000000   0.000000
    112       0.000000   0.000000   0.000000   0.000000   0.000000   0.000000
    113       0.000000   0.000000   0.000000   0.000000   0.000000   0.000000
    114       0.000000   0.000000   0.000000   0.000000   0.000000   0.000000
    115       0.000000   0.000000   0.000000   0.000000   0.000000   0.000000
    116       0.000000   0.000000   0.000000   0.000000   0.000000   0.000000
    117       0.000000   0.000000   0.000000   0.000000   0.000000   0.000000
    118       0.000000   0.000000   0.000000   0.000000   0.000000   0.000000
    119       0.000000   0.000000   0.000000   0.000000   0.000000   0.000000
    120       0.000000   0.000000   0.000000   0.000000   0.000000   0.000000
    121       0.000000   0.000000   0.000000   0.000000   0.000000   0.000000
    122       0.000000   0.000000   0.000000   0.000000   0.000000   0.000000
    123       0.000000   0.000000   0.000000   0.000000   0.000000   0.000000
    124       0.000000   0.000000   0.000000   0.000000   0.000000   0.000000
    125       0.000000   0.000000   0.000000   0.000000   0.000000   0.000000
    126       0.000000   0.000000   0.000000   0.000000   0.000000   0.000000
    127       0.000000   0.000000   0.000000   0.000000   0.000000   0.000000
    128       0.000000   0.000000   0.000000   0.000000   0.000000   0.000000
    129       0.000000   0.000000   0.000000   0.000000   0.000000   0.000000
    130       0.000000   0.000000   0.000000   0.000000   0.000000   0.000000
    131       0.000000   0.000000   0.000000   0.000000   0.000000   0.000000
    132       0.000000   0.000000   0.000000   0.000000   0.000000   0.000000
    133       0.000000   0.000000   0.000000   0.000000   0.000000   0.000000
    134       0.000000   0.000000   0.000000   0.000000   0.000000   0.000000
    135       0.000000   0.000000   0.000000   0.000000   0.000000   0.000000
    136       0.000000   0.000000   0.000000   0.000000   0.000000   0.000000
    137       0.000000   0.000000   0.000000   0.000000   0.000000   0.000000
    138       0.000000   0.000000   0.000000   0.000000   0.000000   0.000000
    139       0.000000   0.000000   0.000000   0.000000   0.000000   0.000000
    140       0.000000   0.000000   0.000000   0.000000   0.000000   0.000000
    141       0.000000   0.000000   0.000000   0.000000   0.000000   0.000000
    142       0.000000   0.000000   0.000000   0.000000   0.000000   0.000000
    143       0.000000   0.000000   0.000000   0.000000   0.000000   0.000000
    144       0.000000   0.000000   0.000000   0.000000   0.000000   0.000000
    145       0.000000   0.000000   0.000000   0.000000   0.000000   0.000000
    146       0.000000   0.000000   0.000000   0.000000   0.000000   0.000000
                  6          7          8          9         10         11    
      0       0.033226  -0.028973  -0.017236  -0.083345  -0.016476   0.014753
      1       0.050632   0.005122   0.001940   0.001430  -0.009873  -0.001757
      2      -0.042579   0.028971   0.023367  -0.010794   0.008523  -0.010531
      3       0.013752  -0.062019  -0.014567  -0.095032  -0.036441  -0.030161
      4       0.007410  -0.028304   0.009196  -0.027282   0.018414  -0.170771
      5      -0.035077   0.027875   0.021096  -0.003019  -0.015730   0.048196
      6      -0.002628  -0.088279  -0.010253  -0.103672  -0.045914  -0.044062
      7      -0.013661  -0.030774   0.028984  -0.034582   0.109536  -0.165862
      8      -0.012493   0.047207   0.012627   0.004919  -0.034421   0.056781
      9      -0.003825  -0.083131  -0.008081  -0.100582  -0.034583  -0.014390
     10      -0.005523  -0.002905   0.041763  -0.016488   0.172812   0.001087
     11       0.006358   0.068156   0.006431   0.005987  -0.028117   0.007624
     12       0.005802  -0.051080  -0.010643  -0.090071  -0.014237   0.030424
     13      -0.006703   0.027929   0.033922   0.005278   0.143483   0.163225
     14       0.013836   0.069810   0.009028   0.000690  -0.002490  -0.050139
     15       0.020305  -0.024240  -0.015225  -0.081781  -0.004959   0.044816
     16       0.017008   0.032663   0.013694   0.012813   0.052668   0.161125
     17      -0.002080   0.050001   0.017755  -0.007236   0.016441  -0.059502
     18       0.093034   0.001303  -0.022957  -0.078232  -0.001907   0.025332
     19       0.165764   0.006131  -0.015151   0.013456  -0.079276  -0.002367
     20      -0.143473   0.008085   0.031321  -0.018194   0.019784  -0.018870
     21       0.016029  -0.066778  -0.016580  -0.098314  -0.045281  -0.054339
     22       0.020717  -0.053169  -0.003759  -0.049115  -0.033955  -0.311547
     23      -0.047057   0.012693   0.027519  -0.001283  -0.018336   0.089438
     24       0.033314   0.000095  -0.017274  -0.073815   0.011089   0.075888
     25       0.029183   0.058094   0.007980   0.029826   0.029981   0.286575
     26      -0.002617   0.050391   0.019435  -0.011510   0.035648  -0.104424
     27      -0.011705  -0.103770  -0.004511  -0.106339  -0.041499  -0.025213
     28      -0.002841  -0.005727   0.056679  -0.021882   0.242297   0.002078
     29       0.011341   0.083180  -0.000212   0.011452  -0.042820   0.014793
     30       0.012148  -0.001871  -0.018791  -0.064686   0.002441   0.017863
     31      -0.011532  -0.023251   0.006914   0.077058  -0.073366  -0.038196
     32      -0.017456  -0.011427   0.028256  -0.038224  -0.010911  -0.005699
     33      -0.005764   0.028735  -0.028846  -0.071740   0.031863   0.015599
     34      -0.010745  -0.030617  -0.004608   0.064582  -0.081408  -0.054867
     35      -0.016332  -0.028623   0.037514  -0.029702  -0.026571   0.000505
     36       0.035642  -0.014050   0.000820  -0.031350  -0.001794   0.007231
     37      -0.056986  -0.011764   0.042528   0.121245  -0.061886  -0.043400
     38      -0.002726  -0.032469   0.007279  -0.052700  -0.029025  -0.002776
     39      -0.000016   0.002207  -0.061736  -0.036013  -0.035749  -0.015487
     40      -0.008332   0.005419   0.066093   0.004251   0.027409   0.015199
     41      -0.001405  -0.060152   0.057454  -0.009936  -0.068156   0.022983
     42      -0.004183   0.034571  -0.054854  -0.058495   0.018263  -0.006233
     43      -0.025662  -0.057640  -0.054597   0.092607  -0.152437  -0.108641
     44       0.001121   0.005539   0.062295  -0.045635   0.032946   0.033404
     45      -0.031008   0.069044   0.014539  -0.118359   0.123212   0.056662
     46      -0.047982  -0.036251  -0.015473   0.058745  -0.092035  -0.069933
     47      -0.061797  -0.052396   0.004557  -0.022039  -0.075234  -0.039092
     48       0.007727  -0.000153  -0.019641  -0.093561  -0.028311  -0.008570
     49      -0.004171   0.022429   0.098262   0.016300   0.096593   0.088404
     50       0.001109  -0.077003   0.062218  -0.067382  -0.123621  -0.036546
     51      -0.001090  -0.036439  -0.105569   0.017898  -0.131764  -0.058376
     52      -0.005387   0.001389   0.056298   0.055751   0.031879   0.046126
     53       0.003536  -0.051073   0.057845   0.063163  -0.019336   0.098900
     54      -0.104290  -0.041306  -0.000125   0.003110   0.046649  -0.021690
     55      -0.172444   0.056800  -0.056382  -0.060979  -0.181123   0.033169
     56       0.170535   0.093548  -0.003390  -0.069672  -0.099732   0.004800
     57       0.050239   0.026969  -0.034346  -0.095451   0.008039   0.041435
     58       0.061592   0.015142  -0.042786  -0.022082  -0.111682   0.025538
     59      -0.074658   0.017418   0.046919   0.000073   0.054168  -0.031580
     60      -0.064687  -0.149580   0.004994   0.084246   0.129932  -0.041826
     61      -0.158088   0.141273  -0.051233  -0.123654  -0.230749   0.048012
     62       0.120628   0.126453  -0.011774  -0.094670  -0.136625   0.011576
     63       0.077916  -0.129602   0.027210   0.126584   0.119254  -0.051130
     64       0.012031  -0.115787  -0.016349   0.152931  -0.046527  -0.020528
     65      -0.058160  -0.244664  -0.056488   0.061848   0.110851  -0.015612
     66      -0.663611  -0.076595   0.014916   0.064416   0.073399  -0.041232
     67       0.299290  -0.036886  -0.036183   0.049637  -0.104398   0.007987
     68       0.033783  -0.078874  -0.031100  -0.003719   0.007908  -0.007119
     69       0.259206  -0.106358   0.048411   0.165703   0.107660  -0.061943
     70      -0.129460  -0.074068  -0.027141   0.127261  -0.090980  -0.009336
     71      -0.237600  -0.166930  -0.068768   0.029636   0.031741   0.000350
     72      -0.018834  -0.005581   0.054297   0.076439   0.004605   0.045224
     73       0.152935  -0.039382   0.040008   0.127479  -0.040255  -0.040401
     74       0.191224  -0.184337  -0.030011   0.019662   0.080993   0.032556
     75      -0.092073   0.102689   0.062917   0.092480   0.016726   0.092891
     76      -0.063949   0.071059   0.044766   0.044261  -0.126177  -0.114222
     77       0.154660  -0.174298  -0.026300   0.031114   0.086537   0.050928
     78      -0.004033   0.028385  -0.097127   0.010562   0.014286  -0.000026
     79      -0.005111   0.023507   0.107389  -0.146114   0.038414  -0.051664
     80       0.001131  -0.081611   0.072941  -0.009850  -0.104774   0.026806
     81      -0.004578   0.059927  -0.059707  -0.046597   0.091023   0.034038
     82      -0.004787   0.028397   0.117391  -0.196938   0.035360  -0.081664
     83       0.001970  -0.085146   0.076782  -0.083176  -0.141388  -0.043817
     84      -0.004990   0.034239  -0.140300   0.068875   0.017274  -0.004505
     85      -0.004880   0.013585   0.079463  -0.157046  -0.012297  -0.117381
     86      -0.000472  -0.068280   0.061926   0.047073  -0.058514   0.079956
     87       0.004450  -0.047189  -0.008963  -0.088093  -0.005307   0.053418
     88      -0.018658   0.048270   0.043068   0.015673   0.191153   0.288223
     89       0.026015   0.086509   0.004218   0.002815   0.002511  -0.086707
     90      -0.018289  -0.112818  -0.008758  -0.112806  -0.061999  -0.077656
     91      -0.026074  -0.055238   0.033877  -0.055698   0.130709  -0.293804
     92      -0.014056   0.046202   0.011017   0.010420  -0.053348   0.101795
     93      -0.004648   0.007202  -0.124749   0.052170  -0.039411  -0.023978
     94      -0.002765   0.047783   0.171276  -0.214995   0.117328   0.006070
     95      -0.000685  -0.115399   0.098560   0.011989  -0.153255   0.054336
     96      -0.005941   0.025161  -0.146749   0.069964  -0.007390  -0.021175
     97      -0.002417   0.060487   0.192128  -0.291057   0.130995  -0.026244
     98      -0.000277  -0.129381   0.108804   0.014947  -0.176482   0.058654
     99      -0.005846  -0.021303  -0.160766   0.106962  -0.112172  -0.056141
    100      -0.003318   0.043551   0.165874  -0.182912   0.116841   0.026403
    101      -0.000948  -0.113473   0.100868   0.056936  -0.127433   0.107548
    102      -0.003104   0.002444  -0.086406   0.009358  -0.037836  -0.012015
    103      -0.003054   0.057125   0.202145  -0.221047   0.161798   0.060385
    104       0.001000  -0.127837   0.105214  -0.020667  -0.191267   0.016832
    105      -0.016490   0.030942   0.057848   0.074992  -0.006916   0.047884
    106       0.008759  -0.006931   0.026177   0.096600  -0.011601   0.045250
    107       0.011076  -0.032746  -0.017375   0.035251   0.082553   0.049768
    108       0.022021  -0.025967   0.068410   0.060527  -0.037436   0.018323
    109      -0.005606  -0.040677   0.079164   0.159988   0.057157   0.157842
    110       0.011014  -0.004680  -0.044934   0.007491   0.055538   0.001182
    111      -0.040418   0.014269   0.031384   0.062313   0.021449   0.104356
    112       0.000527  -0.013460   0.022088   0.098260   0.003429   0.072096
    113       0.002423  -0.045983   0.046180   0.115350   0.158130   0.161827
    114      -0.011109   0.109880   0.078059   0.108095  -0.005971   0.007660
    115      -0.002800   0.018008  -0.060033   0.012442  -0.058495  -0.022586
    116       0.000674   0.042121  -0.057857   0.005313   0.053595  -0.024133
    117      -0.005426   0.122686   0.140603   0.127699  -0.043859  -0.059399
    118      -0.000942   0.022554  -0.041285   0.013857  -0.076577  -0.052219
    119      -0.005817   0.048385  -0.083074  -0.066178  -0.026733  -0.134204
    120      -0.014228   0.168318   0.026514   0.118355   0.038756   0.037760
    121      -0.009284   0.047112  -0.079128  -0.044247  -0.132737  -0.138267
    122       0.004734   0.014899  -0.037377   0.030674   0.080016   0.025568
    123      -0.009180   0.093125   0.082574   0.102653  -0.012394   0.009817
    124      -0.003412  -0.002397  -0.146782   0.003122   0.018700   0.103789
    125      -0.000035   0.136967  -0.092679   0.037622   0.099707  -0.023571
    126      -0.011028   0.078722   0.019278   0.087637   0.030332   0.078655
    127      -0.003945  -0.006765  -0.165742   0.001535   0.036165   0.132527
    128       0.001393   0.141361  -0.069424   0.088746   0.156445   0.077773
    129      -0.010249   0.039180   0.134430   0.088431  -0.061620  -0.018741
    130      -0.005122  -0.018869  -0.130021   0.041486   0.070704   0.212598
    131       0.001258   0.156134  -0.111595   0.022620   0.085740  -0.068781
    132      -0.005397   0.164151   0.102145   0.134950  -0.011000  -0.039908
    133      -0.003306   0.004876  -0.228101  -0.052017   0.005209   0.051114
    134       0.001485   0.194031  -0.132691   0.024486   0.091816  -0.095705
[...]
  28:       269.75    0.000000  (  0.000000   0.000000   0.000000)
  29:       272.93    0.000000  (  0.000000   0.000000   0.000000)
  30:       275.52    0.000000  (  0.000000   0.000000   0.000000)
  31:       307.39    0.000000  (  0.000000   0.000000   0.000000)
  32:       356.57    0.000000  (  0.000000   0.000000   0.000000)
  33:       374.69    0.000000  (  0.000000   0.000000   0.000000)
  34:       392.59    0.000000  (  0.000000   0.000000   0.000000)
  35:       410.48    0.000000  (  0.000000   0.000000   0.000000)
  36:       430.27    0.000000  (  0.000000   0.000000   0.000000)
  37:       450.72    0.000000  (  0.000000   0.000000   0.000000)
  38:       483.74    0.000000  (  0.000000   0.000000   0.000000)
  39:       495.89    0.000000  (  0.000000   0.000000   0.000000)
  40:       517.63    0.000000  (  0.000000   0.000000   0.000000)
  41:       574.45    0.000000  (  0.000000   0.000000   0.000000)
  42:       587.80    0.000000  (  0.000000   0.000000   0.000000)
  43:       610.18    0.000000  (  0.000000   0.000000   0.000000)
  44:       660.08    0.000000  (  0.000000   0.000000   0.000000)
  45:       663.93    0.000000  (  0.000000   0.000000   0.000000)
  46:       687.91    0.000000  (  0.000000   0.000000   0.000000)
  47:       750.35    0.000000  (  0.000000   0.000000   0.000000)
  48:       761.97    0.000000  (  0.000000   0.000000   0.000000)
  49:       770.89    0.000000  (  0.000000   0.000000   0.000000)
  50:       772.78    0.000000  (  0.000000   0.000000   0.000000)
  51:       821.94    0.000000  (  0.000000   0.000000   0.000000)
  52:       825.36    0.000000  (  0.000000   0.000000   0.000000)
  53:       835.34    0.000000  (  0.000000   0.000000   0.000000)
  54:       855.60    0.000000  (  0.000000   0.000000   0.000000)
  55:       871.97    0.000000  (  0.000000   0.000000   0.000000)
  56:       912.31    0.000000  (  0.000000   0.000000   0.000000)
  57:       931.88    0.000000  (  0.000000   0.000000   0.000000)
  58:       934.41    0.000000  (  0.000000   0.000000   0.000000)
  59:       939.50    0.000000  (  0.000000   0.000000   0.000000)
  60:       941.86    0.000000  (  0.000000   0.000000   0.000000)
  61:       944.40    0.000000  (  0.000000   0.000000   0.000000)
  62:       947.00    0.000000  (  0.000000   0.000000   0.000000)
  63:       967.46    0.000000  (  0.000000   0.000000   0.000000)
  64:       986.05    0.000000  (  0.000000   0.000000   0.000000)
  65:      1009.26    0.000000  (  0.000000   0.000000   0.000000)
  66:      1031.31    0.000000  (  0.000000   0.000000   0.000000)
  67:      1047.51    0.000000  (  0.000000   0.000000   0.000000)
  68:      1070.32    0.000000  (  0.000000   0.000000   0.000000)
  69:      1078.34    0.000000  (  0.000000   0.000000   0.000000)
  70:      1094.65    0.000000  (  0.000000   0.000000   0.000000)
  71:      1101.54    0.000000  (  0.000000   0.000000   0.000000)
  72:      1104.16    0.000000  (  0.000000   0.000000   0.000000)
  73:      1116.11    0.000000  (  0.000000   0.000000   0.000000)
  74:      1125.64    0.000000  (  0.000000   0.000000   0.000000)
  75:      1128.15    0.000000  (  0.000000   0.000000   0.000000)
  76:      1132.18    0.000000  (  0.000000   0.000000   0.000000)
  77:      1178.94    0.000000  (  0.000000   0.000000   0.000000)
  78:      1182.12    0.000000  (  0.000000   0.000000   0.000000)
  79:      1182.51    0.000000  (  0.000000   0.000000   0.000000)
  80:      1204.33    0.000000  (  0.000000   0.000000   0.000000)
  81:      1207.37    0.000000  (  0.000000   0.000000   0.000000)
  82:      1214.91    0.000000  (  0.000000   0.000000   0.000000)
  83:      1242.90    0.000000  (  0.000000   0.000000   0.000000)
  84:      1248.86    0.000000  (  0.000000   0.000000   0.000000)
  85:      1254.91    0.000000  (  0.000000   0.000000   0.000000)
  86:      1274.07    0.000000  (  0.000000   0.000000   0.000000)
  87:      1276.18    0.000000  (  0.000000   0.000000   0.000000)
  88:      1277.59    0.000000  (  0.000000   0.000000   0.000000)
  89:      1282.19    0.000000  (  0.000000   0.000000   0.000000)
  90:      1295.41    0.000000  (  0.000000   0.000000   0.000000)
  91:      1296.98    0.000000  (  0.000000   0.000000   0.000000)
  92:      1309.87    0.000000  (  0.000000   0.000000   0.000000)
  93:      1331.14    0.000000  (  0.000000   0.000000   0.000000)
  94:      1345.50    0.000000  (  0.000000   0.000000   0.000000)
  95:      1354.04    0.000000  (  0.000000   0.000000   0.000000)
  96:      1363.90    0.000000  (  0.000000   0.000000   0.000000)
  97:      1367.07    0.000000  (  0.000000   0.000000   0.000000)
  98:      1379.28    0.000000  (  0.000000   0.000000   0.000000)
  99:      1420.25    0.000000  (  0.000000   0.000000   0.000000)
 100:      1428.47    0.000000  (  0.000000   0.000000   0.000000)
 101:      1429.25    0.000000  (  0.000000   0.000000   0.000000)
 102:      1445.24    0.000000  (  0.000000   0.000000   0.000000)
 103:      1451.87    0.000000  (  0.000000   0.000000   0.000000)
 104:      1468.44    0.000000  (  0.000000   0.000000   0.000000)
 105:      1492.26    0.000000  (  0.000000   0.000000   0.000000)
 106:      1503.78    0.000000  (  0.000000   0.000000   0.000000)
 107:      1504.56    0.000000  (  0.000000   0.000000   0.000000)
 108:      1506.22    0.000000  (  0.000000   0.000000   0.000000)
 109:      1507.52    0.000000  (  0.000000   0.000000   0.000000)
 110:      1508.65    0.000000  (  0.000000   0.000000   0.000000)
 111:      1510.01    0.000000  (  0.000000   0.000000   0.000000)
 112:      1510.79    0.000000  (  0.000000   0.000000   0.000000)
 113:      1512.74    0.000000  (  0.000000   0.000000   0.000000)
 114:      1531.67    0.000000  (  0.000000   0.000000   0.000000)
 115:      1560.31    0.000000  (  0.000000   0.000000   0.000000)
 116:      1564.86    0.000000  (  0.000000   0.000000   0.000000)
 117:      1629.16    0.000000  (  0.000000   0.000000   0.000000)
 118:      2684.75    0.000000  (  0.000000   0.000000   0.000000)
 119:      2880.96    0.000000  (  0.000000   0.000000   0.000000)
 120:      2932.32    0.000000  (  0.000000   0.000000   0.000000)
 121:      2944.91    0.000000  (  0.000000   0.000000   0.000000)
 122:      2947.24    0.000000  (  0.000000   0.000000   0.000000)
 123:      2958.56    0.000000  (  0.000000   0.000000   0.000000)
 124:      2962.64    0.000000  (  0.000000   0.000000   0.000000)
 125:      2966.36    0.000000  (  0.000000   0.000000   0.000000)
 126:      2970.03    0.000000  (  0.000000   0.000000   0.000000)
 127:      2975.24    0.000000  (  0.000000   0.000000   0.000000)
 128:      2976.97    0.000000  (  0.000000   0.000000   0.000000)
 129:      2978.93    0.000000  (  0.000000   0.000000   0.000000)
 130:      2982.42    0.000000  (  0.000000   0.000000   0.000000)
 131:      2985.23    0.000000  (  0.000000   0.000000   0.000000)
 132:      2985.99    0.000000  (  0.000000   0.000000   0.000000)
 133:      2991.78    0.000000  (  0.000000   0.000000   0.000000)
 134:      2998.00    0.000000  (  0.000000   0.000000   0.000000)
 135:      3001.93    0.000000  (  0.000000   0.000000   0.000000)
 136:      3013.65    0.000000  (  0.000000   0.000000   0.000000)
 137:      3046.60    0.000000  (  0.000000   0.000000   0.000000)
 138:      3062.65    0.000000  (  0.000000   0.000000   0.000000)
 139:      3066.01    0.000000  (  0.000000   0.000000   0.000000)
 140:      3071.94    0.000000  (  0.000000   0.000000   0.000000)
 141:      3079.40    0.000000  (  0.000000   0.000000   0.000000)
 142:      3090.18    0.000000  (  0.000000   0.000000   0.000000)
 143:      3097.68    0.000000  (  0.000000   0.000000   0.000000)
 144:      3407.13    0.000000  (  0.000000   0.000000   0.000000)
 145:      3612.78    0.000000  (  0.000000   0.000000   0.000000)
 146:      3638.55    0.000000  (  0.000000   0.000000   0.000000)

The first frequency considered to be a vibration is 7
The total number of vibrations considered is 140


--------------------------
THERMOCHEMISTRY AT 298.15K
--------------------------

Temperature         ... 298.15 K
Pressure            ... 1.00 atm
Total Mass          ... 270.42 AMU

Throughout the following assumptions are being made:
  (1) The electronic state is orbitally nondegenerate
  (2) There are no thermally accessible electronically excited states
  (3) Hindered rotations indicated by low frequency modes are not
      treated as such but are treated as vibrations and this may
      cause some error
  (4) All equations used are the standard statistical mechanics
      equations for an ideal gas
  (5) All vibrations are strictly harmonic

freq.      24.08  E(vib)   ...       0.56 
freq.      33.36  E(vib)   ...       0.55 
freq.      37.07  E(vib)   ...       0.54 
freq.      41.36  E(vib)   ...       0.54 
freq.      57.39  E(vib)   ...       0.51 
freq.      61.27  E(vib)   ...       0.51 
freq.      68.92  E(vib)   ...       0.50 
freq.      80.34  E(vib)   ...       0.49 
freq.      86.42  E(vib)   ...       0.48 
freq.      89.13  E(vib)   ...       0.47 
freq.      98.47  E(vib)   ...       0.46 
freq.     112.39  E(vib)   ...       0.45 
freq.     123.79  E(vib)   ...       0.43 
freq.     137.28  E(vib)   ...       0.42 
freq.     142.81  E(vib)   ...       0.41 
freq.     151.19  E(vib)   ...       0.40 
freq.     174.29  E(vib)   ...       0.38 
freq.     189.04  E(vib)   ...       0.36 
freq.     213.69  E(vib)   ...       0.34 
freq.     243.53  E(vib)   ...       0.31 
freq.     264.17  E(vib)   ...       0.29 
freq.     269.75  E(vib)   ...       0.29 
freq.     272.93  E(vib)   ...       0.29 
freq.     275.52  E(vib)   ...       0.28 
freq.     307.39  E(vib)   ...       0.26 
freq.     356.57  E(vib)   ...       0.22 
freq.     374.69  E(vib)   ...       0.21 
freq.     392.59  E(vib)   ...       0.20 
freq.     410.48  E(vib)   ...       0.19 
freq.     430.27  E(vib)   ...       0.18 
freq.     450.72  E(vib)   ...       0.17 
freq.     483.74  E(vib)   ...       0.15 
freq.     495.89  E(vib)   ...       0.14 
freq.     517.63  E(vib)   ...       0.13 
freq.     574.45  E(vib)   ...       0.11 
freq.     587.80  E(vib)   ...       0.10 
freq.     610.18  E(vib)   ...       0.10 
freq.     660.08  E(vib)   ...       0.08 
freq.     663.93  E(vib)   ...       0.08 
freq.     687.91  E(vib)   ...       0.07 
freq.     750.35  E(vib)   ...       0.06 
freq.     761.97  E(vib)   ...       0.06 
freq.     770.89  E(vib)   ...       0.05 
freq.     772.78  E(vib)   ...       0.05 
freq.     821.94  E(vib)   ...       0.05 
freq.     825.36  E(vib)   ...       0.04 
freq.     835.34  E(vib)   ...       0.04 
freq.     855.60  E(vib)   ...       0.04 
freq.     871.97  E(vib)   ...       0.04 
freq.     912.31  E(vib)   ...       0.03 
freq.     931.88  E(vib)   ...       0.03 
freq.     934.41  E(vib)   ...       0.03 
freq.     939.50  E(vib)   ...       0.03 
freq.     941.86  E(vib)   ...       0.03 
freq.     944.40  E(vib)   ...       0.03 
freq.     947.00  E(vib)   ...       0.03 
freq.     967.46  E(vib)   ...       0.03 
freq.     986.05  E(vib)   ...       0.02 
freq.    1009.26  E(vib)   ...       0.02 
freq.    1031.31  E(vib)   ...       0.02 
freq.    1047.51  E(vib)   ...       0.02 
freq.    1070.32  E(vib)   ...       0.02 
freq.    1078.34  E(vib)   ...       0.02 
freq.    1094.65  E(vib)   ...       0.02 
freq.    1101.54  E(vib)   ...       0.02 
freq.    1104.16  E(vib)   ...       0.02 
freq.    1116.11  E(vib)   ...       0.01 
freq.    1125.64  E(vib)   ...       0.01 
freq.    1128.15  E(vib)   ...       0.01 
freq.    1132.18  E(vib)   ...       0.01 
freq.    1178.94  E(vib)   ...       0.01 
freq.    1182.12  E(vib)   ...       0.01 
freq.    1182.51  E(vib)   ...       0.01 
freq.    1204.33  E(vib)   ...       0.01 
freq.    1207.37  E(vib)   ...       0.01 
freq.    1214.91  E(vib)   ...       0.01 
freq.    1242.90  E(vib)   ...       0.01 
freq.    1248.86  E(vib)   ...       0.01 
freq.    1254.91  E(vib)   ...       0.01 
freq.    1274.07  E(vib)   ...       0.01 
freq.    1276.18  E(vib)   ...       0.01 
freq.    1277.59  E(vib)   ...       0.01 
freq.    1282.19  E(vib)   ...       0.01 
freq.    1295.41  E(vib)   ...       0.01 
freq.    1296.98  E(vib)   ...       0.01 
freq.    1309.87  E(vib)   ...       0.01 
freq.    1331.14  E(vib)   ...       0.01 
freq.    1345.50  E(vib)   ...       0.01 
freq.    1354.04  E(vib)   ...       0.01 
freq.    1363.90  E(vib)   ...       0.01 
freq.    1367.07  E(vib)   ...       0.01 
freq.    1379.28  E(vib)   ...       0.01 
freq.    1420.25  E(vib)   ...       0.00 
freq.    1428.47  E(vib)   ...       0.00 
freq.    1429.25  E(vib)   ...       0.00 
freq.    1445.24  E(vib)   ...       0.00 
freq.    1451.87  E(vib)   ...       0.00 
freq.    1468.44  E(vib)   ...       0.00 
freq.    1492.26  E(vib)   ...       0.00 
freq.    1503.78  E(vib)   ...       0.00 
freq.    1504.56  E(vib)   ...       0.00 
freq.    1506.22  E(vib)   ...       0.00 
freq.    1507.52  E(vib)   ...       0.00 
freq.    1508.65  E(vib)   ...       0.00 
freq.    1510.01  E(vib)   ...       0.00 
freq.    1510.79  E(vib)   ...       0.00 
freq.    1512.74  E(vib)   ...       0.00 
freq.    1531.67  E(vib)   ...       0.00 
freq.    1560.31  E(vib)   ...       0.00 
freq.    1564.86  E(vib)   ...       0.00 
freq.    1629.16  E(vib)   ...       0.00 
freq.    2684.75  E(vib)   ...       0.00 
freq.    2880.96  E(vib)   ...       0.00 
freq.    2932.32  E(vib)   ...       0.00 
freq.    2944.91  E(vib)   ...       0.00 
freq.    2947.24  E(vib)   ...       0.00 
freq.    2958.56  E(vib)   ...       0.00 
freq.    2962.64  E(vib)   ...       0.00 
freq.    2966.36  E(vib)   ...       0.00 
freq.    2970.03  E(vib)   ...       0.00 
freq.    2975.24  E(vib)   ...       0.00 
freq.    2976.97  E(vib)   ...       0.00 
freq.    2978.93  E(vib)   ...       0.00 
freq.    2982.42  E(vib)   ...       0.00 
freq.    2985.23  E(vib)   ...       0.00 
freq.    2985.99  E(vib)   ...       0.00 
freq.    2991.78  E(vib)   ...       0.00 
freq.    2998.00  E(vib)   ...       0.00 
freq.    3001.93  E(vib)   ...       0.00 
freq.    3013.65  E(vib)   ...       0.00 
freq.    3046.60  E(vib)   ...       0.00 
freq.    3062.65  E(vib)   ...       0.00 
freq.    3066.01  E(vib)   ...       0.00 
freq.    3071.94  E(vib)   ...       0.00 
freq.    3079.40  E(vib)   ...       0.00 
freq.    3090.18  E(vib)   ...       0.00 
freq.    3097.68  E(vib)   ...       0.00 
freq.    3407.13  E(vib)   ...       0.00 
freq.    3612.78  E(vib)   ...       0.00 
freq.    3638.55  E(vib)   ...       0.00 

------------
INNER ENERGY
------------

The inner energy is: U= E(el) + E(ZPE) + E(vib) + E(rot) + E(trans)
    E(el)   - is the total energy from the electronic structure calculation
              = E(kin-el) + E(nuc-el) + E(el-el) + E(nuc-nuc)
    E(ZPE)  - the the zero temperature vibrational energy from the frequency calculation
    E(vib)  - the the finite temperature correction to E(ZPE) due to population
              of excited vibrational states
    E(rot)  - is the rotational thermal energy
    E(trans)- is the translational thermal energy

Summary of contributions to the inner energy U:
Electronic energy                ...    -61.35157781 Eh
Zero point energy                ...      0.42130089 Eh     264.37 kcal/mol
Thermal vibrational correction   ...      0.02194951 Eh      13.77 kcal/mol
Thermal rotational correction    ...      0.00141627 Eh       0.89 kcal/mol
Thermal translational correction ...      0.00141627 Eh       0.89 kcal/mol
-----------------------------------------------------------------------
Total thermal energy                    -60.90549487 Eh


Summary of corrections to the electronic energy:
(perhaps to be used in another calculation)
Total thermal correction                  0.02478206 Eh      15.55 kcal/mol
Non-thermal (ZPE) correction              0.42130089 Eh     264.37 kcal/mol
-----------------------------------------------------------------------
Total correction                          0.44608294 Eh     279.92 kcal/mol


--------
ENTHALPY
--------

The enthalpy is H = U + kB*T
                kB is Boltzmann's constant
Total free energy                 ...    -60.90549487 Eh 
Thermal Enthalpy correction       ...      0.00094421 Eh       0.59 kcal/mol
-----------------------------------------------------------------------
Total Enthalpy                    ...    -60.90455066 Eh


Note: Only C1 symmetry has been detected, increase convergence thresholds 
      if your molecule has a higher symmetry. Symmetry factor of 1.0 is   
      used for the rotational entropy correction. 
 

Note: Rotational entropy computed according to Herzberg 
Infrared and Raman Spectra, Chapter V,1, Van Nostrand Reinhold, 1945 
Point Group:  C1, Symmetry Number:   1  
Rotational constants in cm-1:     0.013190     0.005954     0.005059 

Vibrational entropy computed according to the QRRHO of S. Grimme
Chem.Eur.J. 2012 18 9955


-------
ENTROPY
-------

The entropy contributions are T*S = T*(S(el)+S(vib)+S(rot)+S(trans))
     S(el)   - electronic entropy
     S(vib)  - vibrational entropy
     S(rot)  - rotational entropy
     S(trans)- translational entropy
The entropies will be listed as mutliplied by the temperature to get
units of energy

Electronic entropy                ...      0.00000000 Eh      0.00 kcal/mol
Vibrational entropy               ...      0.04006932 Eh     25.14 kcal/mol
Rotational entropy                ...      0.01646874 Eh     10.33 kcal/mol
Translational entropy             ...      0.02028014 Eh     12.73 kcal/mol
-----------------------------------------------------------------------
Final entropy term                ...      0.07681821 Eh     48.20 kcal/mol

In case the symmetry of your molecule has not been determined correctly
or in case you have a reason to use a different symmetry number we print 
out the resulting rotational entropy values for sn=1,12 :
 --------------------------------------------------------
|  sn= 1 | S(rot)=       0.01646874 Eh     10.33 kcal/mol|
|  sn= 2 | S(rot)=       0.01581429 Eh      9.92 kcal/mol|
|  sn= 3 | S(rot)=       0.01543146 Eh      9.68 kcal/mol|
|  sn= 4 | S(rot)=       0.01515983 Eh      9.51 kcal/mol|
|  sn= 5 | S(rot)=       0.01494914 Eh      9.38 kcal/mol|
|  sn= 6 | S(rot)=       0.01477700 Eh      9.27 kcal/mol|
|  sn= 7 | S(rot)=       0.01463145 Eh      9.18 kcal/mol|
|  sn= 8 | S(rot)=       0.01450537 Eh      9.10 kcal/mol|
|  sn= 9 | S(rot)=       0.01439417 Eh      9.03 kcal/mol|
|  sn=10 | S(rot)=       0.01429469 Eh      8.97 kcal/mol|
|  sn=11 | S(rot)=       0.01420470 Eh      8.91 kcal/mol|
|  sn=12 | S(rot)=       0.01412254 Eh      8.86 kcal/mol|
 --------------------------------------------------------


-------------------
GIBBS FREE ENERGY
-------------------

The Gibbs free energy is G = H - T*S

Total enthalpy                    ...    -60.90455066 Eh 
Total entropy correction          ...     -0.07681821 Eh    -48.20 kcal/mol
-----------------------------------------------------------------------
Final Gibbs free energy         ...    -60.98136887 Eh

For completeness - the Gibbs free energy minus the electronic energy
G-E(el)                           ...      0.37020894 Eh    232.31 kcal/mol


Total Time for Numerical Frequencies  :       252.475 sec
Time for Reference State(s)           :         0.345 sec
Time for Displacements                :       217.823 sec

Timings for individual modules:

Sum of individual times         ...        0.656 sec (=   0.011 min)
XTB module                      ...        0.656 sec (=   0.011 min) 100.0 %
                             ****ORCA TERMINATED NORMALLY****
TOTAL RUN TIME: 0 days 0 hours 4 minutes 13 seconds 580 msec
(SLURM) EXECUTION TIME: 253.629469821 seconds.
