SLURM_JOB_ID=99

                                 *****************
                                 * O   R   C   A *
                                 *****************

           --- An Ab Initio, DFT and Semiempirical electronic structure package ---

                  #######################################################
                  #                        -***-                        #
                  #          Department of theory and spectroscopy      #
                  #               Directorship: Frank Neese             #
                  #        Max Planck Institute fuer Kohlenforschung    #
                  #                Kaiser Wilhelm Platz 1               #
                  #                 D-45470 Muelheim/Ruhr               #
                  #                      Germany                        #
                  #                                                     #
                  #                  All rights reserved                #
                  #                        -***-                        #
                  #######################################################


                         Program Version 4.2.1 -  RELEASE  -


 With contributions from (in alphabetic order):
   Daniel Aravena         : Magnetic Suceptibility
   Michael Atanasov       : Ab Initio Ligand Field Theory (pilot matlab implementation)
   Alexander A. Auer      : GIAO ZORA, VPT2
   Ute Becker             : Parallelization
   Giovanni Bistoni       : ED, misc. LED, open-shell LED, HFLD
   Martin Brehm           : Molecular dynamics
   Dmytro Bykov           : SCF Hessian
   Vijay G. Chilkuri      : MRCI spin determinant printing, contributions to CSF-ICE
   Dipayan Datta          : RHF DLPNO-CCSD density
   Achintya Kumar Dutta   : EOM-CC, STEOM-CC
   Dmitry Ganyushin       : Spin-Orbit,Spin-Spin,Magnetic field MRCI
   Miquel Garcia          : C-PCM Hessian, Gaussian charge scheme
   Yang Guo               : DLPNO-NEVPT2, CIM, IAO-localization
   Andreas Hansen         : Spin unrestricted coupled pair/coupled cluster methods
   Benjamin Helmich-Paris : CASSCF linear response (MC-RPA)
   Lee Huntington         : MR-EOM, pCC
   Robert Izsak           : Overlap fitted RIJCOSX, COSX-SCS-MP3, EOM
   Christian Kollmar      : KDIIS, OOCD, Brueckner-CCSD(T), CCSD density
   Simone Kossmann        : Meta GGA functionals, TD-DFT gradient, OOMP2, MP2 Hessian
   Martin Krupicka        : AUTO-CI
   Lucas Lang             : DCDCAS
   Dagmar Lenk            : GEPOL surface, SMD
   Dimitrios Liakos       : Extrapolation schemes; Compound Job, initial MDCI parallelization
   Dimitrios Manganas     : Further ROCIS development; embedding schemes
   Dimitrios Pantazis     : SARC Basis sets
   Taras Petrenko         : DFT Hessian,TD-DFT gradient, ASA, ECA, R-Raman, ABS, FL, XAS/XES, NRVS
   Peter Pinski           : DLPNO-MP2, DLPNO-MP2 Gradient
   Christoph Reimann      : Effective Core Potentials
   Marius Retegan         : Local ZFS, SOC
   Christoph Riplinger    : Optimizer, TS searches, QM/MM, DLPNO-CCSD(T), (RO)-DLPNO pert. Triples
   Tobias Risthaus        : Range-separated hybrids, TD-DFT gradient, RPA, STAB
   Michael Roemelt        : Original ROCIS implementation
   Masaaki Saitow         : Open-shell DLPNO-CCSD energy and density
   Barbara Sandhoefer     : DKH picture change effects
   Avijit Sen             : IP-ROCIS
   Kantharuban Sivalingam : CASSCF convergence, NEVPT2, FIC-MRCI
   Bernardo de Souza      : ESD, SOC TD-DFT
   Georgi Stoychev        : AutoAux, RI-MP2 NMR
   Willem Van den Heuvel  : Paramagnetic NMR
   Boris Wezisla          : Elementary symmetry handling
   Frank Wennmohs         : Technical directorship


 We gratefully acknowledge several colleagues who have allowed us to
 interface, adapt or use parts of their codes:
   Stefan Grimme, W. Hujo, H. Kruse,             : VdW corrections, initial TS optimization,
                  C. Bannwarth                     DFT functionals, gCP, sTDA/sTD-DF
   Ed Valeev, F. Pavosevic, A. Kumar             : LibInt (2-el integral package), F12 methods
   Garnet Chan, S. Sharma, J. Yang, R. Olivares  : DMRG
   Ulf Ekstrom                                   : XCFun DFT Library
   Mihaly Kallay                                 : mrcc  (arbitrary order and MRCC methods)
   Andreas Klamt, Michael Diedenhofen            : otool_cosmo (COSMO solvation model)
   Jiri Pittner, Ondrej Demel                    : Mk-CCSD
   Frank Weinhold                                : gennbo (NPA and NBO analysis)
   Christopher J. Cramer and Donald G. Truhlar   : smd solvation model
   Lars Goerigk                                  : TD-DFT with DH, B97 family of functionals
   V. Asgeirsson, H. Jonsson                     : NEB implementation
   FAccTs GmbH                                   : IRC, NEB, NEB-TS, Multilevel, MM, QM/MM, CI optimization
   S Lehtola, MJT Oliveira, MAL Marques          : LibXC Library


 Your calculation uses the libint2 library for the computation of 2-el integrals
 For citations please refer to: http://libint.valeyev.net

 Your ORCA version has been built with support for libXC version: 4.2.3
 For citations please refer to: https://tddft.org/programs/libxc/

 This ORCA versions uses:
   CBLAS   interface :  Fast vector & matrix operations
   LAPACKE interface :  Fast linear algebra routines
   SCALAPACK package :  Parallel linear algebra routines




***************************************
The coordinates will be read from file: init.xyz
***************************************


Your calculation utilizes the SMD solvation module
Please cite in your paper:
A.V. Marenich, C.J. Cramer, D.G. Truhlar J. Phys. Chem. B, 113, (2009), 6378 

Your calculation utilizes the semiempirical GFN2-xTB method
Please cite in your paper:
C. Bannwarth, Ehlert S., S. Grimme,  J. Chem. Theory Comput., 15, (2019), 1652.
   

----- Orbital basis set information -----
Your calculation utilizes the basis: def2-SVP
   F. Weigend and R. Ahlrichs, Phys. Chem. Chem. Phys. 7, 3297 (2005).

================================================================================
                                        WARNINGS
                       Please study these warnings very carefully!
================================================================================

WARNING: Gradients needed for Numerical Frequencies
  ===> : Setting RunTyp to EnGrad

WARNING: The environment variable RSH_COMMAND is not set!
  ===> : All Displacements for the Numerical Hessian calculation
         will be started on localhost

WARNING: Found dipole moment calculation with XTB calculation
  ===> : Switching off dipole moment calculation


INFO   : the flag for use of LIBINT has been found!

================================================================================
                                       INPUT FILE
================================================================================
NAME = /tmp/slurm-scratch/freq.99/freq.inp
|  1> ! XTB2 NumFreq
|  2> %maxcore 2000
|  3> 
|  4> * xyzfile 0 1 init.xyz
|  5> 
|  6> %cpcm
|  7>  smd true
|  8>  smdsolvent "ch2cl2"
|  9> end
| 10> %pal nprocs 11 end
| 11> 
| 12>                          ****END OF INPUT****
================================================================================

                     *******************************
                     * Energy+Gradient Calculation *
                     *******************************

      -----------------------------------------------------------      
     |                   =====================                   |     
     |                           x T B                           |     
     |                   =====================                   |     
     |                         S. Grimme                         |     
     |          Mulliken Center for Theoretical Chemistry        |     
     |                    University of Bonn                     |     
      -----------------------------------------------------------      

   * xtb version 6.3.1 (461a024) compiled by 'schneider@apollo14' on 2020-06-26

   xtb is free software: you can redistribute it and/or modify it under
   the terms of the GNU Lesser General Public License as published by
   the Free Software Foundation, either version 3 of the License, or
   (at your option) any later version.
   
   xtb is distributed in the hope that it will be useful,
   but WITHOUT ANY WARRANTY; without even the implied warranty of
   MERCHANTABILITY or FITNESS FOR A PARTICULAR PURPOSE.  See the
   GNU Lesser General Public License for more details.
   
   Cite this work as:
   * S. Grimme, C. Bannwarth, P. Shushkov, J. Chem. Theory Comput., 2017,
     13, 1989-2009. DOI: 10.1021/acs.jctc.7b00118
   * C. Bannwarth, S. Ehlert and S. Grimme., J. Chem. Theory Comput., 2019,
     15, 1652-1671. DOI: 10.1021/acs.jctc.8b01176
   * P. Pracht, E. Caldeweyher, S. Ehlert, S. Grimme, ChemRxiv, 2019, preprint.
     DOI: 10.26434/chemrxiv.8326202.v1
   
   for GFN-FF:
   * S. Spicher and S. Grimme, Angew. Chem. Int. Ed., 2020,
     DOI: 10.1002/anie.202004239
   
   for DFT-D4:
   * E. Caldeweyher, C. Bannwarth and S. Grimme, J. Chem. Phys., 2017,
     147, 034112. DOI: 10.1063/1.4993215
   * E. Caldeweyher, S. Ehlert, A. Hansen, H. Neugebauer, S. Spicher,
     C. Bannwarth and S. Grimme, J. Chem. Phys., 2019, 150, 154122.
     DOI: 10.1063/1.5090222
   
   for sTDA-xTB:
   * S. Grimme and C. Bannwarth, J. Chem. Phys., 2016, 145, 054103.
     DOI: 10.1063/1.4959605
   
   in the mass-spec context:
   * V. Asgeirsson, C. Bauer and S. Grimme, Chem. Sci., 2017, 8, 4879.
     DOI: 10.1039/c7sc00601b
   * J. Koopman and S. Grimme, ACS Omega 2019, 4, 12, 15120-15133.
     DOI: 10.1021/acsomega.9b02011
   
   for metadynamics refer to:
   * S. Grimme, J. Chem. Theory Comput., 2019, 155, 2847-2862
     DOI: 10.1021/acs.jctc.9b00143
   
   with help from (in alphabetical order)
   C. Bannwarth, F. Bohle, G. Brandenburg, E. Caldeweyher, M. Checinski,
   S. Dohm, S. Ehlert, S. Ehrlich, F. März, H. Neugebauer, J. Pisarek,
   P. Pracht, P. Shushkov, and S. Spicher.
   
 * started run on 2020/08/05 at 12:18:26.230     

           -------------------------------------------------
          |                Calculation Setup                |
           -------------------------------------------------

          program call               : /opt/orca/otool_xtb /tmp/slurm-scratch/freq.99/freq_XTB.xyz --grad -c 0 -u 0 -P 11 --namespace /tmp/slurm-scratch/freq.99/freq --gbsa CH2Cl2
          hostname                   : apollo14
          calculation namespace      : /tmp/slurm-scratch/freq.99/freq
          coordinate file            : /tmp/slurm-scratch/freq.99/freq_XTB.xyz
          omp threads                :                    11
          number of atoms            :                    49
          number of electrons        :                   112
          charge                     :                     0
          spin                       :                   0.0
          first test random number   :      0.50470771073094

   ID    Z sym.   atoms
    1    6 C      1-7, 12, 14, 28, 31, 36, 39, 42, 45
    2    1 H      8-10, 13, 15-18, 21-27, 29, 30, 32-35, 37, 38, 40, 41, 43,
                  44, 46-48
    3    7 N      11, 49
    4    8 O      19, 20

molecular fragmentation (1/2 indicates fragments):
1111111111111111111222211111111111222222222222222
# atoms in fragment 1/2:    30    19
 fragment masses (1/2) :      179.26       91.15
CMA distance (Bohr)    :   6.056
constraining FC (au)   :  0.0500
########################################################################
[WARNING] Please study the warnings concerning your input carefully
-1- prog_main_parseArguments: Process number higher than OMP_NUM_THREADS, I hope you know what you are doing.
########################################################################

           -------------------------------------------------
          |                 G F N 2 - x T B                 |
           -------------------------------------------------

        Reference                      10.1021/acs.jctc.8b01176
      * Hamiltonian:
        H0-scaling (s, p, d)           1.850000    2.230000    2.230000
        zeta-weighting                 0.500000
      * Dispersion:
        s8                             2.700000
        a1                             0.520000
        a2                             5.000000
        s9                             5.000000
      * Repulsion:
        kExp                           1.500000    1.000000
        rExp                           1.000000
      * Coulomb:
        alpha                          2.000000
        third order                    shell-resolved
        anisotropic                    true
        a3                             3.000000
        a5                             4.000000
        cn-shift                       1.200000
        cn-exp                         4.000000
        max-rad                        5.000000

      * Solvation model:               GBSA
        Solvent                        CH2Cl2
        Parameter file                 internal GFN2-xTB/GBSA
        Dielectric constant                8.9300E+00
        Reference state                gsolv [1 M gas/solution]
        Free energy shift                  4.4408E-03 Eh       2.7867E+00 kcal/mol
        Temperature                        2.9815E+02 K
        Density                            1.3300E+00 kg/L
        Solvent mass                       8.4930E+01 g/mol
        Interaction kernel             Still
        Born radius scaling (c1)           1.4917E+00
        Born radii integrator          GBOBC
        Born offset                        0.0000E+00 a0       0.0000E+00 AA
        H-bond correction              false
        Ion screening                  false
        Surface tension                    1.0000E-05 Eh       1.5569E+01 dyn/cm
        Grid points                               230 per atom

          ...................................................
          :                      SETUP                      :
          :.................................................:
          :  # basis functions                 106          :
          :  # atomic orbitals                 106          :
          :  # shells                           68          :
          :  # electrons                       112          :
          :  max. iterations                   250          :
          :  Hamiltonian                  GFN2-xTB          :
          :  restarted?                      false          :
          :  GBSA solvation                   true          :
          :  PC potential                    false          :
          :  electronic temp.          300.0000000     K    :
          :  accuracy                    1.0000000          :
          :  -> integral cutoff          0.2500000E+02      :
          :  -> integral neglect         0.1000000E-07      :
          :  -> SCF convergence          0.1000000E-05 Eh   :
          :  -> wf. convergence          0.1000000E-03 e    :
          :  Broyden damping             0.4000000          :
          ...................................................

 iter      E             dE          RMSdq      gap      omega  full diag
   1    -62.0538039 -0.620538E+02  0.352E+00    3.78       0.0  T
   2    -62.1772665 -0.123463E+00  0.196E+00    3.57       1.0  T
   3    -62.1807965 -0.353004E-02  0.861E-01    2.94       1.0  T
   4    -62.1817519 -0.955406E-03  0.352E-01    2.83       1.0  T
   5    -62.1863901 -0.463822E-02  0.814E-02    2.96       1.0  T
   6    -62.1864437 -0.535604E-04  0.385E-02    3.01       1.0  T
   7    -62.1864583 -0.145624E-04  0.158E-02    3.01       1.0  T
   8    -62.1864609 -0.260806E-05  0.615E-03    3.01       2.3  T
   9    -62.1864615 -0.623110E-06  0.256E-03    3.01       5.6  T
  10    -62.1864615 -0.390698E-07  0.118E-03    3.01      12.2  T
  11    -62.1864615 -0.107385E-07  0.619E-04    3.01      23.1  T
  12    -62.1864615 -0.467033E-08  0.146E-04    3.01      97.9  T

   *** convergence criteria satisfied after 12 iterations ***

         #    Occupation            Energy/Eh            Energy/eV
      -------------------------------------------------------------
         1        2.0000           -0.6754629             -18.3803
       ...           ...                  ...                  ...
        50        2.0000           -0.4254844             -11.5780
        51        2.0000           -0.4195089             -11.4154
        52        2.0000           -0.4101756             -11.1614
        53        2.0000           -0.4041354             -10.9971
        54        2.0000           -0.3999206             -10.8824
        55        2.0000           -0.3507912              -9.5455
        56        2.0000           -0.3388006              -9.2192 (HOMO)
        57                         -0.2281450              -6.2081 (LUMO)
        58                         -0.2248967              -6.1198
        59                         -0.1031577              -2.8071
        60                         -0.0609749              -1.6592
        61                         -0.0241987              -0.6585
       ...                                ...                  ...
       106                          0.6437660              17.5178
      -------------------------------------------------------------
                  HL-Gap            0.1106555 Eh            3.0111 eV
             Fermi-level           -0.2834728 Eh           -7.7137 eV

 SCC (total)                   0 d,  0 h,  0 min,  0.175 sec
 SCC setup                      ...        0 min,  0.011 sec (  6.352%)
 Dispersion                     ...        0 min,  0.008 sec (  4.817%)
 classical contributions        ...        0 min,  0.008 sec (  4.632%)
 integral evaluation            ...        0 min,  0.017 sec (  9.689%)
 iterations                     ...        0 min,  0.056 sec ( 32.145%)
 molecular gradient             ...        0 min,  0.074 sec ( 42.152%)
 printout                       ...        0 min,  0.000 sec (  0.199%)

         :::::::::::::::::::::::::::::::::::::::::::::::::::::
         ::                     SUMMARY                     ::
         :::::::::::::::::::::::::::::::::::::::::::::::::::::
         :: total energy             -61.371887904120 Eh    ::
         :: total w/o Gsasa/hb       -61.350134835867 Eh    ::
         :: gradient norm              0.034827382115 Eh/a0 ::
         :: HOMO-LUMO gap              3.011090770799 eV    ::
         ::.................................................::
         :: SCC energy               -62.186461536602 Eh    ::
         :: -> isotropic ES            0.154464519771 Eh    ::
         :: -> anisotropic ES         -0.005279238609 Eh    ::
         :: -> anisotropic XC          0.029289447825 Eh    ::
         :: -> dispersion             -0.044909887916 Eh    ::
         :: -> Gsolv                  -0.044786570921 Eh    ::
         ::    -> Gborn               -0.023033502668 Eh    ::
         ::    -> Gsasa               -0.026193897426 Eh    ::
         ::    -> Ghb                  0.000000000000 Eh    ::
         ::    -> Gshift               0.004440829173 Eh    ::
         :: repulsion energy           0.813383423375 Eh    ::
         :: add. restraining           0.000000000000 Eh    ::
         :::::::::::::::::::::::::::::::::::::::::::::::::::::

           -------------------------------------------------
          |                Property Printout                |
           -------------------------------------------------

    * Orbital Energies and Occupations

         #    Occupation            Energy/Eh            Energy/eV
      -------------------------------------------------------------
         1        2.0000           -0.6754629             -18.3803
       ...           ...                  ...                  ...
        44        2.0000           -0.4451466             -12.1131
        45        2.0000           -0.4432924             -12.0626
        46        2.0000           -0.4408997             -11.9975
        47        2.0000           -0.4299971             -11.7008
        48        2.0000           -0.4282281             -11.6527
        49        2.0000           -0.4276337             -11.6365
        50        2.0000           -0.4254844             -11.5780
        51        2.0000           -0.4195089             -11.4154
        52        2.0000           -0.4101756             -11.1614
        53        2.0000           -0.4041354             -10.9971
        54        2.0000           -0.3999206             -10.8824
        55        2.0000           -0.3507912              -9.5455
        56        2.0000           -0.3388006              -9.2192 (HOMO)
        57                         -0.2281450              -6.2081 (LUMO)
        58                         -0.2248967              -6.1198
        59                         -0.1031577              -2.8071
        60                         -0.0609749              -1.6592
        61                         -0.0241987              -0.6585
        62                          0.0318539               0.8668
        63                          0.0447133               1.2167
        64                          0.0652618               1.7759
        65                          0.0671860               1.8282
        66                          0.0822086               2.2370
        67                          0.0926826               2.5220
       ...                                ...                  ...
       106                          0.6437660              17.5178
      -------------------------------------------------------------
                  HL-Gap            0.1106555 Eh            3.0111 eV
             Fermi-level           -0.2834728 Eh           -7.7137 eV

     #   Z        covCN         q      C6AA      α(0)
     1   6 C      2.961    -0.031    28.764     8.797
     2   6 C      2.919    -0.046    29.145     8.853
     3   6 C      2.914    -0.034    28.837     8.806
     4   6 C      2.915    -0.036    28.884     8.813
     5   6 C      2.914    -0.034    28.857     8.809
     6   6 C      2.920    -0.032    28.786     8.798
     7   6 C      3.652     0.215    17.499     6.008
     8   1 H      0.925     0.018     2.769     2.602
     9   1 H      0.926     0.044     2.394     2.419
    10   1 H      0.925     0.038     2.472     2.459
    11   7 N      3.134    -0.252    26.526     7.649
    12   6 C      3.734     0.012    20.461     6.456
    13   1 H      1.182     0.245     0.890     1.473
    14   6 C      3.802    -0.071    21.862     6.657
    15   1 H      0.924     0.041     2.439     2.442
    16   1 H      0.924     0.037     2.493     2.469
    17   1 H      0.925     0.058     2.227     2.334
    18   1 H      0.924     0.037     2.483     2.464
    19   8 O      0.871    -0.728    29.466     7.278
    20   8 O      1.594    -0.672    26.992     7.011
    21   1 H      0.805     0.327     0.646     1.262
    22   1 H      0.805     0.267     0.830     1.431
    23   1 H      0.859     0.236     0.939     1.518
    24   1 H      0.921    -0.049     4.057     3.150
    25   1 H      0.860     0.166     1.297     1.784
    26   1 H      0.925     0.040     2.455     2.450
    27   1 H      0.925     0.035     2.522     2.484
    28   6 C      3.800    -0.055    21.556     6.610
    29   1 H      0.924     0.037     2.487     2.466
    30   1 H      0.924     0.032     2.564     2.504
    31   6 C      3.750    -0.105    22.576     6.776
    32   1 H      0.924     0.035     2.514     2.479
    33   1 H      0.924     0.040     2.449     2.447
    34   1 H      0.924     0.040     2.452     2.449
    35   1 H      0.860     0.202     1.098     1.641
    36   6 C      3.732    -0.013    20.894     6.524
    37   1 H      0.925     0.066     2.133     2.284
    38   1 H      0.924     0.066     2.131     2.283
    39   6 C      3.802    -0.074    21.907     6.664
    40   1 H      0.924     0.044     2.399     2.422
    41   1 H      0.924     0.055     2.263     2.353
    42   6 C      3.801    -0.057    21.601     6.617
    43   1 H      0.924     0.039     2.463     2.454
    44   1 H      0.924     0.043     2.414     2.430
    45   6 C      3.750    -0.106    22.590     6.779
    46   1 H      0.924     0.037     2.487     2.466
    47   1 H      0.924     0.041     2.442     2.444
    48   1 H      0.924     0.041     2.442     2.444
    49   7 N      3.339    -0.238    26.208     7.603

 Mol. C6AA /au·bohr⁶  :      19027.460142
 Mol. C8AA /au·bohr⁸  :     413031.615959
 Mol. α(0) /au        :        209.816839


Wiberg/Mayer (AO) data.
largest (>0.10) Wiberg bond orders for each atom
          total WBO             WBO to atom ...
     1  C   3.982        C    6 1.423    C    2 1.407    C    7 0.946    C    4 0.111
     2  C   3.991        C    3 1.450    C    1 1.407    H    8 0.965    C    5 0.112
     3  C   3.991        C    2 1.450    C    4 1.430    H   26 0.970    C    6 0.110
     4  C   3.991        C    5 1.445    C    3 1.430    H   10 0.971    C    1 0.111
     5  C   3.991        C    4 1.445    C    6 1.434    H   27 0.971    C    2 0.112
     6  C   3.990        C    5 1.434    C    1 1.423    H    9 0.964    C    3 0.110
     7  C   3.958        O   19 1.188    C    1 0.946    H   24 0.929    N   11 0.840
     8  H   1.000        C    2 0.965
     9  H   0.998        C    6 0.964
    10  H   0.998        C    4 0.971
    11  N   3.440        C   12 0.985    H   25 0.945    C    7 0.840    H   13 0.393    N   49 0.134
    12  C   3.970        C   14 1.007    N   11 0.985    H   15 0.975    H   16 0.970
    13  H   0.940        N   49 0.522    N   11 0.393
    14  C   3.993        C   12 1.007    C   28 1.006    H   18 0.974    H   17 0.971
    15  H   0.998        C   12 0.975
    16  H   0.998        C   12 0.970
    17  H   0.997        C   14 0.971
    18  H   0.999        C   14 0.974
    19  O   1.594        C    7 1.188    H   21 0.154
    20  O   1.812        H   22 0.926    H   21 0.729
    21  H   0.893        O   20 0.729    O   19 0.154
    22  H   0.929        O   20 0.926
    23  H   0.944        N   49 0.877
    24  H   0.997        C    7 0.929
    25  H   0.972        N   11 0.945
    26  H   0.998        C    3 0.970
    27  H   0.998        C    5 0.971
    28  C   3.996        C   31 1.020    C   14 1.006    H   30 0.978    H   29 0.977
    29  H   0.999        C   28 0.977
    30  H   0.999        C   28 0.978
    31  C   3.996        C   28 1.020    H   32 0.988    H   34 0.987    H   33 0.987
    32  H   0.999        C   31 0.988
    33  H   0.998        C   31 0.987
    34  H   0.998        C   31 0.987
    35  H   0.959        N   49 0.944
    36  C   3.951        C   39 1.008    N   49 0.980    H   38 0.972    H   37 0.969
    37  H   0.996        C   36 0.969
    38  H   0.995        C   36 0.972
    39  C   3.992        C   36 1.008    C   42 1.005    H   41 0.974    H   40 0.973
    40  H   0.998        C   39 0.973
    41  H   0.997        C   39 0.974
    42  C   3.995        C   45 1.020    C   39 1.005    H   44 0.977    H   43 0.976
    43  H   0.998        C   42 0.976
    44  H   0.998        C   42 0.977
    45  C   3.995        C   42 1.020    H   46 0.987    H   48 0.987    H   47 0.987
    46  H   0.999        C   45 0.987
    47  H   0.998        C   45 0.987
    48  H   0.998        C   45 0.987
    49  N   3.523        C   36 0.980    H   35 0.944    H   23 0.877    H   13 0.522    N   11 0.134
Topologies differ in total number of bonds
Writing topology from bond orders to xtbtopo.mol

molecular dipole:
                 x           y           z       tot (Debye)
 q only:        0.318       0.623       4.084
   full:        0.451       0.969       3.912      10.307
molecular quadrupole (traceless):
                xx          xy          yy          xz          yz          zz
 q only:        7.687       1.387      -8.091      13.154      -6.009       0.404
  q+dip:        6.783       2.342      -4.810      13.749      -6.772      -1.973
   full:        7.155       1.443      -5.934      14.227      -7.330      -1.221


           -------------------------------------------------
          | TOTAL ENERGY              -61.371887904120 Eh   |
          | GRADIENT NORM               0.034827382115 Eh/α |
          | HOMO-LUMO GAP               3.011090770799 eV   |
           -------------------------------------------------

------------------------------------------------------------------------
 * finished run on 2020/08/05 at 12:18:26.489     
------------------------------------------------------------------------
 total:
 * wall-time:     0 d,  0 h,  0 min,  0.258 sec
 *  cpu-time:     0 d,  0 h,  0 min,  3.064 sec
 * ratio c/w:    11.858 speedup
 SCF:
 * wall-time:     0 d,  0 h,  0 min,  0.180 sec
 *  cpu-time:     0 d,  0 h,  0 min,  2.147 sec
 * ratio c/w:    11.898 speedup


-------------------------   --------------------
FINAL SINGLE POINT ENERGY       -61.371887904120
-------------------------   --------------------


----------------------------------------------------------------------------
                           ORCA NUMERICAL FREQUENCIES
                              (11-process run)
----------------------------------------------------------------------------

Number of atoms                ... 49
Central differences            ... used
Number of displacements        ... 294
Numerical increment            ... 5.000e-03 bohr
IR-spectrum generation         ... on
Raman-spectrum generation      ... off
Surface Crossing Hessian       ... off
List of participating nodes    ...  /tmp/slurm-scratch/freq.99/freq.hostnames

The output will be reduced. Please look at the following files:
SCF program output             ... >/tmp/slurm-scratch/freq.99/freq.lastscf
Integral program output        ... >/tmp/slurm-scratch/freq.99/freq.lastint
Gradient program output        ... >/tmp/slurm-scratch/freq.99/freq.lastgrad
Dipole moment program output   ... >/tmp/slurm-scratch/freq.99/freq.lastmom
AutoCI program output          ... >/tmp/slurm-scratch/freq.99/freq.lastautoci


         <<< Energy and Gradient at the input geometry >>>

        <<< Energy and Gradient at displaced geometries >>>
             <<<Displacing   2/coordinate 3 (+)>>>
             <<<Displacing   4/coordinate 1 (+)>>>
             <<<Displacing   2/coordinate 2 (+)>>>
             <<<Displacing   2/coordinate 3 (-)>>>
             <<<Displacing   3/coordinate 3 (+)>>>
             <<<Displacing   1/coordinate 3 (+)>>>
             <<<Displacing   1/coordinate 1 (+)>>>
             <<<Displacing   2/coordinate 1 (+)>>>
             <<<Displacing   3/coordinate 1 (+)>>>
             <<<Displacing   4/coordinate 2 (+)>>>
             <<<Displacing   1/coordinate 2 (+)>>>
             <<<Displacing   2/coordinate 2 (-)>>>
             <<<Displacing   4/coordinate 1 (-)>>>
             <<<Displacing   3/coordinate 2 (+)>>>
             <<<Displacing   3/coordinate 3 (-)>>>
             <<<Displacing   3/coordinate 1 (-)>>>
             <<<Displacing   1/coordinate 3 (-)>>>
             <<<Displacing   1/coordinate 1 (-)>>>
             <<<Displacing   2/coordinate 1 (-)>>>
             <<<Displacing   4/coordinate 2 (-)>>>
             <<<Displacing   1/coordinate 2 (-)>>>
             <<<Displacing   3/coordinate 2 (-)>>>
             <<<Displacing   7/coordinate 2 (+)>>>
             <<<Displacing   5/coordinate 1 (+)>>>
             <<<Displacing   4/coordinate 3 (+)>>>
             <<<Displacing   6/coordinate 3 (+)>>>
             <<<Displacing   5/coordinate 1 (-)>>>
             <<<Displacing   7/coordinate 2 (-)>>>
             <<<Displacing   6/coordinate 2 (+)>>>
             <<<Displacing   5/coordinate 2 (+)>>>
             <<<Displacing   4/coordinate 3 (-)>>>
             <<<Displacing   7/coordinate 1 (+)>>>
             <<<Displacing   6/coordinate 3 (-)>>>
             <<<Displacing   5/coordinate 3 (+)>>>
             <<<Displacing   6/coordinate 2 (-)>>>
             <<<Displacing   7/coordinate 3 (+)>>>
             <<<Displacing   5/coordinate 2 (-)>>>
             <<<Displacing   6/coordinate 1 (+)>>>
             <<<Displacing   7/coordinate 1 (-)>>>
             <<<Displacing   5/coordinate 3 (-)>>>
             <<<Displacing   7/coordinate 3 (-)>>>
             <<<Displacing   8/coordinate 1 (+)>>>
             <<<Displacing   6/coordinate 1 (-)>>>
             <<<Displacing   8/coordinate 1 (-)>>>
             <<<Displacing   8/coordinate 2 (+)>>>
             <<<Displacing   8/coordinate 3 (+)>>>
             <<<Displacing   9/coordinate 2 (+)>>>
             <<<Displacing   8/coordinate 3 (-)>>>
             <<<Displacing   9/coordinate 1 (+)>>>
             <<<Displacing   8/coordinate 2 (-)>>>
             <<<Displacing  10/coordinate 3 (+)>>>
             <<<Displacing   9/coordinate 2 (-)>>>
             <<<Displacing   9/coordinate 3 (+)>>>
             <<<Displacing  10/coordinate 1 (+)>>>
             <<<Displacing   9/coordinate 1 (-)>>>
             <<<Displacing  10/coordinate 3 (-)>>>
             <<<Displacing   9/coordinate 3 (-)>>>
             <<<Displacing  10/coordinate 2 (+)>>>
             <<<Displacing  10/coordinate 1 (-)>>>
             <<<Displacing  10/coordinate 2 (-)>>>
             <<<Displacing  11/coordinate 1 (+)>>>
             <<<Displacing  11/coordinate 2 (+)>>>
             <<<Displacing  11/coordinate 1 (-)>>>
             <<<Displacing  11/coordinate 2 (-)>>>
             <<<Displacing  11/coordinate 3 (+)>>>
             <<<Displacing  11/coordinate 3 (-)>>>
             <<<Displacing  12/coordinate 1 (+)>>>
             <<<Displacing  12/coordinate 2 (+)>>>
             <<<Displacing  13/coordinate 2 (+)>>>
             <<<Displacing  12/coordinate 2 (-)>>>
             <<<Displacing  12/coordinate 3 (+)>>>
             <<<Displacing  14/coordinate 3 (+)>>>
             <<<Displacing  12/coordinate 1 (-)>>>
             <<<Displacing  13/coordinate 2 (-)>>>
             <<<Displacing  14/coordinate 3 (-)>>>
             <<<Displacing  12/coordinate 3 (-)>>>
             <<<Displacing  13/coordinate 3 (+)>>>
             <<<Displacing  13/coordinate 1 (+)>>>
             <<<Displacing  14/coordinate 2 (+)>>>
             <<<Displacing  13/coordinate 3 (-)>>>
             <<<Displacing  13/coordinate 1 (-)>>>
             <<<Displacing  14/coordinate 1 (+)>>>
             <<<Displacing  14/coordinate 2 (-)>>>
             <<<Displacing  15/coordinate 1 (+)>>>
             <<<Displacing  14/coordinate 1 (-)>>>
             <<<Displacing  15/coordinate 1 (-)>>>
             <<<Displacing  15/coordinate 2 (+)>>>
             <<<Displacing  15/coordinate 2 (-)>>>
             <<<Displacing  16/coordinate 1 (+)>>>
             <<<Displacing  16/coordinate 3 (+)>>>
             <<<Displacing  15/coordinate 3 (+)>>>
             <<<Displacing  16/coordinate 2 (+)>>>
             <<<Displacing  16/coordinate 1 (-)>>>
             <<<Displacing  15/coordinate 3 (-)>>>
             <<<Displacing  17/coordinate 1 (+)>>>
             <<<Displacing  16/coordinate 3 (-)>>>
             <<<Displacing  16/coordinate 2 (-)>>>
             <<<Displacing  17/coordinate 2 (+)>>>
             <<<Displacing  17/coordinate 1 (-)>>>
             <<<Displacing  18/coordinate 1 (+)>>>
             <<<Displacing  17/coordinate 3 (+)>>>
             <<<Displacing  17/coordinate 2 (-)>>>
             <<<Displacing  18/coordinate 2 (+)>>>
             <<<Displacing  18/coordinate 1 (-)>>>
             <<<Displacing  17/coordinate 3 (-)>>>
             <<<Displacing  18/coordinate 2 (-)>>>
             <<<Displacing  18/coordinate 3 (+)>>>
             <<<Displacing  18/coordinate 3 (-)>>>
             <<<Displacing  19/coordinate 1 (+)>>>
             <<<Displacing  19/coordinate 1 (-)>>>
             <<<Displacing  19/coordinate 3 (+)>>>
             <<<Displacing  19/coordinate 2 (+)>>>
             <<<Displacing  20/coordinate 2 (+)>>>
             <<<Displacing  19/coordinate 3 (-)>>>
             <<<Displacing  20/coordinate 2 (-)>>>
             <<<Displacing  20/coordinate 1 (+)>>>
             <<<Displacing  21/coordinate 3 (+)>>>
             <<<Displacing  19/coordinate 2 (-)>>>
             <<<Displacing  22/coordinate 1 (+)>>>
             <<<Displacing  21/coordinate 3 (-)>>>
             <<<Displacing  20/coordinate 1 (-)>>>
             <<<Displacing  21/coordinate 1 (+)>>>
             <<<Displacing  21/coordinate 2 (+)>>>
             <<<Displacing  20/coordinate 3 (+)>>>
             <<<Displacing  22/coordinate 1 (-)>>>
             <<<Displacing  21/coordinate 1 (-)>>>
             <<<Displacing  21/coordinate 2 (-)>>>
             <<<Displacing  20/coordinate 3 (-)>>>
             <<<Displacing  22/coordinate 2 (+)>>>
             <<<Displacing  22/coordinate 2 (-)>>>
             <<<Displacing  22/coordinate 3 (+)>>>
             <<<Displacing  22/coordinate 3 (-)>>>
             <<<Displacing  23/coordinate 2 (+)>>>
             <<<Displacing  23/coordinate 1 (+)>>>
             <<<Displacing  24/coordinate 3 (+)>>>
             <<<Displacing  23/coordinate 1 (-)>>>
             <<<Displacing  23/coordinate 2 (-)>>>
             <<<Displacing  24/coordinate 1 (+)>>>
             <<<Displacing  24/coordinate 3 (-)>>>
             <<<Displacing  25/coordinate 2 (+)>>>
             <<<Displacing  25/coordinate 1 (+)>>>
             <<<Displacing  23/coordinate 3 (+)>>>
             <<<Displacing  24/coordinate 1 (-)>>>
             <<<Displacing  25/coordinate 2 (-)>>>
             <<<Displacing  25/coordinate 1 (-)>>>
             <<<Displacing  24/coordinate 2 (+)>>>
             <<<Displacing  23/coordinate 3 (-)>>>
             <<<Displacing  24/coordinate 2 (-)>>>
             <<<Displacing  25/coordinate 3 (+)>>>
             <<<Displacing  25/coordinate 3 (-)>>>
             <<<Displacing  26/coordinate 1 (+)>>>
             <<<Displacing  26/coordinate 1 (-)>>>
             <<<Displacing  26/coordinate 2 (+)>>>
             <<<Displacing  26/coordinate 2 (-)>>>
             <<<Displacing  27/coordinate 3 (+)>>>
             <<<Displacing  26/coordinate 3 (+)>>>
             <<<Displacing  27/coordinate 2 (+)>>>
             <<<Displacing  26/coordinate 3 (-)>>>
             <<<Displacing  27/coordinate 3 (-)>>>
             <<<Displacing  27/coordinate 2 (-)>>>
             <<<Displacing  27/coordinate 1 (+)>>>
             <<<Displacing  28/coordinate 1 (+)>>>
             <<<Displacing  28/coordinate 1 (-)>>>
             <<<Displacing  27/coordinate 1 (-)>>>
             <<<Displacing  28/coordinate 3 (+)>>>
             <<<Displacing  28/coordinate 2 (+)>>>
             <<<Displacing  28/coordinate 3 (-)>>>
             <<<Displacing  28/coordinate 2 (-)>>>
             <<<Displacing  29/coordinate 1 (+)>>>
             <<<Displacing  29/coordinate 1 (-)>>>
             <<<Displacing  29/coordinate 2 (+)>>>
             <<<Displacing  29/coordinate 2 (-)>>>
             <<<Displacing  29/coordinate 3 (+)>>>
             <<<Displacing  30/coordinate 1 (+)>>>
             <<<Displacing  29/coordinate 3 (-)>>>
             <<<Displacing  30/coordinate 1 (-)>>>
             <<<Displacing  30/coordinate 3 (+)>>>
             <<<Displacing  30/coordinate 3 (-)>>>
             <<<Displacing  30/coordinate 2 (+)>>>
             <<<Displacing  31/coordinate 1 (+)>>>
             <<<Displacing  30/coordinate 2 (-)>>>
             <<<Displacing  31/coordinate 2 (+)>>>
             <<<Displacing  31/coordinate 3 (+)>>>
             <<<Displacing  31/coordinate 1 (-)>>>
             <<<Displacing  31/coordinate 3 (-)>>>
             <<<Displacing  32/coordinate 2 (+)>>>
             <<<Displacing  31/coordinate 2 (-)>>>
             <<<Displacing  32/coordinate 2 (-)>>>
             <<<Displacing  32/coordinate 1 (+)>>>
             <<<Displacing  32/coordinate 3 (+)>>>
             <<<Displacing  32/coordinate 3 (-)>>>
             <<<Displacing  32/coordinate 1 (-)>>>
             <<<Displacing  33/coordinate 1 (+)>>>
             <<<Displacing  33/coordinate 1 (-)>>>
             <<<Displacing  33/coordinate 3 (+)>>>
             <<<Displacing  33/coordinate 2 (+)>>>
             <<<Displacing  33/coordinate 3 (-)>>>
             <<<Displacing  33/coordinate 2 (-)>>>
             <<<Displacing  34/coordinate 1 (+)>>>
             <<<Displacing  34/coordinate 1 (-)>>>
             <<<Displacing  34/coordinate 3 (+)>>>
             <<<Displacing  34/coordinate 2 (+)>>>
             <<<Displacing  34/coordinate 3 (-)>>>
             <<<Displacing  35/coordinate 1 (+)>>>
             <<<Displacing  34/coordinate 2 (-)>>>
             <<<Displacing  35/coordinate 1 (-)>>>
             <<<Displacing  35/coordinate 2 (+)>>>
             <<<Displacing  35/coordinate 3 (+)>>>
             <<<Displacing  35/coordinate 2 (-)>>>
             <<<Displacing  36/coordinate 1 (+)>>>
             <<<Displacing  36/coordinate 2 (+)>>>
             <<<Displacing  35/coordinate 3 (-)>>>
             <<<Displacing  36/coordinate 1 (-)>>>
             <<<Displacing  36/coordinate 2 (-)>>>
             <<<Displacing  36/coordinate 3 (+)>>>
             <<<Displacing  37/coordinate 1 (+)>>>
             <<<Displacing  36/coordinate 3 (-)>>>
             <<<Displacing  37/coordinate 2 (+)>>>
             <<<Displacing  37/coordinate 1 (-)>>>
             <<<Displacing  37/coordinate 2 (-)>>>
             <<<Displacing  38/coordinate 1 (+)>>>
             <<<Displacing  37/coordinate 3 (+)>>>
             <<<Displacing  37/coordinate 3 (-)>>>
             <<<Displacing  38/coordinate 1 (-)>>>
             <<<Displacing  38/coordinate 2 (+)>>>
             <<<Displacing  38/coordinate 3 (+)>>>
             <<<Displacing  38/coordinate 2 (-)>>>
             <<<Displacing  39/coordinate 1 (+)>>>
             <<<Displacing  38/coordinate 3 (-)>>>
             <<<Displacing  39/coordinate 2 (+)>>>
             <<<Displacing  39/coordinate 1 (-)>>>
             <<<Displacing  39/coordinate 2 (-)>>>
             <<<Displacing  39/coordinate 3 (+)>>>
             <<<Displacing  39/coordinate 3 (-)>>>
             <<<Displacing  40/coordinate 1 (+)>>>
             <<<Displacing  40/coordinate 1 (-)>>>
             <<<Displacing  40/coordinate 2 (+)>>>
             <<<Displacing  40/coordinate 2 (-)>>>
             <<<Displacing  41/coordinate 1 (+)>>>
             <<<Displacing  40/coordinate 3 (+)>>>
             <<<Displacing  40/coordinate 3 (-)>>>
             <<<Displacing  41/coordinate 1 (-)>>>
             <<<Displacing  41/coordinate 2 (+)>>>
             <<<Displacing  41/coordinate 2 (-)>>>
             <<<Displacing  41/coordinate 3 (+)>>>
             <<<Displacing  42/coordinate 2 (+)>>>
             <<<Displacing  42/coordinate 1 (+)>>>
             <<<Displacing  41/coordinate 3 (-)>>>
             <<<Displacing  42/coordinate 1 (-)>>>
             <<<Displacing  42/coordinate 2 (-)>>>
             <<<Displacing  43/coordinate 1 (+)>>>
             <<<Displacing  43/coordinate 1 (-)>>>
             <<<Displacing  42/coordinate 3 (+)>>>
             <<<Displacing  43/coordinate 2 (+)>>>
             <<<Displacing  42/coordinate 3 (-)>>>
             <<<Displacing  43/coordinate 3 (+)>>>
             <<<Displacing  43/coordinate 2 (-)>>>
             <<<Displacing  43/coordinate 3 (-)>>>
             <<<Displacing  44/coordinate 1 (+)>>>
             <<<Displacing  44/coordinate 2 (+)>>>
             <<<Displacing  44/coordinate 1 (-)>>>
             <<<Displacing  44/coordinate 3 (+)>>>
             <<<Displacing  44/coordinate 2 (-)>>>
             <<<Displacing  44/coordinate 3 (-)>>>
             <<<Displacing  45/coordinate 1 (+)>>>
             <<<Displacing  45/coordinate 2 (+)>>>
             <<<Displacing  45/coordinate 1 (-)>>>
             <<<Displacing  45/coordinate 3 (+)>>>
             <<<Displacing  45/coordinate 2 (-)>>>
             <<<Displacing  46/coordinate 1 (+)>>>
             <<<Displacing  45/coordinate 3 (-)>>>
             <<<Displacing  46/coordinate 1 (-)>>>
             <<<Displacing  46/coordinate 2 (+)>>>
             <<<Displacing  46/coordinate 3 (+)>>>
             <<<Displacing  47/coordinate 1 (+)>>>
             <<<Displacing  46/coordinate 3 (-)>>>
             <<<Displacing  47/coordinate 2 (+)>>>
             <<<Displacing  46/coordinate 2 (-)>>>
             <<<Displacing  47/coordinate 1 (-)>>>
             <<<Displacing  47/coordinate 2 (-)>>>
             <<<Displacing  47/coordinate 3 (+)>>>
             <<<Displacing  47/coordinate 3 (-)>>>
             <<<Displacing  48/coordinate 2 (+)>>>
             <<<Displacing  48/coordinate 1 (+)>>>
             <<<Displacing  48/coordinate 2 (-)>>>
             <<<Displacing  48/coordinate 1 (-)>>>
             <<<Displacing  48/coordinate 3 (+)>>>
             <<<Displacing  48/coordinate 3 (-)>>>
             <<<Displacing  49/coordinate 1 (+)>>>
             <<<Displacing  49/coordinate 2 (+)>>>
             <<<Displacing  49/coordinate 1 (-)>>>
             <<<Displacing  49/coordinate 2 (-)>>>
             <<<Displacing  49/coordinate 3 (+)>>>
             <<<Displacing  49/coordinate 3 (-)>>>

-----------------------
VIBRATIONAL FREQUENCIES
-----------------------

Scaling factor for frequencies =  1.000000000 (already applied!)

   0:         0.00 cm**-1
   1:         0.00 cm**-1
   2:         0.00 cm**-1
   3:         0.00 cm**-1
   4:         0.00 cm**-1
   5:         0.00 cm**-1
   6:      -814.06 cm**-1 ***imaginary mode***
   7:       -15.71 cm**-1 ***imaginary mode***
   8:        38.02 cm**-1
   9:        48.28 cm**-1
  10:        54.02 cm**-1
  11:        65.40 cm**-1
  12:        72.37 cm**-1
  13:        77.23 cm**-1
  14:        81.73 cm**-1
  15:        94.72 cm**-1
  16:       108.00 cm**-1
  17:       116.73 cm**-1
  18:       126.18 cm**-1
  19:       131.14 cm**-1
  20:       149.19 cm**-1
  21:       177.95 cm**-1
  22:       189.15 cm**-1
  23:       209.42 cm**-1
  24:       223.74 cm**-1
  25:       236.04 cm**-1
  26:       261.23 cm**-1
  27:       272.27 cm**-1
  28:       276.15 cm**-1
  29:       323.27 cm**-1
  30:       350.90 cm**-1
  31:       379.80 cm**-1
  32:       388.66 cm**-1
  33:       394.75 cm**-1
  34:       405.90 cm**-1
  35:       415.98 cm**-1
  36:       430.64 cm**-1
  37:       478.21 cm**-1
  38:       524.10 cm**-1
  39:       537.06 cm**-1
  40:       588.84 cm**-1
  41:       606.12 cm**-1
  42:       639.52 cm**-1
  43:       657.77 cm**-1
  44:       678.58 cm**-1
  45:       741.88 cm**-1
  46:       769.52 cm**-1
  47:       770.93 cm**-1
  48:       808.16 cm**-1
  49:       818.92 cm**-1
  50:       828.29 cm**-1
  51:       840.83 cm**-1
  52:       883.23 cm**-1
  53:       902.54 cm**-1
  54:       907.19 cm**-1
  55:       929.30 cm**-1
  56:       932.01 cm**-1
  57:       935.77 cm**-1
  58:       945.24 cm**-1
  59:       950.77 cm**-1
  60:       953.97 cm**-1
  61:       977.70 cm**-1
  62:       995.51 cm**-1
  63:      1012.02 cm**-1
  64:      1026.38 cm**-1
  65:      1040.80 cm**-1
  66:      1069.46 cm**-1
  67:      1071.43 cm**-1
  68:      1089.62 cm**-1
  69:      1093.49 cm**-1
  70:      1094.92 cm**-1
  71:      1110.69 cm**-1
  72:      1120.47 cm**-1
  73:      1127.42 cm**-1
  74:      1140.50 cm**-1
  75:      1154.27 cm**-1
  76:      1156.62 cm**-1
  77:      1176.44 cm**-1
  78:      1183.93 cm**-1
  79:      1195.74 cm**-1
  80:      1196.68 cm**-1
  81:      1217.18 cm**-1
  82:      1235.63 cm**-1
  83:      1246.22 cm**-1
  84:      1251.99 cm**-1
  85:      1269.15 cm**-1
  86:      1273.55 cm**-1
  87:      1276.12 cm**-1
  88:      1278.08 cm**-1
  89:      1280.78 cm**-1
  90:      1283.77 cm**-1
  91:      1289.57 cm**-1
  92:      1293.71 cm**-1
  93:      1314.33 cm**-1
  94:      1340.91 cm**-1
  95:      1354.49 cm**-1
  96:      1372.19 cm**-1
  97:      1374.53 cm**-1
  98:      1414.43 cm**-1
  99:      1418.74 cm**-1
 100:      1427.85 cm**-1
 101:      1429.50 cm**-1
 102:      1446.15 cm**-1
 103:      1456.39 cm**-1
 104:      1468.76 cm**-1
 105:      1469.88 cm**-1
 106:      1482.03 cm**-1
 107:      1494.57 cm**-1
 108:      1496.83 cm**-1
 109:      1501.90 cm**-1
 110:      1504.59 cm**-1
 111:      1506.54 cm**-1
 112:      1506.71 cm**-1
 113:      1511.05 cm**-1
 114:      1511.72 cm**-1
 115:      1546.21 cm**-1
 116:      1565.13 cm**-1
 117:      1573.07 cm**-1
 118:      2194.06 cm**-1
 119:      2651.46 cm**-1
 120:      2931.05 cm**-1
 121:      2937.49 cm**-1
 122:      2945.79 cm**-1
 123:      2953.56 cm**-1
 124:      2956.12 cm**-1
 125:      2963.15 cm**-1
 126:      2970.33 cm**-1
 127:      2973.91 cm**-1
 128:      2975.83 cm**-1
 129:      2978.95 cm**-1
 130:      2981.07 cm**-1
 131:      2985.20 cm**-1
 132:      2986.10 cm**-1
 133:      2989.97 cm**-1
 134:      2999.43 cm**-1
 135:      3001.37 cm**-1
 136:      3022.94 cm**-1
 137:      3024.68 cm**-1
 138:      3043.32 cm**-1
 139:      3048.20 cm**-1
 140:      3052.61 cm**-1
 141:      3064.72 cm**-1
 142:      3067.18 cm**-1
 143:      3092.23 cm**-1
 144:      3357.48 cm**-1
 145:      3395.02 cm**-1
 146:      3630.59 cm**-1


------------
NORMAL MODES
------------

These modes are the cartesian displacements weighted by the diagonal matrix
M(i,i)=1/sqrt(m[i]) where m[i] is the mass of the displaced atom
Thus, these vectors are normalized but *not* orthogonal

                  0          1          2          3          4          5    
      0       0.000000   0.000000   0.000000   0.000000   0.000000   0.000000
      1       0.000000   0.000000   0.000000   0.000000   0.000000   0.000000
      2       0.000000   0.000000   0.000000   0.000000   0.000000   0.000000
      3       0.000000   0.000000   0.000000   0.000000   0.000000   0.000000
      4       0.000000   0.000000   0.000000   0.000000   0.000000   0.000000
      5       0.000000   0.000000   0.000000   0.000000   0.000000   0.000000
      6       0.000000   0.000000   0.000000   0.000000   0.000000   0.000000
      7       0.000000   0.000000   0.000000   0.000000   0.000000   0.000000
      8       0.000000   0.000000   0.000000   0.000000   0.000000   0.000000
      9       0.000000   0.000000   0.000000   0.000000   0.000000   0.000000
     10       0.000000   0.000000   0.000000   0.000000   0.000000   0.000000
     11       0.000000   0.000000   0.000000   0.000000   0.000000   0.000000
     12       0.000000   0.000000   0.000000   0.000000   0.000000   0.000000
     13       0.000000   0.000000   0.000000   0.000000   0.000000   0.000000
     14       0.000000   0.000000   0.000000   0.000000   0.000000   0.000000
     15       0.000000   0.000000   0.000000   0.000000   0.000000   0.000000
     16       0.000000   0.000000   0.000000   0.000000   0.000000   0.000000
     17       0.000000   0.000000   0.000000   0.000000   0.000000   0.000000
     18       0.000000   0.000000   0.000000   0.000000   0.000000   0.000000
     19       0.000000   0.000000   0.000000   0.000000   0.000000   0.000000
     20       0.000000   0.000000   0.000000   0.000000   0.000000   0.000000
     21       0.000000   0.000000   0.000000   0.000000   0.000000   0.000000
     22       0.000000   0.000000   0.000000   0.000000   0.000000   0.000000
     23       0.000000   0.000000   0.000000   0.000000   0.000000   0.000000
     24       0.000000   0.000000   0.000000   0.000000   0.000000   0.000000
     25       0.000000   0.000000   0.000000   0.000000   0.000000   0.000000
     26       0.000000   0.000000   0.000000   0.000000   0.000000   0.000000
     27       0.000000   0.000000   0.000000   0.000000   0.000000   0.000000
     28       0.000000   0.000000   0.000000   0.000000   0.000000   0.000000
     29       0.000000   0.000000   0.000000   0.000000   0.000000   0.000000
     30       0.000000   0.000000   0.000000   0.000000   0.000000   0.000000
     31       0.000000   0.000000   0.000000   0.000000   0.000000   0.000000
     32       0.000000   0.000000   0.000000   0.000000   0.000000   0.000000
     33       0.000000   0.000000   0.000000   0.000000   0.000000   0.000000
     34       0.000000   0.000000   0.000000   0.000000   0.000000   0.000000
     35       0.000000   0.000000   0.000000   0.000000   0.000000   0.000000
     36       0.000000   0.000000   0.000000   0.000000   0.000000   0.000000
     37       0.000000   0.000000   0.000000   0.000000   0.000000   0.000000
     38       0.000000   0.000000   0.000000   0.000000   0.000000   0.000000
     39       0.000000   0.000000   0.000000   0.000000   0.000000   0.000000
     40       0.000000   0.000000   0.000000   0.000000   0.000000   0.000000
     41       0.000000   0.000000   0.000000   0.000000   0.000000   0.000000
     42       0.000000   0.000000   0.000000   0.000000   0.000000   0.000000
     43       0.000000   0.000000   0.000000   0.000000   0.000000   0.000000
     44       0.000000   0.000000   0.000000   0.000000   0.000000   0.000000
     45       0.000000   0.000000   0.000000   0.000000   0.000000   0.000000
     46       0.000000   0.000000   0.000000   0.000000   0.000000   0.000000
     47       0.000000   0.000000   0.000000   0.000000   0.000000   0.000000
     48       0.000000   0.000000   0.000000   0.000000   0.000000   0.000000
     49       0.000000   0.000000   0.000000   0.000000   0.000000   0.000000
     50       0.000000   0.000000   0.000000   0.000000   0.000000   0.000000
     51       0.000000   0.000000   0.000000   0.000000   0.000000   0.000000
     52       0.000000   0.000000   0.000000   0.000000   0.000000   0.000000
     53       0.000000   0.000000   0.000000   0.000000   0.000000   0.000000
     54       0.000000   0.000000   0.000000   0.000000   0.000000   0.000000
     55       0.000000   0.000000   0.000000   0.000000   0.000000   0.000000
     56       0.000000   0.000000   0.000000   0.000000   0.000000   0.000000
     57       0.000000   0.000000   0.000000   0.000000   0.000000   0.000000
     58       0.000000   0.000000   0.000000   0.000000   0.000000   0.000000
     59       0.000000   0.000000   0.000000   0.000000   0.000000   0.000000
     60       0.000000   0.000000   0.000000   0.000000   0.000000   0.000000
     61       0.000000   0.000000   0.000000   0.000000   0.000000   0.000000
     62       0.000000   0.000000   0.000000   0.000000   0.000000   0.000000
     63       0.000000   0.000000   0.000000   0.000000   0.000000   0.000000
     64       0.000000   0.000000   0.000000   0.000000   0.000000   0.000000
     65       0.000000   0.000000   0.000000   0.000000   0.000000   0.000000
     66       0.000000   0.000000   0.000000   0.000000   0.000000   0.000000
     67       0.000000   0.000000   0.000000   0.000000   0.000000   0.000000
     68       0.000000   0.000000   0.000000   0.000000   0.000000   0.000000
     69       0.000000   0.000000   0.000000   0.000000   0.000000   0.000000
     70       0.000000   0.000000   0.000000   0.000000   0.000000   0.000000
     71       0.000000   0.000000   0.000000   0.000000   0.000000   0.000000
     72       0.000000   0.000000   0.000000   0.000000   0.000000   0.000000
     73       0.000000   0.000000   0.000000   0.000000   0.000000   0.000000
     74       0.000000   0.000000   0.000000   0.000000   0.000000   0.000000
     75       0.000000   0.000000   0.000000   0.000000   0.000000   0.000000
     76       0.000000   0.000000   0.000000   0.000000   0.000000   0.000000
     77       0.000000   0.000000   0.000000   0.000000   0.000000   0.000000
     78       0.000000   0.000000   0.000000   0.000000   0.000000   0.000000
     79       0.000000   0.000000   0.000000   0.000000   0.000000   0.000000
     80       0.000000   0.000000   0.000000   0.000000   0.000000   0.000000
     81       0.000000   0.000000   0.000000   0.000000   0.000000   0.000000
     82       0.000000   0.000000   0.000000   0.000000   0.000000   0.000000
     83       0.000000   0.000000   0.000000   0.000000   0.000000   0.000000
     84       0.000000   0.000000   0.000000   0.000000   0.000000   0.000000
     85       0.000000   0.000000   0.000000   0.000000   0.000000   0.000000
     86       0.000000   0.000000   0.000000   0.000000   0.000000   0.000000
     87       0.000000   0.000000   0.000000   0.000000   0.000000   0.000000
     88       0.000000   0.000000   0.000000   0.000000   0.000000   0.000000
     89       0.000000   0.000000   0.000000   0.000000   0.000000   0.000000
     90       0.000000   0.000000   0.000000   0.000000   0.000000   0.000000
     91       0.000000   0.000000   0.000000   0.000000   0.000000   0.000000
     92       0.000000   0.000000   0.000000   0.000000   0.000000   0.000000
     93       0.000000   0.000000   0.000000   0.000000   0.000000   0.000000
     94       0.000000   0.000000   0.000000   0.000000   0.000000   0.000000
     95       0.000000   0.000000   0.000000   0.000000   0.000000   0.000000
     96       0.000000   0.000000   0.000000   0.000000   0.000000   0.000000
     97       0.000000   0.000000   0.000000   0.000000   0.000000   0.000000
     98       0.000000   0.000000   0.000000   0.000000   0.000000   0.000000
     99       0.000000   0.000000   0.000000   0.000000   0.000000   0.000000
    100       0.000000   0.000000   0.000000   0.000000   0.000000   0.000000
    101       0.000000   0.000000   0.000000   0.000000   0.000000   0.000000
    102       0.000000   0.000000   0.000000   0.000000   0.000000   0.000000
    103       0.000000   0.000000   0.000000   0.000000   0.000000   0.000000
    104       0.000000   0.000000   0.000000   0.000000   0.000000   0.000000
    105       0.000000   0.000000   0.000000   0.000000   0.000000   0.000000
    106       0.000000   0.000000   0.000000   0.000000   0.000000   0.000000
    107       0.000000   0.000000   0.000000   0.000000   0.000000   0.000000
    108       0.000000   0.000000   0.000000   0.000000   0.000000   0.000000
    109       0.000000   0.000000   0.000000   0.000000   0.000000   0.000000
    110       0.000000   0.000000   0.000000   0.000000   0.000000   0.000000
    111       0.000000   0.000000   0.000000   0.000000   0.000000   0.000000
    112       0.000000   0.000000   0.000000   0.000000   0.000000   0.000000
    113       0.000000   0.000000   0.000000   0.000000   0.000000   0.000000
    114       0.000000   0.000000   0.000000   0.000000   0.000000   0.000000
    115       0.000000   0.000000   0.000000   0.000000   0.000000   0.000000
    116       0.000000   0.000000   0.000000   0.000000   0.000000   0.000000
    117       0.000000   0.000000   0.000000   0.000000   0.000000   0.000000
    118       0.000000   0.000000   0.000000   0.000000   0.000000   0.000000
    119       0.000000   0.000000   0.000000   0.000000   0.000000   0.000000
    120       0.000000   0.000000   0.000000   0.000000   0.000000   0.000000
    121       0.000000   0.000000   0.000000   0.000000   0.000000   0.000000
    122       0.000000   0.000000   0.000000   0.000000   0.000000   0.000000
    123       0.000000   0.000000   0.000000   0.000000   0.000000   0.000000
    124       0.000000   0.000000   0.000000   0.000000   0.000000   0.000000
    125       0.000000   0.000000   0.000000   0.000000   0.000000   0.000000
    126       0.000000   0.000000   0.000000   0.000000   0.000000   0.000000
    127       0.000000   0.000000   0.000000   0.000000   0.000000   0.000000
    128       0.000000   0.000000   0.000000   0.000000   0.000000   0.000000
    129       0.000000   0.000000   0.000000   0.000000   0.000000   0.000000
    130       0.000000   0.000000   0.000000   0.000000   0.000000   0.000000
    131       0.000000   0.000000   0.000000   0.000000   0.000000   0.000000
    132       0.000000   0.000000   0.000000   0.000000   0.000000   0.000000
    133       0.000000   0.000000   0.000000   0.000000   0.000000   0.000000
    134       0.000000   0.000000   0.000000   0.000000   0.000000   0.000000
    135       0.000000   0.000000   0.000000   0.000000   0.000000   0.000000
    136       0.000000   0.000000   0.000000   0.000000   0.000000   0.000000
    137       0.000000   0.000000   0.000000   0.000000   0.000000   0.000000
    138       0.000000   0.000000   0.000000   0.000000   0.000000   0.000000
    139       0.000000   0.000000   0.000000   0.000000   0.000000   0.000000
    140       0.000000   0.000000   0.000000   0.000000   0.000000   0.000000
    141       0.000000   0.000000   0.000000   0.000000   0.000000   0.000000
    142       0.000000   0.000000   0.000000   0.000000   0.000000   0.000000
    143       0.000000   0.000000   0.000000   0.000000   0.000000   0.000000
    144       0.000000   0.000000   0.000000   0.000000   0.000000   0.000000
    145       0.000000   0.000000   0.000000   0.000000   0.000000   0.000000
    146       0.000000   0.000000   0.000000   0.000000   0.000000   0.000000
                  6          7          8          9         10         11    
      0       0.004078  -0.023906  -0.008342   0.019321   0.018242   0.025859
      1       0.003800  -0.005885  -0.021506  -0.001281  -0.000750  -0.014153
      2       0.001662   0.004772  -0.062236  -0.062025   0.020974   0.028302
      3      -0.002665  -0.015770  -0.017009   0.011781  -0.011670   0.036499
      4      -0.000286  -0.012136  -0.032793  -0.018644  -0.082881  -0.047740
      5      -0.000124   0.023054  -0.055400  -0.046148   0.104319   0.088832
      6      -0.001766  -0.010757  -0.019857   0.009420   0.014527   0.027601
      7      -0.000367  -0.016008  -0.040586  -0.031717  -0.176252  -0.053006
      8       0.000421   0.036341  -0.070460  -0.062673   0.126317   0.056689
      9      -0.001009  -0.013756  -0.016288   0.014410   0.071512   0.007666
     10      -0.000662  -0.013771  -0.036348  -0.026101  -0.190112  -0.023285
     11       0.000474   0.032343  -0.096947  -0.097463   0.070100  -0.035195
     12       0.000748  -0.020969  -0.010119   0.021672   0.100735  -0.004192
     13       0.000763  -0.008498  -0.022293  -0.007725  -0.108845   0.013492
     14      -0.000170   0.017407  -0.109924  -0.115345  -0.011277  -0.098522
     15       0.002029  -0.026021  -0.006179   0.023925   0.072930   0.003192
     16       0.001562  -0.004568  -0.015460   0.004820  -0.014080   0.019198
     17       0.001586   0.003296  -0.092484  -0.097858  -0.037642  -0.069408
     18       0.021942  -0.038278   0.004252   0.020872  -0.003493   0.031124
     19       0.026767   0.008396  -0.017410   0.005767   0.096570  -0.015170
     20       0.042512  -0.030599  -0.019099  -0.048172   0.004370   0.048619
     21       0.002924  -0.013686  -0.021043   0.006143  -0.056467   0.047877
     22      -0.001902  -0.013966  -0.035452  -0.022594  -0.074526  -0.069335
     23      -0.002639   0.026086  -0.035193  -0.018436   0.152928   0.162747
     24       0.002430  -0.032880  -0.002359   0.031124   0.091430  -0.007471
     25       0.003730   0.000020  -0.007227   0.019586   0.049718   0.046870
     26      -0.002695  -0.010654  -0.099177  -0.110428  -0.105081  -0.119418
     27      -0.001877  -0.010535  -0.017799   0.012660   0.092604   0.001722
     28       0.000023  -0.016243  -0.043810  -0.036197  -0.262439  -0.028064
     29      -0.001681   0.040956  -0.106986  -0.109933   0.088507  -0.057546
     30      -0.004142   0.003387  -0.041838   0.006939   0.000986   0.032595
     31       0.022039   0.027986  -0.035483   0.054386   0.051938   0.002107
     32      -0.046710  -0.058659   0.011407  -0.054511   0.016249   0.042850
     33      -0.010631   0.002120  -0.044682   0.019345   0.020842   0.022896
     34       0.005004  -0.000839   0.003341   0.012574   0.001603   0.017200
     35      -0.016465  -0.139696   0.080439  -0.067117   0.038406   0.005346
     36      -0.141591   0.008528  -0.042599  -0.023158  -0.040759   0.027722
     37      -0.725641   0.036629  -0.059203   0.113257   0.035359   0.006534
     38       0.633871  -0.056257  -0.012977  -0.000963   0.007563   0.029282
     39      -0.001007   0.018604  -0.028412  -0.009209  -0.032725   0.048902
     40       0.001148   0.019183   0.016862  -0.012116  -0.048001   0.042460
     41      -0.000423   0.153952   0.009126  -0.015922  -0.028468   0.100252
     42      -0.028011  -0.015588  -0.076412   0.033424   0.053735   0.010498
     43      -0.004609   0.204579  -0.063888   0.042648  -0.058441   0.100270
     44       0.002702  -0.325033   0.153019  -0.099548   0.083549  -0.068176
     45       0.057258   0.005859  -0.026974   0.033989   0.043878   0.004754
     46       0.031018  -0.248189   0.091467  -0.033378   0.056889  -0.075552
     47      -0.012643  -0.273452   0.129281  -0.091262   0.069973  -0.046137
     48      -0.006757   0.034479   0.008376  -0.039297  -0.052545  -0.009008
     49       0.000005  -0.178137   0.081391  -0.045639   0.025228  -0.085458
     50       0.001050   0.336165  -0.066003   0.027139  -0.090444   0.242537
     51       0.008153   0.030159  -0.055623  -0.008894  -0.076860   0.152256
     52       0.008719   0.264628  -0.072409   0.041976  -0.120085   0.199863
     53       0.005347   0.282958  -0.038773   0.012359  -0.068197   0.187630
     54       0.005712  -0.034787   0.021338   0.036435   0.026226   0.040897
     55      -0.019283   0.016925  -0.012045  -0.006589   0.154278  -0.019793
     56       0.000175  -0.039786  -0.012557  -0.014525  -0.059861   0.064254
     57      -0.003086  -0.022732  -0.103156   0.017435   0.008030  -0.128899
     58       0.019522   0.011974  -0.044640   0.063576   0.133769  -0.055087
     59       0.018072  -0.060656  -0.059077   0.113086  -0.104163   0.019447
     60      -0.013773  -0.026798  -0.048959   0.023151   0.021642  -0.059501
     61       0.073180   0.016552  -0.027513   0.035455   0.148998  -0.038783
     62      -0.015453  -0.056083  -0.041822   0.057986  -0.086408   0.031973
     63      -0.010833  -0.025777  -0.100791   0.008678   0.021025  -0.145870
     64       0.010146   0.007361  -0.058865   0.037780   0.153099  -0.111040
     65      -0.009177  -0.070734  -0.008476   0.114330  -0.059422   0.034473
     66       0.025805  -0.002162  -0.138082   0.010217  -0.087450  -0.057638
     67      -0.032991   0.030824  -0.058328   0.117785   0.048413  -0.003331
     68      -0.096719  -0.065922  -0.069077   0.073332  -0.056681  -0.004763
     69      -0.028653  -0.071716   0.026624   0.017829  -0.055253   0.032571
     70      -0.024711   0.004492  -0.010419  -0.013051   0.130036  -0.022646
     71      -0.065761  -0.037140  -0.007317  -0.077237   0.057719   0.037063
     72       0.020405   0.026372  -0.073744   0.019903   0.029049   0.028593
     73       0.047935   0.038437  -0.057750   0.087810   0.068570  -0.002353
     74      -0.086336  -0.051643   0.013881  -0.101834   0.019900   0.045548
     75      -0.002432  -0.004973  -0.021992   0.005430  -0.009706   0.036310
     76       0.001932  -0.020536  -0.050746  -0.046290  -0.237770  -0.080085
     77      -0.002434   0.048879  -0.058141  -0.046098   0.187182   0.104056
     78       0.000237  -0.023189  -0.007881   0.025231   0.144710  -0.019654
     79       0.001775  -0.006929  -0.018063  -0.002963  -0.118117   0.037879
     80      -0.004568   0.015123  -0.131989  -0.142384  -0.056703  -0.171542
     81      -0.001097   0.011800  -0.028126   0.000980  -0.002898   0.013406
     82      -0.001281  -0.022857   0.062881  -0.065907  -0.101840   0.035555
     83      -0.000020   0.021594   0.108490  -0.067056   0.039207  -0.128750
     84      -0.003570   0.036766  -0.077961   0.041357   0.015902   0.092627
     85       0.002705   0.108466   0.015090  -0.043563  -0.166651   0.134054
     86      -0.001090  -0.112185   0.170875  -0.101958   0.094539  -0.249244
     87      -0.002122  -0.019743   0.004944  -0.004602   0.044385  -0.109551
     88       0.002479  -0.186288   0.129668  -0.105147  -0.039321  -0.080859
     89       0.000315  -0.069268   0.146480  -0.088793   0.075494  -0.197922
     90       0.000520   0.011593  -0.005801  -0.034241  -0.059391   0.034381
     91      -0.000406  -0.022267   0.083105  -0.097776  -0.153499   0.054790
     92       0.000190   0.175968   0.078047  -0.046907  -0.013264  -0.115346
     93      -0.000469   0.012638   0.026817  -0.065347  -0.085186  -0.014962
     94       0.000555  -0.124673   0.116714  -0.112659  -0.098777  -0.014784
     95      -0.000860   0.271500   0.037224  -0.024063  -0.057098  -0.036034
     96       0.000213   0.011019  -0.008549  -0.024915  -0.038893   0.013575
     97       0.000846  -0.044761   0.110492  -0.132913  -0.192285   0.058331
     98      -0.001310   0.124388   0.121556  -0.069504   0.020630  -0.227742
     99       0.001470   0.012205  -0.019714  -0.038497  -0.095752   0.119934
    100       0.000819   0.103295   0.036545  -0.071056  -0.206768   0.135235
    101       0.000793   0.244557   0.052584  -0.032282  -0.042355  -0.071318
    102       0.030083   0.021313  -0.043482  -0.032430  -0.061445  -0.040500
    103       0.013252   0.013965  -0.140493   0.179401  -0.016521  -0.075818
    104      -0.023069  -0.072202  -0.073359   0.060214  -0.035854   0.023721
    105      -0.013436   0.022628  -0.044556  -0.028550  -0.061871  -0.043591
    106       0.002120   0.013742   0.006505   0.098469   0.047195   0.021991
    107       0.000203  -0.036198   0.007156   0.033960  -0.013699  -0.017784
    108      -0.022118   0.008671  -0.079243  -0.022331  -0.071873  -0.027593
    109       0.000439   0.018564   0.099956   0.121973   0.064673   0.131788
    110       0.012149  -0.022341   0.036542   0.026425  -0.003669  -0.039460
    111       0.045771   0.036957  -0.096048  -0.021824  -0.072238  -0.120093
    112      -0.002123   0.006717  -0.010257   0.070626   0.047074  -0.020197
    113      -0.021148  -0.045142  -0.025101  -0.007572  -0.015488  -0.092050
    114       0.003502   0.031955   0.093373  -0.051381  -0.026980   0.009713
    115      -0.000537   0.002525  -0.007330   0.051141   0.051149  -0.033121
    116      -0.001506  -0.018715   0.060064   0.093763  -0.009994   0.071237
    117       0.000452   0.019398   0.137429  -0.143956   0.015756   0.160381
    118      -0.003254   0.009864   0.008558   0.081983   0.049970   0.012248
    119      -0.003811  -0.009524   0.088422   0.127440  -0.006324   0.155707
    120      -0.006360   0.042894   0.131252  -0.008773  -0.035394  -0.052150
    121       0.000705  -0.003103  -0.094417   0.067520   0.018921  -0.179537
    122       0.005925  -0.030003   0.025629   0.047514   0.001078   0.147108
    123      -0.000346   0.042046   0.123018  -0.005897  -0.038168  -0.057931
    124      -0.001624  -0.011703   0.077603  -0.069936   0.103628   0.048556
    125      -0.000658   0.000566   0.120908   0.180301  -0.029905  -0.056788
    126      -0.000575   0.032236   0.083599  -0.047020  -0.031118   0.002694
    127       0.003290  -0.009924   0.102760  -0.094992   0.138252   0.153573
    128       0.000979   0.010459   0.157795   0.226859  -0.042385  -0.136076
    129      -0.000420   0.056233   0.106959   0.095535  -0.082703  -0.192235
    130       0.001941  -0.017759   0.092909  -0.099934   0.103702   0.019488
    131       0.001421  -0.006251   0.139783   0.149405  -0.033894  -0.107764
    132       0.001129   0.045359   0.220243  -0.042420  -0.000484  -0.029648
    133      -0.001040  -0.020131   0.107191  -0.120172   0.111222   0.028288
    134      -0.000627   0.014621   0.105783   0.246984  -0.029411  -0.016095
    135       0.000675   0.037361   0.221647  -0.117428   0.034802   0.053813
    136      -0.000527  -0.014551   0.091148  -0.093431   0.112504   0.054811
    137       0.000097   0.022154   0.083313   0.281952  -0.026835   0.022240
    138       0.001030   0.049586   0.243312  -0.019998  -0.006034  -0.058833
    139      -0.000080  -0.027293   0.157913  -0.193607   0.143172   0.061988
    140      -0.001840   0.022402   0.155878   0.285193  -0.037622  -0.070918
    141      -0.000612   0.051564   0.264599  -0.017452  -0.002599  -0.064003
    142       0.000584  -0.024567   0.094219  -0.110353   0.083981  -0.046741
    143       0.000250   0.009284   0.064326   0.220657  -0.022596   0.030687
    144       0.004709   0.010218  -0.067407  -0.023249  -0.067085  -0.026075
    145      -0.009850   0.025531  -0.070420   0.136694   0.025839  -0.013803
    146      -0.019761  -0.058608  -0.041733   0.046797  -0.027014   0.012164
                 12         13         14         15         16         17    
      0       0.041760  -0.027166  -0.012761  -0.016256   0.010109   0.011424
      1      -0.014541  -0.004910  -0.002863  -0.006067   0.002242   0.016086
      2      -0.025579  -0.001927   0.032358   0.023966  -0.009418  -0.000673
      3       0.079247   0.002861   0.011731   0.007841   0.033069   0.012013
      4       0.001565  -0.024146  -0.049769  -0.010501  -0.005897   0.007976
      5      -0.005499   0.059974   0.127420   0.057817   0.028975   0.011241
      6       0.104627   0.002558   0.000492   0.000616   0.046319   0.015856
      7       0.009501  -0.018033  -0.052301   0.007781  -0.010122  -0.001576
      8       0.080488   0.063915   0.090948   0.047400   0.068174   0.016846
      9       0.090701  -0.028794  -0.035097  -0.031361   0.030618   0.019801
     10       0.001143   0.009287  -0.006646   0.033437  -0.000360  -0.001663
     11       0.146479   0.005868  -0.037006  -0.001817   0.057357   0.009102
     12       0.048140  -0.058345  -0.058939  -0.053404  -0.000920   0.017883
     13      -0.011326   0.029267   0.041592   0.037261   0.016221   0.008693
     14       0.118500  -0.053439  -0.128664  -0.031642   0.000681  -0.007266
     15       0.023906  -0.058069  -0.049915  -0.043425  -0.009875   0.014278
     16      -0.019170   0.022492   0.044770   0.016216   0.016557   0.017708
     17       0.031931  -0.056763  -0.094858  -0.014645  -0.028886  -0.011752
     18       0.032866  -0.030155  -0.011410  -0.015101   0.021758   0.016464
     19      -0.033362  -0.021261  -0.009121  -0.025439  -0.032887   0.010358
     20      -0.066712  -0.026612   0.026386   0.012878   0.002351   0.014215
     21       0.089022   0.023257   0.032774   0.031924   0.035417   0.008450
     22       0.008428  -0.043801  -0.080458  -0.028097  -0.008221   0.008267
     23      -0.055955   0.107352   0.226438   0.090579   0.034578   0.017347
     24      -0.011079  -0.076549  -0.067631  -0.049872  -0.023971   0.015760
     25      -0.032380   0.039183   0.083536   0.022272   0.025314   0.025841
     26       0.012780  -0.101750  -0.169451  -0.033215  -0.058135  -0.021590
     27       0.111490  -0.029212  -0.043940  -0.038866   0.042080   0.023352
     28       0.005063   0.014537  -0.007723   0.049073  -0.005094  -0.009468
     29       0.215468   0.008075  -0.065970  -0.015420   0.090456   0.015205
     30       0.040378   0.003040   0.017143   0.013853  -0.032396  -0.007757
     31      -0.021253  -0.015389  -0.009983  -0.074379   0.092244   0.010126
     32      -0.073380  -0.048010   0.005236   0.012316  -0.012780   0.025012
     33       0.041780   0.002304   0.016989   0.010126  -0.040963  -0.011477
     34      -0.021504  -0.024412  -0.018479  -0.071445   0.120878   0.026820
     35      -0.063612  -0.072123  -0.017814  -0.014788   0.025387   0.052445
     36      -0.036326   0.031779   0.026053  -0.042800   0.003867  -0.007934
     37       0.004044   0.019197  -0.003997  -0.092635   0.071016  -0.007309
     38      -0.056130  -0.012986   0.003572   0.008988  -0.047401   0.010961
     39       0.059685   0.000335   0.020328   0.048212  -0.073506  -0.037061
     40      -0.005939  -0.027279  -0.016448  -0.036772   0.094912   0.002048
     41      -0.105350  -0.120806  -0.046809   0.046454   0.025709  -0.130292
     42       0.039802   0.024270   0.033102   0.000950  -0.061501   0.014948
     43      -0.052130  -0.051664  -0.029639  -0.014795   0.099309  -0.095620
     44      -0.034029  -0.053349  -0.012454  -0.064324   0.051898   0.157748
     45       0.037872  -0.014151   0.001563  -0.005046  -0.017028  -0.025111
     46       0.018791   0.006252  -0.005809  -0.131382   0.145254   0.171602
     47      -0.042069  -0.056137  -0.011679  -0.048549   0.039653   0.129974
     48       0.135435   0.067433   0.050414   0.059702  -0.092863  -0.117297
     49       0.057814   0.053483   0.019200  -0.103551   0.123502   0.071860
     50      -0.193826  -0.221694  -0.091597   0.106360   0.004464  -0.167045
     51      -0.001848  -0.080690  -0.007940   0.096622  -0.121086   0.018993
     52      -0.101895  -0.135526  -0.067110   0.034691   0.074919  -0.072957
     53      -0.157993  -0.181282  -0.074730   0.086336   0.013102  -0.166235
     54       0.018184  -0.054767  -0.026428  -0.043684   0.040736   0.016722
     55      -0.048474  -0.032452  -0.016954  -0.015816  -0.096594   0.001216
     56      -0.057185  -0.032656   0.021458  -0.025206   0.120062   0.028136
     57      -0.175347   0.058145  -0.052901   0.318294   0.065933   0.016969
     58      -0.044786   0.030197  -0.006983  -0.001039  -0.145349  -0.029197
     59      -0.028154   0.062249   0.041655  -0.032116   0.065527  -0.007708
     60      -0.084921   0.006253  -0.048177   0.164958   0.046162   0.014759
     61      -0.040291   0.004808  -0.008575  -0.018937  -0.148196  -0.025077
     62      -0.042626   0.024923   0.034355  -0.020111   0.082755   0.009075
     63      -0.192403   0.060266  -0.071169   0.398955   0.082772   0.024463
     64      -0.111321   0.050560  -0.040118   0.201131  -0.107603  -0.013089
     65       0.012738   0.028173  -0.007206   0.048010   0.091171   0.005638
     66      -0.150362   0.068500   0.062220  -0.084688   0.046654  -0.008194
     67       0.008469   0.025604  -0.008699  -0.083255   0.036082  -0.012099
     68      -0.052297   0.040261   0.040421   0.027503  -0.074771  -0.003624
     69       0.035684  -0.034957  -0.017061  -0.011518   0.038114   0.031644
     70      -0.043461  -0.026187  -0.013282  -0.004769  -0.095182   0.007506
     71      -0.080643  -0.034935   0.018832   0.041544  -0.095874   0.009463
     72       0.045418   0.016309   0.035699   0.031906  -0.078471  -0.020204
     73      -0.008702  -0.006241  -0.003495  -0.075796   0.083826   0.003355
     74      -0.090334  -0.048188   0.015734   0.037390  -0.057230   0.023079
     75       0.134792   0.026807   0.017111   0.019795   0.070155   0.015828
     76       0.021300  -0.033928  -0.087731   0.002445  -0.020830  -0.009301
     77       0.095495   0.112189   0.158593   0.075259   0.108540   0.027723
     78       0.035208  -0.082206  -0.085976  -0.078655  -0.015731   0.019732
     79      -0.016210   0.050616   0.077459   0.056936   0.026588   0.009633
     80       0.164869  -0.097430  -0.229050  -0.066375  -0.013939  -0.014759
     81       0.061816   0.019968   0.024833   0.016821  -0.040480  -0.040893
     82       0.069706   0.007111   0.010346   0.015262   0.012811  -0.019943
     83       0.055224   0.065219   0.031409  -0.043461   0.075906  -0.186386
     84      -0.034971  -0.067585  -0.016569   0.019900   0.015788  -0.102921
     85       0.017322  -0.053869  -0.018546   0.060784  -0.073828   0.183282
     86       0.137905   0.152818   0.072916  -0.087863   0.138837  -0.357340
     87       0.119842   0.113708   0.057704  -0.057041   0.008069  -0.000144
     88       0.151809   0.087169   0.051435  -0.022567   0.087980  -0.262600
     89       0.102560   0.113188   0.055361  -0.067648   0.119289  -0.316803
[...]
  27:       272.27    0.000000  (  0.000000   0.000000   0.000000)
  28:       276.15    0.000000  (  0.000000   0.000000   0.000000)
  29:       323.27    0.000000  (  0.000000   0.000000   0.000000)
  30:       350.90    0.000000  (  0.000000   0.000000   0.000000)
  31:       379.80    0.000000  (  0.000000   0.000000   0.000000)
  32:       388.66    0.000000  (  0.000000   0.000000   0.000000)
  33:       394.75    0.000000  (  0.000000   0.000000   0.000000)
  34:       405.90    0.000000  (  0.000000   0.000000   0.000000)
  35:       415.98    0.000000  (  0.000000   0.000000   0.000000)
  36:       430.64    0.000000  (  0.000000   0.000000   0.000000)
  37:       478.21    0.000000  (  0.000000   0.000000   0.000000)
  38:       524.10    0.000000  (  0.000000   0.000000   0.000000)
  39:       537.06    0.000000  (  0.000000   0.000000   0.000000)
  40:       588.84    0.000000  (  0.000000   0.000000   0.000000)
  41:       606.12    0.000000  (  0.000000   0.000000   0.000000)
  42:       639.52    0.000000  (  0.000000   0.000000   0.000000)
  43:       657.77    0.000000  (  0.000000   0.000000   0.000000)
  44:       678.58    0.000000  (  0.000000   0.000000   0.000000)
  45:       741.88    0.000000  (  0.000000   0.000000   0.000000)
  46:       769.52    0.000000  (  0.000000   0.000000   0.000000)
  47:       770.93    0.000000  (  0.000000   0.000000   0.000000)
  48:       808.16    0.000000  (  0.000000   0.000000   0.000000)
  49:       818.92    0.000000  (  0.000000   0.000000   0.000000)
  50:       828.29    0.000000  (  0.000000   0.000000   0.000000)
  51:       840.83    0.000000  (  0.000000   0.000000   0.000000)
  52:       883.23    0.000000  (  0.000000   0.000000   0.000000)
  53:       902.54    0.000000  (  0.000000   0.000000   0.000000)
  54:       907.19    0.000000  (  0.000000   0.000000   0.000000)
  55:       929.30    0.000000  (  0.000000   0.000000   0.000000)
  56:       932.01    0.000000  (  0.000000   0.000000   0.000000)
  57:       935.77    0.000000  (  0.000000   0.000000   0.000000)
  58:       945.24    0.000000  (  0.000000   0.000000   0.000000)
  59:       950.77    0.000000  (  0.000000   0.000000   0.000000)
  60:       953.97    0.000000  (  0.000000   0.000000   0.000000)
  61:       977.70    0.000000  (  0.000000   0.000000   0.000000)
  62:       995.51    0.000000  (  0.000000   0.000000   0.000000)
  63:      1012.02    0.000000  (  0.000000   0.000000   0.000000)
  64:      1026.38    0.000000  (  0.000000   0.000000   0.000000)
  65:      1040.80    0.000000  (  0.000000   0.000000   0.000000)
  66:      1069.46    0.000000  (  0.000000   0.000000   0.000000)
  67:      1071.43    0.000000  (  0.000000   0.000000   0.000000)
  68:      1089.62    0.000000  (  0.000000   0.000000   0.000000)
  69:      1093.49    0.000000  (  0.000000   0.000000   0.000000)
  70:      1094.92    0.000000  (  0.000000   0.000000   0.000000)
  71:      1110.69    0.000000  (  0.000000   0.000000   0.000000)
  72:      1120.47    0.000000  (  0.000000   0.000000   0.000000)
  73:      1127.42    0.000000  (  0.000000   0.000000   0.000000)
  74:      1140.50    0.000000  (  0.000000   0.000000   0.000000)
  75:      1154.27    0.000000  (  0.000000   0.000000   0.000000)
  76:      1156.62    0.000000  (  0.000000   0.000000   0.000000)
  77:      1176.44    0.000000  (  0.000000   0.000000   0.000000)
  78:      1183.93    0.000000  (  0.000000   0.000000   0.000000)
  79:      1195.74    0.000000  (  0.000000   0.000000   0.000000)
  80:      1196.68    0.000000  (  0.000000   0.000000   0.000000)
  81:      1217.18    0.000000  (  0.000000   0.000000   0.000000)
  82:      1235.63    0.000000  (  0.000000   0.000000   0.000000)
  83:      1246.22    0.000000  (  0.000000   0.000000   0.000000)
  84:      1251.99    0.000000  (  0.000000   0.000000   0.000000)
  85:      1269.15    0.000000  (  0.000000   0.000000   0.000000)
  86:      1273.55    0.000000  (  0.000000   0.000000   0.000000)
  87:      1276.12    0.000000  (  0.000000   0.000000   0.000000)
  88:      1278.08    0.000000  (  0.000000   0.000000   0.000000)
  89:      1280.78    0.000000  (  0.000000   0.000000   0.000000)
  90:      1283.77    0.000000  (  0.000000   0.000000   0.000000)
  91:      1289.57    0.000000  (  0.000000   0.000000   0.000000)
  92:      1293.71    0.000000  (  0.000000   0.000000   0.000000)
  93:      1314.33    0.000000  (  0.000000   0.000000   0.000000)
  94:      1340.91    0.000000  (  0.000000   0.000000   0.000000)
  95:      1354.49    0.000000  (  0.000000   0.000000   0.000000)
  96:      1372.19    0.000000  (  0.000000   0.000000   0.000000)
  97:      1374.53    0.000000  (  0.000000   0.000000   0.000000)
  98:      1414.43    0.000000  (  0.000000   0.000000   0.000000)
  99:      1418.74    0.000000  (  0.000000   0.000000   0.000000)
 100:      1427.85    0.000000  (  0.000000   0.000000   0.000000)
 101:      1429.50    0.000000  (  0.000000   0.000000   0.000000)
 102:      1446.15    0.000000  (  0.000000   0.000000   0.000000)
 103:      1456.39    0.000000  (  0.000000   0.000000   0.000000)
 104:      1468.76    0.000000  (  0.000000   0.000000   0.000000)
 105:      1469.88    0.000000  (  0.000000   0.000000   0.000000)
 106:      1482.03    0.000000  (  0.000000   0.000000   0.000000)
 107:      1494.57    0.000000  (  0.000000   0.000000   0.000000)
 108:      1496.83    0.000000  (  0.000000   0.000000   0.000000)
 109:      1501.90    0.000000  (  0.000000   0.000000   0.000000)
 110:      1504.59    0.000000  (  0.000000   0.000000   0.000000)
 111:      1506.54    0.000000  (  0.000000   0.000000   0.000000)
 112:      1506.71    0.000000  (  0.000000   0.000000   0.000000)
 113:      1511.05    0.000000  (  0.000000   0.000000   0.000000)
 114:      1511.72    0.000000  (  0.000000   0.000000   0.000000)
 115:      1546.21    0.000000  (  0.000000   0.000000   0.000000)
 116:      1565.13    0.000000  (  0.000000   0.000000   0.000000)
 117:      1573.07    0.000000  (  0.000000   0.000000   0.000000)
 118:      2194.06    0.000000  (  0.000000   0.000000   0.000000)
 119:      2651.46    0.000000  (  0.000000   0.000000   0.000000)
 120:      2931.05    0.000000  (  0.000000   0.000000   0.000000)
 121:      2937.49    0.000000  (  0.000000   0.000000   0.000000)
 122:      2945.79    0.000000  (  0.000000   0.000000   0.000000)
 123:      2953.56    0.000000  (  0.000000   0.000000   0.000000)
 124:      2956.12    0.000000  (  0.000000   0.000000   0.000000)
 125:      2963.15    0.000000  (  0.000000   0.000000   0.000000)
 126:      2970.33    0.000000  (  0.000000   0.000000   0.000000)
 127:      2973.91    0.000000  (  0.000000   0.000000   0.000000)
 128:      2975.83    0.000000  (  0.000000   0.000000   0.000000)
 129:      2978.95    0.000000  (  0.000000   0.000000   0.000000)
 130:      2981.07    0.000000  (  0.000000   0.000000   0.000000)
 131:      2985.20    0.000000  (  0.000000   0.000000   0.000000)
 132:      2986.10    0.000000  (  0.000000   0.000000   0.000000)
 133:      2989.97    0.000000  (  0.000000   0.000000   0.000000)
 134:      2999.43    0.000000  (  0.000000   0.000000   0.000000)
 135:      3001.37    0.000000  (  0.000000   0.000000   0.000000)
 136:      3022.94    0.000000  (  0.000000   0.000000   0.000000)
 137:      3024.68    0.000000  (  0.000000   0.000000   0.000000)
 138:      3043.32    0.000000  (  0.000000   0.000000   0.000000)
 139:      3048.20    0.000000  (  0.000000   0.000000   0.000000)
 140:      3052.61    0.000000  (  0.000000   0.000000   0.000000)
 141:      3064.72    0.000000  (  0.000000   0.000000   0.000000)
 142:      3067.18    0.000000  (  0.000000   0.000000   0.000000)
 143:      3092.23    0.000000  (  0.000000   0.000000   0.000000)
 144:      3357.48    0.000000  (  0.000000   0.000000   0.000000)
 145:      3395.02    0.000000  (  0.000000   0.000000   0.000000)
 146:      3630.59    0.000000  (  0.000000   0.000000   0.000000)

The first frequency considered to be a vibration is 8
The total number of vibrations considered is 139


--------------------------
THERMOCHEMISTRY AT 298.15K
--------------------------

Temperature         ... 298.15 K
Pressure            ... 1.00 atm
Total Mass          ... 270.42 AMU

Throughout the following assumptions are being made:
  (1) The electronic state is orbitally nondegenerate
  (2) There are no thermally accessible electronically excited states
  (3) Hindered rotations indicated by low frequency modes are not
      treated as such but are treated as vibrations and this may
      cause some error
  (4) All equations used are the standard statistical mechanics
      equations for an ideal gas
  (5) All vibrations are strictly harmonic

freq.      38.02  E(vib)   ...       0.54 
freq.      48.28  E(vib)   ...       0.53 
freq.      54.02  E(vib)   ...       0.52 
freq.      65.40  E(vib)   ...       0.50 
freq.      72.37  E(vib)   ...       0.50 
freq.      77.23  E(vib)   ...       0.49 
freq.      81.73  E(vib)   ...       0.48 
freq.      94.72  E(vib)   ...       0.47 
freq.     108.00  E(vib)   ...       0.45 
freq.     116.73  E(vib)   ...       0.44 
freq.     126.18  E(vib)   ...       0.43 
freq.     131.14  E(vib)   ...       0.42 
freq.     149.19  E(vib)   ...       0.40 
freq.     177.95  E(vib)   ...       0.37 
freq.     189.15  E(vib)   ...       0.36 
freq.     209.42  E(vib)   ...       0.34 
freq.     223.74  E(vib)   ...       0.33 
freq.     236.04  E(vib)   ...       0.32 
freq.     261.23  E(vib)   ...       0.30 
freq.     272.27  E(vib)   ...       0.29 
freq.     276.15  E(vib)   ...       0.28 
freq.     323.27  E(vib)   ...       0.25 
freq.     350.90  E(vib)   ...       0.23 
freq.     379.80  E(vib)   ...       0.21 
freq.     388.66  E(vib)   ...       0.20 
freq.     394.75  E(vib)   ...       0.20 
freq.     405.90  E(vib)   ...       0.19 
freq.     415.98  E(vib)   ...       0.18 
freq.     430.64  E(vib)   ...       0.18 
freq.     478.21  E(vib)   ...       0.15 
freq.     524.10  E(vib)   ...       0.13 
freq.     537.06  E(vib)   ...       0.12 
freq.     588.84  E(vib)   ...       0.10 
freq.     606.12  E(vib)   ...       0.10 
freq.     639.52  E(vib)   ...       0.09 
freq.     657.77  E(vib)   ...       0.08 
freq.     678.58  E(vib)   ...       0.08 
freq.     741.88  E(vib)   ...       0.06 
freq.     769.52  E(vib)   ...       0.06 
freq.     770.93  E(vib)   ...       0.05 
freq.     808.16  E(vib)   ...       0.05 
freq.     818.92  E(vib)   ...       0.05 
freq.     828.29  E(vib)   ...       0.04 
freq.     840.83  E(vib)   ...       0.04 
freq.     883.23  E(vib)   ...       0.04 
freq.     902.54  E(vib)   ...       0.03 
freq.     907.19  E(vib)   ...       0.03 
freq.     929.30  E(vib)   ...       0.03 
freq.     932.01  E(vib)   ...       0.03 
freq.     935.77  E(vib)   ...       0.03 
freq.     945.24  E(vib)   ...       0.03 
freq.     950.77  E(vib)   ...       0.03 
freq.     953.97  E(vib)   ...       0.03 
freq.     977.70  E(vib)   ...       0.03 
freq.     995.51  E(vib)   ...       0.02 
freq.    1012.02  E(vib)   ...       0.02 
freq.    1026.38  E(vib)   ...       0.02 
freq.    1040.80  E(vib)   ...       0.02 
freq.    1069.46  E(vib)   ...       0.02 
freq.    1071.43  E(vib)   ...       0.02 
freq.    1089.62  E(vib)   ...       0.02 
freq.    1093.49  E(vib)   ...       0.02 
freq.    1094.92  E(vib)   ...       0.02 
freq.    1110.69  E(vib)   ...       0.02 
freq.    1120.47  E(vib)   ...       0.01 
freq.    1127.42  E(vib)   ...       0.01 
freq.    1140.50  E(vib)   ...       0.01 
freq.    1154.27  E(vib)   ...       0.01 
freq.    1156.62  E(vib)   ...       0.01 
freq.    1176.44  E(vib)   ...       0.01 
freq.    1183.93  E(vib)   ...       0.01 
freq.    1195.74  E(vib)   ...       0.01 
freq.    1196.68  E(vib)   ...       0.01 
freq.    1217.18  E(vib)   ...       0.01 
freq.    1235.63  E(vib)   ...       0.01 
freq.    1246.22  E(vib)   ...       0.01 
freq.    1251.99  E(vib)   ...       0.01 
freq.    1269.15  E(vib)   ...       0.01 
freq.    1273.55  E(vib)   ...       0.01 
freq.    1276.12  E(vib)   ...       0.01 
freq.    1278.08  E(vib)   ...       0.01 
freq.    1280.78  E(vib)   ...       0.01 
freq.    1283.77  E(vib)   ...       0.01 
freq.    1289.57  E(vib)   ...       0.01 
freq.    1293.71  E(vib)   ...       0.01 
freq.    1314.33  E(vib)   ...       0.01 
freq.    1340.91  E(vib)   ...       0.01 
freq.    1354.49  E(vib)   ...       0.01 
freq.    1372.19  E(vib)   ...       0.01 
freq.    1374.53  E(vib)   ...       0.01 
freq.    1414.43  E(vib)   ...       0.00 
freq.    1418.74  E(vib)   ...       0.00 
freq.    1427.85  E(vib)   ...       0.00 
freq.    1429.50  E(vib)   ...       0.00 
freq.    1446.15  E(vib)   ...       0.00 
freq.    1456.39  E(vib)   ...       0.00 
freq.    1468.76  E(vib)   ...       0.00 
freq.    1469.88  E(vib)   ...       0.00 
freq.    1482.03  E(vib)   ...       0.00 
freq.    1494.57  E(vib)   ...       0.00 
freq.    1496.83  E(vib)   ...       0.00 
freq.    1501.90  E(vib)   ...       0.00 
freq.    1504.59  E(vib)   ...       0.00 
freq.    1506.54  E(vib)   ...       0.00 
freq.    1506.71  E(vib)   ...       0.00 
freq.    1511.05  E(vib)   ...       0.00 
freq.    1511.72  E(vib)   ...       0.00 
freq.    1546.21  E(vib)   ...       0.00 
freq.    1565.13  E(vib)   ...       0.00 
freq.    1573.07  E(vib)   ...       0.00 
freq.    2194.06  E(vib)   ...       0.00 
freq.    2651.46  E(vib)   ...       0.00 
freq.    2931.05  E(vib)   ...       0.00 
freq.    2937.49  E(vib)   ...       0.00 
freq.    2945.79  E(vib)   ...       0.00 
freq.    2953.56  E(vib)   ...       0.00 
freq.    2956.12  E(vib)   ...       0.00 
freq.    2963.15  E(vib)   ...       0.00 
freq.    2970.33  E(vib)   ...       0.00 
freq.    2973.91  E(vib)   ...       0.00 
freq.    2975.83  E(vib)   ...       0.00 
freq.    2978.95  E(vib)   ...       0.00 
freq.    2981.07  E(vib)   ...       0.00 
freq.    2985.20  E(vib)   ...       0.00 
freq.    2986.10  E(vib)   ...       0.00 
freq.    2989.97  E(vib)   ...       0.00 
freq.    2999.43  E(vib)   ...       0.00 
freq.    3001.37  E(vib)   ...       0.00 
freq.    3022.94  E(vib)   ...       0.00 
freq.    3024.68  E(vib)   ...       0.00 
freq.    3043.32  E(vib)   ...       0.00 
freq.    3048.20  E(vib)   ...       0.00 
freq.    3052.61  E(vib)   ...       0.00 
freq.    3064.72  E(vib)   ...       0.00 
freq.    3067.18  E(vib)   ...       0.00 
freq.    3092.23  E(vib)   ...       0.00 
freq.    3357.48  E(vib)   ...       0.00 
freq.    3395.02  E(vib)   ...       0.00 
freq.    3630.59  E(vib)   ...       0.00 

------------
INNER ENERGY
------------

The inner energy is: U= E(el) + E(ZPE) + E(vib) + E(rot) + E(trans)
    E(el)   - is the total energy from the electronic structure calculation
              = E(kin-el) + E(nuc-el) + E(el-el) + E(nuc-nuc)
    E(ZPE)  - the the zero temperature vibrational energy from the frequency calculation
    E(vib)  - the the finite temperature correction to E(ZPE) due to population
              of excited vibrational states
    E(rot)  - is the rotational thermal energy
    E(trans)- is the translational thermal energy

Summary of contributions to the inner energy U:
Electronic energy                ...    -61.37188790 Eh
Zero point energy                ...      0.42287287 Eh     265.36 kcal/mol
Thermal vibrational correction   ...      0.01974371 Eh      12.39 kcal/mol
Thermal rotational correction    ...      0.00141627 Eh       0.89 kcal/mol
Thermal translational correction ...      0.00141627 Eh       0.89 kcal/mol
-----------------------------------------------------------------------
Total thermal energy                    -60.92643879 Eh


Summary of corrections to the electronic energy:
(perhaps to be used in another calculation)
Total thermal correction                  0.02257625 Eh      14.17 kcal/mol
Non-thermal (ZPE) correction              0.42287287 Eh     265.36 kcal/mol
-----------------------------------------------------------------------
Total correction                          0.44544912 Eh     279.52 kcal/mol


--------
ENTHALPY
--------

The enthalpy is H = U + kB*T
                kB is Boltzmann's constant
Total free energy                 ...    -60.92643879 Eh 
Thermal Enthalpy correction       ...      0.00094421 Eh       0.59 kcal/mol
-----------------------------------------------------------------------
Total Enthalpy                    ...    -60.92549458 Eh


Note: Only C1 symmetry has been detected, increase convergence thresholds 
      if your molecule has a higher symmetry. Symmetry factor of 1.0 is   
      used for the rotational entropy correction. 
 

Note: Rotational entropy computed according to Herzberg 
Infrared and Raman Spectra, Chapter V,1, Van Nostrand Reinhold, 1945 
Point Group:  C1, Symmetry Number:   1  
Rotational constants in cm-1:     0.015029     0.007133     0.005974 

Vibrational entropy computed according to the QRRHO of S. Grimme
Chem.Eur.J. 2012 18 9955


-------
ENTROPY
-------

The entropy contributions are T*S = T*(S(el)+S(vib)+S(rot)+S(trans))
     S(el)   - electronic entropy
     S(vib)  - vibrational entropy
     S(rot)  - rotational entropy
     S(trans)- translational entropy
The entropies will be listed as mutliplied by the temperature to get
units of energy

Electronic entropy                ...      0.00000000 Eh      0.00 kcal/mol
Vibrational entropy               ...      0.03520538 Eh     22.09 kcal/mol
Rotational entropy                ...      0.01624343 Eh     10.19 kcal/mol
Translational entropy             ...      0.02028014 Eh     12.73 kcal/mol
-----------------------------------------------------------------------
Final entropy term                ...      0.07172896 Eh     45.01 kcal/mol

In case the symmetry of your molecule has not been determined correctly
or in case you have a reason to use a different symmetry number we print 
out the resulting rotational entropy values for sn=1,12 :
 --------------------------------------------------------
|  sn= 1 | S(rot)=       0.01624343 Eh     10.19 kcal/mol|
|  sn= 2 | S(rot)=       0.01558898 Eh      9.78 kcal/mol|
|  sn= 3 | S(rot)=       0.01520614 Eh      9.54 kcal/mol|
|  sn= 4 | S(rot)=       0.01493452 Eh      9.37 kcal/mol|
|  sn= 5 | S(rot)=       0.01472383 Eh      9.24 kcal/mol|
|  sn= 6 | S(rot)=       0.01455169 Eh      9.13 kcal/mol|
|  sn= 7 | S(rot)=       0.01440614 Eh      9.04 kcal/mol|
|  sn= 8 | S(rot)=       0.01428006 Eh      8.96 kcal/mol|
|  sn= 9 | S(rot)=       0.01416885 Eh      8.89 kcal/mol|
|  sn=10 | S(rot)=       0.01406937 Eh      8.83 kcal/mol|
|  sn=11 | S(rot)=       0.01397938 Eh      8.77 kcal/mol|
|  sn=12 | S(rot)=       0.01389723 Eh      8.72 kcal/mol|
 --------------------------------------------------------


-------------------
GIBBS FREE ENERGY
-------------------

The Gibbs free energy is G = H - T*S

Total enthalpy                    ...    -60.92549458 Eh 
Total entropy correction          ...     -0.07172896 Eh    -45.01 kcal/mol
-----------------------------------------------------------------------
Final Gibbs free energy         ...    -60.99722353 Eh

For completeness - the Gibbs free energy minus the electronic energy
G-E(el)                           ...      0.37466437 Eh    235.10 kcal/mol


Total Time for Numerical Frequencies  :       202.691 sec
Time for Reference State(s)           :         0.245 sec
Time for Displacements                :       181.468 sec

Timings for individual modules:

Sum of individual times         ...        0.514 sec (=   0.009 min)
XTB module                      ...        0.514 sec (=   0.009 min) 100.0 %
                             ****ORCA TERMINATED NORMALLY****
TOTAL RUN TIME: 0 days 0 hours 3 minutes 23 seconds 994 msec
