(SLURM) JOB ID:         389

                                 *****************
                                 * O   R   C   A *
                                 *****************

           --- An Ab Initio, DFT and Semiempirical electronic structure package ---

                  #######################################################
                  #                        -***-                        #
                  #          Department of theory and spectroscopy      #
                  #               Directorship: Frank Neese             #
                  #        Max Planck Institute fuer Kohlenforschung    #
                  #                Kaiser Wilhelm Platz 1               #
                  #                 D-45470 Muelheim/Ruhr               #
                  #                      Germany                        #
                  #                                                     #
                  #                  All rights reserved                #
                  #                        -***-                        #
                  #######################################################


                         Program Version 4.2.1 -  RELEASE  -


 With contributions from (in alphabetic order):
   Daniel Aravena         : Magnetic Suceptibility
   Michael Atanasov       : Ab Initio Ligand Field Theory (pilot matlab implementation)
   Alexander A. Auer      : GIAO ZORA, VPT2
   Ute Becker             : Parallelization
   Giovanni Bistoni       : ED, misc. LED, open-shell LED, HFLD
   Martin Brehm           : Molecular dynamics
   Dmytro Bykov           : SCF Hessian
   Vijay G. Chilkuri      : MRCI spin determinant printing, contributions to CSF-ICE
   Dipayan Datta          : RHF DLPNO-CCSD density
   Achintya Kumar Dutta   : EOM-CC, STEOM-CC
   Dmitry Ganyushin       : Spin-Orbit,Spin-Spin,Magnetic field MRCI
   Miquel Garcia          : C-PCM Hessian, Gaussian charge scheme
   Yang Guo               : DLPNO-NEVPT2, CIM, IAO-localization
   Andreas Hansen         : Spin unrestricted coupled pair/coupled cluster methods
   Benjamin Helmich-Paris : CASSCF linear response (MC-RPA)
   Lee Huntington         : MR-EOM, pCC
   Robert Izsak           : Overlap fitted RIJCOSX, COSX-SCS-MP3, EOM
   Christian Kollmar      : KDIIS, OOCD, Brueckner-CCSD(T), CCSD density
   Simone Kossmann        : Meta GGA functionals, TD-DFT gradient, OOMP2, MP2 Hessian
   Martin Krupicka        : AUTO-CI
   Lucas Lang             : DCDCAS
   Dagmar Lenk            : GEPOL surface, SMD
   Dimitrios Liakos       : Extrapolation schemes; Compound Job, initial MDCI parallelization
   Dimitrios Manganas     : Further ROCIS development; embedding schemes
   Dimitrios Pantazis     : SARC Basis sets
   Taras Petrenko         : DFT Hessian,TD-DFT gradient, ASA, ECA, R-Raman, ABS, FL, XAS/XES, NRVS
   Peter Pinski           : DLPNO-MP2, DLPNO-MP2 Gradient
   Christoph Reimann      : Effective Core Potentials
   Marius Retegan         : Local ZFS, SOC
   Christoph Riplinger    : Optimizer, TS searches, QM/MM, DLPNO-CCSD(T), (RO)-DLPNO pert. Triples
   Tobias Risthaus        : Range-separated hybrids, TD-DFT gradient, RPA, STAB
   Michael Roemelt        : Original ROCIS implementation
   Masaaki Saitow         : Open-shell DLPNO-CCSD energy and density
   Barbara Sandhoefer     : DKH picture change effects
   Avijit Sen             : IP-ROCIS
   Kantharuban Sivalingam : CASSCF convergence, NEVPT2, FIC-MRCI
   Bernardo de Souza      : ESD, SOC TD-DFT
   Georgi Stoychev        : AutoAux, RI-MP2 NMR
   Willem Van den Heuvel  : Paramagnetic NMR
   Boris Wezisla          : Elementary symmetry handling
   Frank Wennmohs         : Technical directorship


 We gratefully acknowledge several colleagues who have allowed us to
 interface, adapt or use parts of their codes:
   Stefan Grimme, W. Hujo, H. Kruse,             : VdW corrections, initial TS optimization,
                  C. Bannwarth                     DFT functionals, gCP, sTDA/sTD-DF
   Ed Valeev, F. Pavosevic, A. Kumar             : LibInt (2-el integral package), F12 methods
   Garnet Chan, S. Sharma, J. Yang, R. Olivares  : DMRG
   Ulf Ekstrom                                   : XCFun DFT Library
   Mihaly Kallay                                 : mrcc  (arbitrary order and MRCC methods)
   Andreas Klamt, Michael Diedenhofen            : otool_cosmo (COSMO solvation model)
   Jiri Pittner, Ondrej Demel                    : Mk-CCSD
   Frank Weinhold                                : gennbo (NPA and NBO analysis)
   Christopher J. Cramer and Donald G. Truhlar   : smd solvation model
   Lars Goerigk                                  : TD-DFT with DH, B97 family of functionals
   V. Asgeirsson, H. Jonsson                     : NEB implementation
   FAccTs GmbH                                   : IRC, NEB, NEB-TS, Multilevel, MM, QM/MM, CI optimization
   S Lehtola, MJT Oliveira, MAL Marques          : LibXC Library


 Your calculation uses the libint2 library for the computation of 2-el integrals
 For citations please refer to: http://libint.valeyev.net

 Your ORCA version has been built with support for libXC version: 4.2.3
 For citations please refer to: https://tddft.org/programs/libxc/

 This ORCA versions uses:
   CBLAS   interface :  Fast vector & matrix operations
   LAPACKE interface :  Fast linear algebra routines
   SCALAPACK package :  Parallel linear algebra routines




***************************************
The coordinates will be read from file: init.xyz
***************************************


Your calculation utilizes the SMD solvation module
Please cite in your paper:
A.V. Marenich, C.J. Cramer, D.G. Truhlar J. Phys. Chem. B, 113, (2009), 6378 

Your calculation utilizes the semiempirical GFN2-xTB method
Please cite in your paper:
C. Bannwarth, Ehlert S., S. Grimme,  J. Chem. Theory Comput., 15, (2019), 1652.
   

----- Orbital basis set information -----
Your calculation utilizes the basis: def2-SVP
   F. Weigend and R. Ahlrichs, Phys. Chem. Chem. Phys. 7, 3297 (2005).

================================================================================
                                        WARNINGS
                       Please study these warnings very carefully!
================================================================================

WARNING: Gradients needed for Numerical Frequencies
  ===> : Setting RunTyp to EnGrad

WARNING: The environment variable RSH_COMMAND is not set!
  ===> : All Displacements for the Numerical Hessian calculation
         will be started on localhost

WARNING: Found dipole moment calculation with XTB calculation
  ===> : Switching off dipole moment calculation


INFO   : the flag for use of LIBINT has been found!

================================================================================
                                       INPUT FILE
================================================================================
NAME = /tmp/slurm-scratch/freq.389/freq.inp
|  1> ! XTB2 NumFreq
|  2> %maxcore 1450
|  3> 
|  4> * xyzfile 0 1 init.xyz
|  5> 
|  6> %cpcm
|  7>  smd true
|  8>  smdsolvent "ch2cl2"
|  9> end
| 10> %pal nprocs 8 end
| 11> 
| 12>                          ****END OF INPUT****
================================================================================

                     *******************************
                     * Energy+Gradient Calculation *
                     *******************************

      -----------------------------------------------------------      
     |                   =====================                   |     
     |                           x T B                           |     
     |                   =====================                   |     
     |                         S. Grimme                         |     
     |          Mulliken Center for Theoretical Chemistry        |     
     |                    University of Bonn                     |     
      -----------------------------------------------------------      

   * xtb version 6.3.0 (preview) compiled by 'ehlert@majestix' on 2020-01-15

   This program is distributed in the hope that it will be useful,
   but WITHOUT ANY WARRANTY; without even the implied warranty of
   MERCHANTABILITY or FITNESS FOR A PARTICULAR PURPOSE.
   
   FOR NON-COMMERCIAL, ACADEMIA USE ONLY.
   
   Cite this work as:
   * S. Grimme, C. Bannwarth, P. Shushkov, J. Chem. Theory Comput., 2017,
     13, 1989-2009. DOI: 10.1021/acs.jctc.7b00118
   * C. Bannwarth, S. Ehlert and S. Grimme., J. Chem. Theory Comput., 2019,
     15, 1652-1671. DOI: 10.1021/acs.jctc.8b01176
   * P. Pracht, E. Caldeweyher, S. Ehlert, S. Grimme, ChemRxiv, 2019, preprint.
     DOI: 10.26434/chemrxiv.8326202.v1
   * S. Grimme, S. Spicher unpublished
   
   for DFT-D4:
   * E. Caldeweyher, C. Bannwarth and S. Grimme, J. Chem. Phys., 2017,
     147, 034112. DOI: 10.1063/1.4993215
   * E. Caldeweyher, S. Ehlert, A. Hansen, H. Neugebauer, S. Spicher,
     C. Bannwarth and S. Grimme, J. Chem. Phys., 2019, 150, 154122.
     DOI: 10.1063/1.5090222
   
   for sTDA-xTB:
   * S. Grimme and C. Bannwarth, J. Chem. Phys., 2016, 145, 054103.
     DOI: 10.1063/1.4959605
   
   in the mass-spec context:
   * V. Asgeirsson, C. Bauer and S. Grimme, Chem. Sci., 2017, 8, 4879.
     DOI: 10.1039/c7sc00601b
   
   for metadynamics refer to:
   * S. Grimme, J. Chem. Theory Comput., 2019, 155, 2847-2862
     DOI: 10.1021/acs.jctc.9b00143
   
   with help from (in alphabetical order)
   C. Bannwarth, F. Bohle, G. Brandenburg, E. Caldeweyher, M. Checinski,
   S. Dohm, S. Ehlert, S. Ehrlich, F. März, H. Neugebauer, J. Pisarek,
   P. Pracht, P. Shushkov, and S. Spicher.
   
 * started run on 2021/03/15 at 15:27:30.181     

           -------------------------------------------------
          |                Calculation Setup                |
           -------------------------------------------------

          program call               : /opt/orca/otool_xtb /tmp/slurm-scratch/freq.389/freq_XTB.xyz --grad -c 0 -u 0 -P 8 --namespace /tmp/slurm-scratch/freq.389/freq --gbsa CH2Cl2
          hostname                   : headnode-pbs
          calculation namespace      : /tmp/slurm-scratch/freq.389/freq
          coordinate file            : /tmp/slurm-scratch/freq.389/freq_XTB.xyz
          omp threads                :                     8
          number of atoms            :                    36
          number of electrons        :                    88
          charge                     :                     0
          spin                       :                   0.0
          first test random number   :      0.12482106062108


molecular fragmentation (1/2 indicates fragments):
111111111111211111212222222111111111
# atoms in fragment 1/2:    27     9
 fragment masses (1/2) :      161.24       54.05
CMA distance (Bohr)    :   6.958
constraining FC (au)   :  0.0500

########################################################################
# WARNING! Please study the warnings concerning your input carefully
#  - Process number higher than OMP_NUM_THREADS, I hope you know what you are doing.
########################################################################

           ------------------------------------------------- 
          |                 G F N 2 - x T B                 |
          | Geometry, Frequencies, Noncovalent interactions |
          |            JCTC 2019 parametrisation            |
           ------------------------------------------------- 
             k(s)              :                1.8500
             k(p)              :                2.2300
             k(d)              :                2.2300
             k(f)              :                2.0000
             kEN (H0ij)        :               -2.0000
             D4 a1             :                0.5200
             D4 a2             :                5.0000
             D4 s6             :                1.0000
             D4 s8             :                2.7000
             D4 s9             :                5.0000
             alphaj            :                2.0000

  Z AO/shell   Hii/eV     exponent
  1     Wed Apr 25 08:07:45 CEST 2018   EN: 2.200 GM2: 0.406  GM3: 0.0800  RAES: 1.40
     1s    -10.707211    1.230000
  6     Wed Apr 25 08:07:45 CEST 2018   EN: 2.550 GM2: 0.538  GM3: 0.1500  RAES: 3.00
     2s    -13.970922    2.096432
     2p    -10.063292    1.800000
  7     Wed Apr 25 08:07:45 CEST 2018   EN: 3.040 GM2: 0.461  GM3:-0.0640  RAES: 1.90
     2s    -16.686243    2.339881
     2p    -12.523956    2.014332
  8     Wed Apr 25 08:07:45 CEST 2018   EN: 3.440 GM2: 0.452  GM3:-0.0517  RAES: 1.80
     2s    -20.229985    2.439742
     2p    -15.503117    2.137023

 Solvent             : CH2Cl2
 Using internal parameter file: .param_gbsa2_CH2Cl2
 Gsolv ref. state (COSMO-RS): gsolv [1 M gas/solution]
 temperature (mdtemp)       :    298.150000000000     
 dielectric constant        :    8.93000000000000     
 rho                        :    1.33000000000000     
 mass                       :    84.9300000000000     
 surface tension            :    15.5689454083859     
 probe radius               :   0.719875900000000     
 Gshift (Eh)                :   4.440829173451759E-003
 c1                         :    1.49173776000000     
 soset                      :   0.000000000000000E+000
 HB correction              :  F
           ------------------------------------------------- 
          |        Self-Consistent Charge Iterations        |
           ------------------------------------------------- 

          ...................................................
          :                      SETUP                      :
          :.................................................:
          :  # basis functions                  81          :
          :  # atomic orbitals                  81          :
          :  # shells                           51          :
          :  # electrons                        88          :
          :  max. iterations                   250          :
          :  Hamiltonian                  GFN2-xTB          :
          :  GBSA solvation                   true          :
          :  PC potential                    false          :
          :  electronic temp.          300.0000000     K    :
          :  accuracy                    1.0000000          :
          :  -> integral cutoff          0.2500000E+02      :
          :  -> integral neglect         0.1000000E-07      :
          :  -> SCF convergence          0.1000000E-05 Eh   :
          :  -> wf. convergence          0.1000000E-03 e    :
          :  Broyden damping             0.4000000          :
          ...................................................
  Checking positiv definite overlap ...  done.
 

 iter      E             dE          RMSdq      gap      omega  full diag
   1    -49.9632347 -0.499632E+02  0.358E+00    3.28       0.0  T
   2    -49.9993105 -0.360758E-01  0.214E+00    3.35       1.0  T
   3    -49.9926428  0.666761E-02  0.791E-01    2.97       1.0  T
   4    -50.0032850 -0.106421E-01  0.315E-01    3.16       1.0  T
   5    -50.0051364 -0.185139E-02  0.673E-02    3.10       1.0  T
   6    -50.0051494 -0.130233E-04  0.310E-02    3.11       1.0  T
   7    -50.0051541 -0.476016E-05  0.148E-02    3.11       1.1  T
   8    -50.0051565 -0.231783E-05  0.405E-03    3.11       4.1  T
   9    -50.0051567 -0.202521E-06  0.155E-03    3.11      10.7  T
  10    -50.0051567 -0.232372E-08  0.818E-04    3.11      20.4  T
  11    -50.0051567 -0.907070E-08  0.278E-04    3.11      59.8  T

   *** convergence criteria satisfied after 11 iterations ***

         #    Occupation            Energy/Eh            Energy/eV
      -------------------------------------------------------------
         1        2.0000           -0.6801281             -18.5072
       ...           ...                  ...                  ...
        38        2.0000           -0.4336067             -11.7990
        39        2.0000           -0.4300993             -11.7036
        40        2.0000           -0.4287120             -11.6658
        41        2.0000           -0.4272827             -11.6270
        42        2.0000           -0.4149934             -11.2925
        43        2.0000           -0.4071549             -11.0792
        44        2.0000           -0.3949040             -10.7459 (HOMO)
        45                         -0.2806784              -7.6376 (LUMO)
        46                         -0.2345105              -6.3814
        47                         -0.1982375              -5.3943
        48                         -0.0952740              -2.5925
        49                          0.0149461               0.4067
       ...                                ...                  ...
        81                          0.6464178              17.5899
      -------------------------------------------------------------
                  HL-Gap            0.1142256 Eh            3.1082 eV
             Fermi-level           -0.3377912 Eh           -9.1918 eV

 SCC (total)                   0 d,  0 h,  0 min,  0.047 sec
 SCC setup                      ...        0 min,  0.002 sec (  3.731%)
 Dispersion                     ...        0 min,  0.001 sec (  1.077%)
 integral evaluation            ...        0 min,  0.010 sec ( 21.057%)
 zeroth order Hamiltonian       ...        0 min,  0.000 sec (  0.040%)
 iterations                     ...        0 min,  0.022 sec ( 47.107%)
 molecular gradient             ...        0 min,  0.012 sec ( 25.690%)
 printout                       ...        0 min,  0.001 sec (  1.157%)

         :::::::::::::::::::::::::::::::::::::::::::::::::::::
         ::                     SUMMARY                     ::
         :::::::::::::::::::::::::::::::::::::::::::::::::::::
         :: total energy             -49.367008053603 Eh    ::
         :: total w/o Gsasa/hb       -49.347614592018 Eh    ::
         :: gradient norm              0.024388990368 Eh/a0 ::
         :: HOMO-LUMO gap              3.108237004777 eV    ::
         ::.................................................::
         :: SCC energy               -50.024550134291 Eh    ::
         :: -> isotropic ES            0.116797126077 Eh    ::
         :: -> anisotropic ES         -0.007104429099 Eh    ::
         :: -> anisotropic XC          0.026157257736 Eh    ::
         :: -> dispersion             -0.027390225194 Eh    ::
         :: -> Gsolv                  -0.028942590670 Eh    ::
         ::    -> Gborn               -0.009549129086 Eh    ::
         ::    -> Gsasa               -0.023834290758 Eh    ::
         ::    -> Ghb                  0.000000000000 Eh    ::
         ::    -> Gshift               0.004440829173 Eh    ::
         :: repulsion energy           0.657351895979 Eh    ::
         :: add. restraining           0.000000000000 Eh    ::
         :::::::::::::::::::::::::::::::::::::::::::::::::::::

           -------------------------------------------------
          |                Property Printout                |
           -------------------------------------------------

    * Orbital Energies and Occupations

         #    Occupation            Energy/Eh            Energy/eV
      -------------------------------------------------------------
         1        2.0000           -0.6801281             -18.5072
       ...           ...                  ...                  ...
        32        2.0000           -0.4658757             -12.6771
        33        2.0000           -0.4502980             -12.2532
        34        2.0000           -0.4456464             -12.1267
        35        2.0000           -0.4448550             -12.1051
        36        2.0000           -0.4410100             -12.0005
        37        2.0000           -0.4399432             -11.9715
        38        2.0000           -0.4336067             -11.7990
        39        2.0000           -0.4300993             -11.7036
        40        2.0000           -0.4287120             -11.6658
        41        2.0000           -0.4272827             -11.6270
        42        2.0000           -0.4149934             -11.2925
        43        2.0000           -0.4071549             -11.0792
        44        2.0000           -0.3949040             -10.7459 (HOMO)
        45                         -0.2806784              -7.6376 (LUMO)
        46                         -0.2345105              -6.3814
        47                         -0.1982375              -5.3943
        48                         -0.0952740              -2.5925
        49                          0.0149461               0.4067
        50                          0.0388741               1.0578
        51                          0.0908533               2.4722
        52                          0.0947558               2.5784
        53                          0.0976882               2.6582
        54                          0.1144957               3.1156
        55                          0.1164586               3.1690
       ...                                ...                  ...
        81                          0.6464178              17.5899
      -------------------------------------------------------------
                  HL-Gap            0.1142256 Eh            3.1082 eV
             Fermi-level           -0.3377912 Eh           -9.1918 eV

     #   Z        covCN         q      C6AA      α(0)
     1   6 C      2.970     0.005    27.903     8.664
     2   6 C      2.918    -0.028    28.698     8.785
     3   6 C      2.914    -0.029    28.725     8.789
     4   6 C      2.916    -0.028    28.692     8.784
     5   6 C      2.913    -0.029    28.736     8.790
     6   6 C      2.923    -0.028    28.709     8.787
     7   6 C      2.856     0.079    26.228     8.394
     8   1 H      0.926     0.061     2.188     2.313
     9   1 H      0.925     0.041     2.437     2.441
    10   1 H      0.925     0.046     2.369     2.407
    11   7 N      1.826    -0.258    27.554     7.778
    12   6 C      3.764     0.016    20.346     6.429
    13   1 H      0.802     0.318     0.669     1.285
    14   6 C      3.802    -0.058    21.624     6.620
    15   1 H      0.924     0.014     2.821     2.626
    16   1 H      0.924     0.049     2.334     2.389
    17   1 H      0.924     0.046     2.366     2.405
    18   1 H      0.924     0.035     2.514     2.479
    19   8 O      1.609    -0.631    25.931     6.873
    20   1 H      0.924     0.011     2.876     2.652
    21   1 H      0.805     0.282     0.777     1.385
    22   8 O      1.607    -0.625    25.795     6.855
    23   1 H      0.803     0.313     0.684     1.299
    24   1 H      0.805     0.290     0.753     1.363
    25   8 O      1.606    -0.621    25.703     6.842
    26   1 H      0.802     0.325     0.650     1.267
    27   1 H      0.805     0.290     0.750     1.361
    28   1 H      0.925     0.050     2.325     2.385
    29   1 H      0.925     0.044     2.394     2.420
    30   6 C      3.800    -0.053    21.532     6.607
    31   1 H      0.924     0.034     2.525     2.485
    32   1 H      0.924     0.031     2.568     2.506
    33   6 C      3.750    -0.103    22.525     6.769
    34   1 H      0.924     0.037     2.487     2.466
    35   1 H      0.924     0.037     2.486     2.466
    36   1 H      0.924     0.035     2.512     2.478

 Mol. C6AA /au·bohr⁶  :      10950.840163
 Mol. C8AA /au·bohr⁸  :     241494.254187
 Mol. α(0) /au        :        160.644997


Wiberg/Mayer (AO) data.
largest (>0.10) Wiberg bond orders for each atom
          total WBO             WBO to atom ...
     1  C   3.989        C    6 1.377    C    2 1.366    C    7 1.086
     2  C   3.989        C    3 1.463    C    1 1.366    H    8 0.963    C    5 0.107
     3  C   3.991        C    2 1.463    C    4 1.421    H   28 0.970    C    6 0.105
     4  C   3.987        C    5 1.434    C    3 1.421    H   10 0.971
     5  C   3.991        C    6 1.451    C    4 1.434    H   29 0.970    C    2 0.107
     6  C   3.986        C    5 1.451    C    1 1.377    H    9 0.968    C    3 0.105
     7  C   3.966        N   11 1.828    C    1 1.086    H   20 0.942
     8  H   0.996        C    2 0.963
     9  H   0.998        C    6 0.968
    10  H   0.997        C    4 0.971
    11  N   3.128        C    7 1.828    C   12 1.018
    12  C   3.982        N   11 1.018    C   14 0.987    H   15 0.967    H   16 0.958
    13  H   0.899        O   25 0.823
    14  C   3.991        C   30 1.006    C   12 0.987    H   18 0.977    H   17 0.976
    15  H   1.000        C   12 0.967
    16  H   0.995        C   12 0.958
    17  H   0.998        C   14 0.976
    18  H   0.999        C   14 0.977
    19  O   1.800        H   21 0.912    H   23 0.861
    20  H   0.999        C    7 0.942
    21  H   0.920        O   19 0.912
    22  O   1.839        H   24 0.915    H   26 0.837
    23  H   0.902        O   19 0.861
    24  H   0.916        O   22 0.915
    25  O   1.855        H   27 0.912    H   13 0.823
    26  H   0.894        O   22 0.837
    27  H   0.916        O   25 0.912
    28  H   0.997        C    3 0.970
    29  H   0.998        C    5 0.970
    30  C   3.996        C   33 1.019    C   14 1.006    H   32 0.978    H   31 0.978
    31  H   0.999        C   30 0.978
    32  H   0.999        C   30 0.978
    33  C   3.995        C   30 1.019    H   36 0.988    H   34 0.988    H   35 0.987
    34  H   0.999        C   33 0.988
    35  H   0.998        C   33 0.987
    36  H   0.999        C   33 0.988

molecular dipole:
                 x           y           z       tot (Debye)
 q only:       -0.999      -1.308       0.603
   full:       -1.141      -1.859       0.515       5.696
molecular quadrupole (traceless):
                xx          xy          yy          xz          yz          zz
 q only:        5.946      -4.615      -8.061       6.452       5.430       2.115
  q+dip:        5.635      -9.293      -9.176       7.793      10.502       3.542
   full:        4.611      -7.542      -8.430       7.010       7.789       3.820

           -------------------------------------------------
          |                Property Printout                |
           -------------------------------------------------

    * Orbital Energies and Occupations

         #    Occupation            Energy/Eh            Energy/eV
      -------------------------------------------------------------
         1        2.0000           -0.6801281             -18.5072
       ...           ...                  ...                  ...
        32        2.0000           -0.4658757             -12.6771
        33        2.0000           -0.4502980             -12.2532
        34        2.0000           -0.4456464             -12.1267
        35        2.0000           -0.4448550             -12.1051
        36        2.0000           -0.4410100             -12.0005
        37        2.0000           -0.4399432             -11.9715
        38        2.0000           -0.4336067             -11.7990
        39        2.0000           -0.4300993             -11.7036
        40        2.0000           -0.4287120             -11.6658
        41        2.0000           -0.4272827             -11.6270
        42        2.0000           -0.4149934             -11.2925
        43        2.0000           -0.4071549             -11.0792
        44        2.0000           -0.3949040             -10.7459 (HOMO)
        45                         -0.2806784              -7.6376 (LUMO)
        46                         -0.2345105              -6.3814
        47                         -0.1982375              -5.3943
        48                         -0.0952740              -2.5925
        49                          0.0149461               0.4067
        50                          0.0388741               1.0578
        51                          0.0908533               2.4722
        52                          0.0947558               2.5784
        53                          0.0976882               2.6582
        54                          0.1144957               3.1156
        55                          0.1164586               3.1690
       ...                                ...                  ...
        81                          0.6464178              17.5899
      -------------------------------------------------------------
                  HL-Gap            0.1142256 Eh            3.1082 eV
             Fermi-level           -0.3377912 Eh           -9.1918 eV

     #   Z        covCN         q      C6AA      α(0)
     1   6 C      2.970     0.005    27.903     8.664
     2   6 C      2.918    -0.028    28.698     8.785
     3   6 C      2.914    -0.029    28.725     8.789
     4   6 C      2.916    -0.028    28.692     8.784
     5   6 C      2.913    -0.029    28.736     8.790
     6   6 C      2.923    -0.028    28.709     8.787
     7   6 C      2.856     0.079    26.228     8.394
     8   1 H      0.926     0.061     2.188     2.313
     9   1 H      0.925     0.041     2.437     2.441
    10   1 H      0.925     0.046     2.369     2.407
    11   7 N      1.826    -0.258    27.554     7.778
    12   6 C      3.764     0.016    20.346     6.429
    13   1 H      0.802     0.318     0.669     1.285
    14   6 C      3.802    -0.058    21.624     6.620
    15   1 H      0.924     0.014     2.821     2.626
    16   1 H      0.924     0.049     2.334     2.389
    17   1 H      0.924     0.046     2.366     2.405
    18   1 H      0.924     0.035     2.514     2.479
    19   8 O      1.609    -0.631    25.931     6.873
    20   1 H      0.924     0.011     2.876     2.652
    21   1 H      0.805     0.282     0.777     1.385
    22   8 O      1.607    -0.625    25.795     6.855
    23   1 H      0.803     0.313     0.684     1.299
    24   1 H      0.805     0.290     0.753     1.363
    25   8 O      1.606    -0.621    25.703     6.842
    26   1 H      0.802     0.325     0.650     1.267
    27   1 H      0.805     0.290     0.750     1.361
    28   1 H      0.925     0.050     2.325     2.385
    29   1 H      0.925     0.044     2.394     2.420
    30   6 C      3.800    -0.053    21.532     6.607
    31   1 H      0.924     0.034     2.525     2.485
    32   1 H      0.924     0.031     2.568     2.506
    33   6 C      3.750    -0.103    22.525     6.769
    34   1 H      0.924     0.037     2.487     2.466
    35   1 H      0.924     0.037     2.486     2.466
    36   1 H      0.924     0.035     2.512     2.478

 Mol. C6AA /au·bohr⁶  :      10950.840163
 Mol. C8AA /au·bohr⁸  :     241494.254187
 Mol. α(0) /au        :        160.644997


Wiberg/Mayer (AO) data.
largest (>0.10) Wiberg bond orders for each atom
          total WBO             WBO to atom ...
     1  C   3.989        C    6 1.377    C    2 1.366    C    7 1.086
     2  C   3.989        C    3 1.463    C    1 1.366    H    8 0.963    C    5 0.107
     3  C   3.991        C    2 1.463    C    4 1.421    H   28 0.970    C    6 0.105
     4  C   3.987        C    5 1.434    C    3 1.421    H   10 0.971
     5  C   3.991        C    6 1.451    C    4 1.434    H   29 0.970    C    2 0.107
     6  C   3.986        C    5 1.451    C    1 1.377    H    9 0.968    C    3 0.105
     7  C   3.966        N   11 1.828    C    1 1.086    H   20 0.942
     8  H   0.996        C    2 0.963
     9  H   0.998        C    6 0.968
    10  H   0.997        C    4 0.971
    11  N   3.128        C    7 1.828    C   12 1.018
    12  C   3.982        N   11 1.018    C   14 0.987    H   15 0.967    H   16 0.958
    13  H   0.899        O   25 0.823
    14  C   3.991        C   30 1.006    C   12 0.987    H   18 0.977    H   17 0.976
    15  H   1.000        C   12 0.967
    16  H   0.995        C   12 0.958
    17  H   0.998        C   14 0.976
    18  H   0.999        C   14 0.977
    19  O   1.800        H   21 0.912    H   23 0.861
    20  H   0.999        C    7 0.942
    21  H   0.920        O   19 0.912
    22  O   1.839        H   24 0.915    H   26 0.837
    23  H   0.902        O   19 0.861
    24  H   0.916        O   22 0.915
    25  O   1.855        H   27 0.912    H   13 0.823
    26  H   0.894        O   22 0.837
    27  H   0.916        O   25 0.912
    28  H   0.997        C    3 0.970
    29  H   0.998        C    5 0.970
    30  C   3.996        C   33 1.019    C   14 1.006    H   32 0.978    H   31 0.978
    31  H   0.999        C   30 0.978
    32  H   0.999        C   30 0.978
    33  C   3.995        C   30 1.019    H   36 0.988    H   34 0.988    H   35 0.987
    34  H   0.999        C   33 0.988
    35  H   0.998        C   33 0.987
    36  H   0.999        C   33 0.988

molecular dipole:
                 x           y           z       tot (Debye)
 q only:       -0.999      -1.308       0.603
   full:       -1.141      -1.859       0.515       5.696
molecular quadrupole (traceless):
                xx          xy          yy          xz          yz          zz
 q only:        5.946      -4.615      -8.061       6.452       5.430       2.115
  q+dip:        5.635      -9.293      -9.176       7.793      10.502       3.542
   full:        4.611      -7.542      -8.430       7.010       7.789       3.820


           -------------------------------------------------
          | TOTAL ENERGY              -49.367008053603 Eh   |
          | GRADIENT NORM               0.024388990368 Eh/α |
          | HOMO-LUMO GAP               3.108237004777 eV   |
           -------------------------------------------------

------------------------------------------------------------------------
 * finished run on 2021/03/15 at 15:27:30.281     
------------------------------------------------------------------------
 total:
 * wall-time:     0 d,  0 h,  0 min,  0.100 sec
 *  cpu-time:     0 d,  0 h,  0 min,  0.834 sec
 * ratio c/w:     8.344 speedup
 SCF:
 * wall-time:     0 d,  0 h,  0 min,  0.047 sec
 *  cpu-time:     0 d,  0 h,  0 min,  0.418 sec
 * ratio c/w:     8.838 speedup


-------------------------   --------------------
FINAL SINGLE POINT ENERGY       -49.367008053600
-------------------------   --------------------


----------------------------------------------------------------------------
                           ORCA NUMERICAL FREQUENCIES
                              (8-process run)
----------------------------------------------------------------------------

Number of atoms                ... 36
Central differences            ... used
Number of displacements        ... 216
Numerical increment            ... 5.000e-03 bohr
IR-spectrum generation         ... on
Raman-spectrum generation      ... off
Surface Crossing Hessian       ... off
List of participating nodes    ...  /tmp/slurm-scratch/freq.389/freq.hostnames

The output will be reduced. Please look at the following files:
SCF program output             ... >/tmp/slurm-scratch/freq.389/freq.lastscf
Integral program output        ... >/tmp/slurm-scratch/freq.389/freq.lastint
Gradient program output        ... >/tmp/slurm-scratch/freq.389/freq.lastgrad
Dipole moment program output   ... >/tmp/slurm-scratch/freq.389/freq.lastmom
AutoCI program output          ... >/tmp/slurm-scratch/freq.389/freq.lastautoci


         <<< Energy and Gradient at the input geometry >>>

        <<< Energy and Gradient at displaced geometries >>>
             <<<Displacing   1/coordinate 3 (+)>>>
             <<<Displacing   2/coordinate 3 (+)>>>
             <<<Displacing   3/coordinate 1 (+)>>>
             <<<Displacing   1/coordinate 3 (-)>>>
             <<<Displacing   2/coordinate 2 (+)>>>
             <<<Displacing   2/coordinate 3 (-)>>>
             <<<Displacing   3/coordinate 2 (+)>>>
             <<<Displacing   3/coordinate 1 (-)>>>
             <<<Displacing   2/coordinate 2 (-)>>>
             <<<Displacing   1/coordinate 1 (+)>>>
             <<<Displacing   1/coordinate 2 (+)>>>
             <<<Displacing   2/coordinate 1 (+)>>>
             <<<Displacing   3/coordinate 2 (-)>>>
             <<<Displacing   1/coordinate 1 (-)>>>
             <<<Displacing   1/coordinate 2 (-)>>>
             <<<Displacing   2/coordinate 1 (-)>>>
             <<<Displacing   3/coordinate 3 (+)>>>
             <<<Displacing   3/coordinate 3 (-)>>>
             <<<Displacing   4/coordinate 3 (+)>>>
             <<<Displacing   5/coordinate 3 (+)>>>
             <<<Displacing   4/coordinate 2 (+)>>>
             <<<Displacing   5/coordinate 2 (+)>>>
             <<<Displacing   5/coordinate 1 (+)>>>
             <<<Displacing   4/coordinate 3 (-)>>>
             <<<Displacing   4/coordinate 1 (+)>>>
             <<<Displacing   4/coordinate 2 (-)>>>
             <<<Displacing   5/coordinate 3 (-)>>>
             <<<Displacing   5/coordinate 2 (-)>>>
             <<<Displacing   6/coordinate 1 (+)>>>
             <<<Displacing   5/coordinate 1 (-)>>>
             <<<Displacing   4/coordinate 1 (-)>>>
             <<<Displacing   6/coordinate 1 (-)>>>
             <<<Displacing   6/coordinate 2 (+)>>>
             <<<Displacing   6/coordinate 2 (-)>>>
             <<<Displacing   7/coordinate 1 (+)>>>
             <<<Displacing   7/coordinate 1 (-)>>>
             <<<Displacing   8/coordinate 1 (+)>>>
             <<<Displacing   6/coordinate 3 (+)>>>
             <<<Displacing   8/coordinate 1 (-)>>>
             <<<Displacing   6/coordinate 3 (-)>>>
             <<<Displacing   8/coordinate 2 (+)>>>
             <<<Displacing   7/coordinate 2 (+)>>>
             <<<Displacing   7/coordinate 3 (+)>>>
             <<<Displacing   8/coordinate 2 (-)>>>
             <<<Displacing   8/coordinate 3 (+)>>>
             <<<Displacing   7/coordinate 3 (-)>>>
             <<<Displacing   7/coordinate 2 (-)>>>
             <<<Displacing   8/coordinate 3 (-)>>>
             <<<Displacing   9/coordinate 1 (+)>>>
             <<<Displacing   9/coordinate 1 (-)>>>
             <<<Displacing   9/coordinate 2 (+)>>>
             <<<Displacing   9/coordinate 3 (+)>>>
             <<<Displacing   9/coordinate 2 (-)>>>
             <<<Displacing  10/coordinate 1 (+)>>>
             <<<Displacing   9/coordinate 3 (-)>>>
             <<<Displacing  10/coordinate 1 (-)>>>
             <<<Displacing  11/coordinate 1 (+)>>>
             <<<Displacing  10/coordinate 3 (+)>>>
             <<<Displacing  11/coordinate 1 (-)>>>
             <<<Displacing  10/coordinate 2 (+)>>>
             <<<Displacing  10/coordinate 3 (-)>>>
             <<<Displacing  11/coordinate 2 (+)>>>
             <<<Displacing  10/coordinate 2 (-)>>>
             <<<Displacing  11/coordinate 2 (-)>>>
             <<<Displacing  11/coordinate 3 (+)>>>
             <<<Displacing  11/coordinate 3 (-)>>>
             <<<Displacing  12/coordinate 1 (+)>>>
             <<<Displacing  12/coordinate 2 (+)>>>
             <<<Displacing  12/coordinate 1 (-)>>>
             <<<Displacing  12/coordinate 3 (+)>>>
             <<<Displacing  12/coordinate 2 (-)>>>
             <<<Displacing  12/coordinate 3 (-)>>>
             <<<Displacing  13/coordinate 1 (+)>>>
             <<<Displacing  13/coordinate 2 (+)>>>
             <<<Displacing  13/coordinate 1 (-)>>>
             <<<Displacing  13/coordinate 3 (+)>>>
             <<<Displacing  13/coordinate 2 (-)>>>
             <<<Displacing  13/coordinate 3 (-)>>>
             <<<Displacing  14/coordinate 1 (+)>>>
             <<<Displacing  14/coordinate 1 (-)>>>
             <<<Displacing  14/coordinate 2 (+)>>>
             <<<Displacing  14/coordinate 2 (-)>>>
             <<<Displacing  14/coordinate 3 (+)>>>
             <<<Displacing  15/coordinate 1 (+)>>>
             <<<Displacing  14/coordinate 3 (-)>>>
             <<<Displacing  15/coordinate 2 (+)>>>
             <<<Displacing  15/coordinate 1 (-)>>>
             <<<Displacing  15/coordinate 2 (-)>>>
             <<<Displacing  15/coordinate 3 (+)>>>
             <<<Displacing  16/coordinate 1 (+)>>>
             <<<Displacing  15/coordinate 3 (-)>>>
             <<<Displacing  16/coordinate 2 (+)>>>
             <<<Displacing  16/coordinate 1 (-)>>>
             <<<Displacing  16/coordinate 3 (+)>>>
             <<<Displacing  16/coordinate 2 (-)>>>
             <<<Displacing  16/coordinate 3 (-)>>>
             <<<Displacing  17/coordinate 1 (+)>>>
             <<<Displacing  17/coordinate 1 (-)>>>
             <<<Displacing  17/coordinate 2 (+)>>>
             <<<Displacing  17/coordinate 2 (-)>>>
             <<<Displacing  18/coordinate 1 (+)>>>
             <<<Displacing  17/coordinate 3 (+)>>>
             <<<Displacing  18/coordinate 1 (-)>>>
             <<<Displacing  17/coordinate 3 (-)>>>
             <<<Displacing  18/coordinate 3 (+)>>>
             <<<Displacing  18/coordinate 3 (-)>>>
             <<<Displacing  19/coordinate 1 (+)>>>
             <<<Displacing  18/coordinate 2 (+)>>>
             <<<Displacing  19/coordinate 2 (+)>>>
             <<<Displacing  19/coordinate 1 (-)>>>
             <<<Displacing  18/coordinate 2 (-)>>>
             <<<Displacing  19/coordinate 2 (-)>>>
             <<<Displacing  19/coordinate 3 (+)>>>
             <<<Displacing  19/coordinate 3 (-)>>>
             <<<Displacing  20/coordinate 1 (+)>>>
             <<<Displacing  20/coordinate 2 (+)>>>
             <<<Displacing  20/coordinate 1 (-)>>>
             <<<Displacing  20/coordinate 2 (-)>>>
             <<<Displacing  20/coordinate 3 (+)>>>
             <<<Displacing  20/coordinate 3 (-)>>>
             <<<Displacing  21/coordinate 3 (+)>>>
             <<<Displacing  21/coordinate 1 (+)>>>
             <<<Displacing  21/coordinate 3 (-)>>>
             <<<Displacing  21/coordinate 2 (+)>>>
             <<<Displacing  21/coordinate 1 (-)>>>
             <<<Displacing  22/coordinate 1 (+)>>>
             <<<Displacing  21/coordinate 2 (-)>>>
             <<<Displacing  22/coordinate 1 (-)>>>
             <<<Displacing  22/coordinate 2 (+)>>>
             <<<Displacing  22/coordinate 2 (-)>>>
             <<<Displacing  23/coordinate 1 (+)>>>
             <<<Displacing  23/coordinate 1 (-)>>>
             <<<Displacing  22/coordinate 3 (+)>>>
             <<<Displacing  22/coordinate 3 (-)>>>
             <<<Displacing  23/coordinate 2 (+)>>>
             <<<Displacing  24/coordinate 2 (+)>>>
             <<<Displacing  24/coordinate 1 (+)>>>
             <<<Displacing  23/coordinate 3 (+)>>>
             <<<Displacing  23/coordinate 2 (-)>>>
             <<<Displacing  24/coordinate 2 (-)>>>
             <<<Displacing  24/coordinate 1 (-)>>>
             <<<Displacing  23/coordinate 3 (-)>>>
             <<<Displacing  24/coordinate 3 (+)>>>
             <<<Displacing  24/coordinate 3 (-)>>>
             <<<Displacing  25/coordinate 1 (+)>>>
             <<<Displacing  25/coordinate 1 (-)>>>
             <<<Displacing  25/coordinate 2 (+)>>>
             <<<Displacing  25/coordinate 3 (+)>>>
             <<<Displacing  25/coordinate 2 (-)>>>
             <<<Displacing  26/coordinate 1 (+)>>>
             <<<Displacing  25/coordinate 3 (-)>>>
             <<<Displacing  26/coordinate 1 (-)>>>
             <<<Displacing  26/coordinate 2 (+)>>>
             <<<Displacing  26/coordinate 2 (-)>>>
             <<<Displacing  27/coordinate 1 (+)>>>
             <<<Displacing  26/coordinate 3 (+)>>>
             <<<Displacing  27/coordinate 1 (-)>>>
             <<<Displacing  26/coordinate 3 (-)>>>
             <<<Displacing  27/coordinate 2 (+)>>>
             <<<Displacing  27/coordinate 2 (-)>>>
             <<<Displacing  27/coordinate 3 (+)>>>
             <<<Displacing  27/coordinate 3 (-)>>>
             <<<Displacing  28/coordinate 1 (+)>>>
             <<<Displacing  28/coordinate 1 (-)>>>
             <<<Displacing  28/coordinate 2 (+)>>>
             <<<Displacing  28/coordinate 3 (+)>>>
             <<<Displacing  28/coordinate 2 (-)>>>
             <<<Displacing  28/coordinate 3 (-)>>>
             <<<Displacing  29/coordinate 3 (+)>>>
             <<<Displacing  29/coordinate 1 (+)>>>
             <<<Displacing  29/coordinate 2 (+)>>>
             <<<Displacing  29/coordinate 3 (-)>>>
             <<<Displacing  29/coordinate 1 (-)>>>
             <<<Displacing  29/coordinate 2 (-)>>>
             <<<Displacing  30/coordinate 1 (+)>>>
             <<<Displacing  30/coordinate 1 (-)>>>
             <<<Displacing  30/coordinate 2 (+)>>>
             <<<Displacing  30/coordinate 2 (-)>>>
             <<<Displacing  30/coordinate 3 (+)>>>
             <<<Displacing  30/coordinate 3 (-)>>>
             <<<Displacing  31/coordinate 2 (+)>>>
             <<<Displacing  31/coordinate 1 (+)>>>
             <<<Displacing  31/coordinate 2 (-)>>>
             <<<Displacing  31/coordinate 1 (-)>>>
             <<<Displacing  32/coordinate 1 (+)>>>
             <<<Displacing  31/coordinate 3 (+)>>>
             <<<Displacing  32/coordinate 1 (-)>>>
             <<<Displacing  31/coordinate 3 (-)>>>
             <<<Displacing  32/coordinate 2 (+)>>>
             <<<Displacing  32/coordinate 2 (-)>>>
             <<<Displacing  32/coordinate 3 (+)>>>
             <<<Displacing  32/coordinate 3 (-)>>>
             <<<Displacing  33/coordinate 1 (+)>>>
             <<<Displacing  33/coordinate 1 (-)>>>
             <<<Displacing  33/coordinate 2 (+)>>>
             <<<Displacing  33/coordinate 2 (-)>>>
             <<<Displacing  33/coordinate 3 (+)>>>
             <<<Displacing  33/coordinate 3 (-)>>>
             <<<Displacing  34/coordinate 1 (+)>>>
             <<<Displacing  34/coordinate 2 (+)>>>
             <<<Displacing  34/coordinate 1 (-)>>>
             <<<Displacing  35/coordinate 1 (+)>>>
             <<<Displacing  34/coordinate 2 (-)>>>
             <<<Displacing  35/coordinate 1 (-)>>>
             <<<Displacing  34/coordinate 3 (+)>>>
             <<<Displacing  34/coordinate 3 (-)>>>
             <<<Displacing  35/coordinate 2 (+)>>>
             <<<Displacing  35/coordinate 2 (-)>>>
             <<<Displacing  35/coordinate 3 (+)>>>
             <<<Displacing  35/coordinate 3 (-)>>>
             <<<Displacing  36/coordinate 1 (+)>>>
             <<<Displacing  36/coordinate 1 (-)>>>
             <<<Displacing  36/coordinate 2 (+)>>>
             <<<Displacing  36/coordinate 2 (-)>>>
             <<<Displacing  36/coordinate 3 (+)>>>
             <<<Displacing  36/coordinate 3 (-)>>>

-----------------------
VIBRATIONAL FREQUENCIES
-----------------------

Scaling factor for frequencies =  1.000000000 (already applied!)

   0:         0.00 cm**-1
   1:         0.00 cm**-1
   2:         0.00 cm**-1
   3:         0.00 cm**-1
   4:         0.00 cm**-1
   5:         0.00 cm**-1
   6:         5.19 cm**-1
   7:        26.65 cm**-1
   8:        37.11 cm**-1
   9:        38.14 cm**-1
  10:        58.80 cm**-1
  11:        60.04 cm**-1
  12:        63.72 cm**-1
  13:        79.45 cm**-1
  14:        87.02 cm**-1
  15:       108.60 cm**-1
  16:       118.70 cm**-1
  17:       127.93 cm**-1
  18:       155.59 cm**-1
  19:       158.51 cm**-1
  20:       186.35 cm**-1
  21:       223.14 cm**-1
  22:       247.99 cm**-1
  23:       271.78 cm**-1
  24:       276.02 cm**-1
  25:       277.76 cm**-1
  26:       283.01 cm**-1
  27:       300.59 cm**-1
  28:       377.31 cm**-1
  29:       386.46 cm**-1
  30:       394.25 cm**-1
  31:       428.98 cm**-1
  32:       460.84 cm**-1
  33:       473.38 cm**-1
  34:       483.57 cm**-1
  35:       506.66 cm**-1
  36:       585.12 cm**-1
  37:       589.39 cm**-1
  38:       623.48 cm**-1
  39:       663.55 cm**-1
  40:       690.56 cm**-1
  41:       743.07 cm**-1
  42:       755.77 cm**-1
  43:       770.35 cm**-1
  44:       824.03 cm**-1
  45:       859.02 cm**-1
  46:       871.59 cm**-1
  47:       902.64 cm**-1
  48:       916.51 cm**-1
  49:       930.45 cm**-1
  50:       936.03 cm**-1
  51:       945.42 cm**-1
  52:       951.96 cm**-1
  53:       984.81 cm**-1
  54:      1022.24 cm**-1
  55:      1067.21 cm**-1
  56:      1070.84 cm**-1
  57:      1100.37 cm**-1
  58:      1114.19 cm**-1
  59:      1126.42 cm**-1
  60:      1144.63 cm**-1
  61:      1178.09 cm**-1
  62:      1185.00 cm**-1
  63:      1209.92 cm**-1
  64:      1219.76 cm**-1
  65:      1253.66 cm**-1
  66:      1266.88 cm**-1
  67:      1273.91 cm**-1
  68:      1277.08 cm**-1
  69:      1295.29 cm**-1
  70:      1324.63 cm**-1
  71:      1357.19 cm**-1
  72:      1368.30 cm**-1
  73:      1422.27 cm**-1
  74:      1427.75 cm**-1
  75:      1453.61 cm**-1
  76:      1468.34 cm**-1
  77:      1498.48 cm**-1
  78:      1504.26 cm**-1
  79:      1507.29 cm**-1
  80:      1512.48 cm**-1
  81:      1530.33 cm**-1
  82:      1540.01 cm**-1
  83:      1558.69 cm**-1
  84:      1560.68 cm**-1
  85:      1567.48 cm**-1
  86:      1667.26 cm**-1
  87:      2887.40 cm**-1
  88:      2901.24 cm**-1
  89:      2942.43 cm**-1
  90:      2950.39 cm**-1
  91:      2957.64 cm**-1
  92:      2961.51 cm**-1
  93:      2967.30 cm**-1
  94:      2972.98 cm**-1
  95:      2980.67 cm**-1
  96:      2986.73 cm**-1
  97:      2998.78 cm**-1
  98:      3055.45 cm**-1
  99:      3063.36 cm**-1
 100:      3070.03 cm**-1
 101:      3078.43 cm**-1
 102:      3105.93 cm**-1
 103:      3187.02 cm**-1
 104:      3308.78 cm**-1
 105:      3578.58 cm**-1
 106:      3593.12 cm**-1
 107:      3609.18 cm**-1


------------
NORMAL MODES
------------

These modes are the cartesian displacements weighted by the diagonal matrix
M(i,i)=1/sqrt(m[i]) where m[i] is the mass of the displaced atom
Thus, these vectors are normalized but *not* orthogonal

                  0          1          2          3          4          5    
      0       0.000000   0.000000   0.000000   0.000000   0.000000   0.000000
      1       0.000000   0.000000   0.000000   0.000000   0.000000   0.000000
      2       0.000000   0.000000   0.000000   0.000000   0.000000   0.000000
      3       0.000000   0.000000   0.000000   0.000000   0.000000   0.000000
      4       0.000000   0.000000   0.000000   0.000000   0.000000   0.000000
      5       0.000000   0.000000   0.000000   0.000000   0.000000   0.000000
      6       0.000000   0.000000   0.000000   0.000000   0.000000   0.000000
      7       0.000000   0.000000   0.000000   0.000000   0.000000   0.000000
      8       0.000000   0.000000   0.000000   0.000000   0.000000   0.000000
      9       0.000000   0.000000   0.000000   0.000000   0.000000   0.000000
     10       0.000000   0.000000   0.000000   0.000000   0.000000   0.000000
     11       0.000000   0.000000   0.000000   0.000000   0.000000   0.000000
     12       0.000000   0.000000   0.000000   0.000000   0.000000   0.000000
     13       0.000000   0.000000   0.000000   0.000000   0.000000   0.000000
     14       0.000000   0.000000   0.000000   0.000000   0.000000   0.000000
     15       0.000000   0.000000   0.000000   0.000000   0.000000   0.000000
     16       0.000000   0.000000   0.000000   0.000000   0.000000   0.000000
     17       0.000000   0.000000   0.000000   0.000000   0.000000   0.000000
     18       0.000000   0.000000   0.000000   0.000000   0.000000   0.000000
     19       0.000000   0.000000   0.000000   0.000000   0.000000   0.000000
     20       0.000000   0.000000   0.000000   0.000000   0.000000   0.000000
     21       0.000000   0.000000   0.000000   0.000000   0.000000   0.000000
     22       0.000000   0.000000   0.000000   0.000000   0.000000   0.000000
     23       0.000000   0.000000   0.000000   0.000000   0.000000   0.000000
     24       0.000000   0.000000   0.000000   0.000000   0.000000   0.000000
     25       0.000000   0.000000   0.000000   0.000000   0.000000   0.000000
     26       0.000000   0.000000   0.000000   0.000000   0.000000   0.000000
     27       0.000000   0.000000   0.000000   0.000000   0.000000   0.000000
     28       0.000000   0.000000   0.000000   0.000000   0.000000   0.000000
     29       0.000000   0.000000   0.000000   0.000000   0.000000   0.000000
     30       0.000000   0.000000   0.000000   0.000000   0.000000   0.000000
     31       0.000000   0.000000   0.000000   0.000000   0.000000   0.000000
     32       0.000000   0.000000   0.000000   0.000000   0.000000   0.000000
     33       0.000000   0.000000   0.000000   0.000000   0.000000   0.000000
     34       0.000000   0.000000   0.000000   0.000000   0.000000   0.000000
     35       0.000000   0.000000   0.000000   0.000000   0.000000   0.000000
     36       0.000000   0.000000   0.000000   0.000000   0.000000   0.000000
     37       0.000000   0.000000   0.000000   0.000000   0.000000   0.000000
     38       0.000000   0.000000   0.000000   0.000000   0.000000   0.000000
     39       0.000000   0.000000   0.000000   0.000000   0.000000   0.000000
     40       0.000000   0.000000   0.000000   0.000000   0.000000   0.000000
     41       0.000000   0.000000   0.000000   0.000000   0.000000   0.000000
     42       0.000000   0.000000   0.000000   0.000000   0.000000   0.000000
     43       0.000000   0.000000   0.000000   0.000000   0.000000   0.000000
     44       0.000000   0.000000   0.000000   0.000000   0.000000   0.000000
     45       0.000000   0.000000   0.000000   0.000000   0.000000   0.000000
     46       0.000000   0.000000   0.000000   0.000000   0.000000   0.000000
     47       0.000000   0.000000   0.000000   0.000000   0.000000   0.000000
     48       0.000000   0.000000   0.000000   0.000000   0.000000   0.000000
     49       0.000000   0.000000   0.000000   0.000000   0.000000   0.000000
     50       0.000000   0.000000   0.000000   0.000000   0.000000   0.000000
     51       0.000000   0.000000   0.000000   0.000000   0.000000   0.000000
     52       0.000000   0.000000   0.000000   0.000000   0.000000   0.000000
     53       0.000000   0.000000   0.000000   0.000000   0.000000   0.000000
     54       0.000000   0.000000   0.000000   0.000000   0.000000   0.000000
     55       0.000000   0.000000   0.000000   0.000000   0.000000   0.000000
     56       0.000000   0.000000   0.000000   0.000000   0.000000   0.000000
     57       0.000000   0.000000   0.000000   0.000000   0.000000   0.000000
     58       0.000000   0.000000   0.000000   0.000000   0.000000   0.000000
     59       0.000000   0.000000   0.000000   0.000000   0.000000   0.000000
     60       0.000000   0.000000   0.000000   0.000000   0.000000   0.000000
     61       0.000000   0.000000   0.000000   0.000000   0.000000   0.000000
     62       0.000000   0.000000   0.000000   0.000000   0.000000   0.000000
     63       0.000000   0.000000   0.000000   0.000000   0.000000   0.000000
     64       0.000000   0.000000   0.000000   0.000000   0.000000   0.000000
     65       0.000000   0.000000   0.000000   0.000000   0.000000   0.000000
     66       0.000000   0.000000   0.000000   0.000000   0.000000   0.000000
     67       0.000000   0.000000   0.000000   0.000000   0.000000   0.000000
     68       0.000000   0.000000   0.000000   0.000000   0.000000   0.000000
     69       0.000000   0.000000   0.000000   0.000000   0.000000   0.000000
     70       0.000000   0.000000   0.000000   0.000000   0.000000   0.000000
     71       0.000000   0.000000   0.000000   0.000000   0.000000   0.000000
     72       0.000000   0.000000   0.000000   0.000000   0.000000   0.000000
     73       0.000000   0.000000   0.000000   0.000000   0.000000   0.000000
     74       0.000000   0.000000   0.000000   0.000000   0.000000   0.000000
     75       0.000000   0.000000   0.000000   0.000000   0.000000   0.000000
     76       0.000000   0.000000   0.000000   0.000000   0.000000   0.000000
     77       0.000000   0.000000   0.000000   0.000000   0.000000   0.000000
     78       0.000000   0.000000   0.000000   0.000000   0.000000   0.000000
     79       0.000000   0.000000   0.000000   0.000000   0.000000   0.000000
     80       0.000000   0.000000   0.000000   0.000000   0.000000   0.000000
     81       0.000000   0.000000   0.000000   0.000000   0.000000   0.000000
     82       0.000000   0.000000   0.000000   0.000000   0.000000   0.000000
     83       0.000000   0.000000   0.000000   0.000000   0.000000   0.000000
     84       0.000000   0.000000   0.000000   0.000000   0.000000   0.000000
     85       0.000000   0.000000   0.000000   0.000000   0.000000   0.000000
     86       0.000000   0.000000   0.000000   0.000000   0.000000   0.000000
     87       0.000000   0.000000   0.000000   0.000000   0.000000   0.000000
     88       0.000000   0.000000   0.000000   0.000000   0.000000   0.000000
     89       0.000000   0.000000   0.000000   0.000000   0.000000   0.000000
     90       0.000000   0.000000   0.000000   0.000000   0.000000   0.000000
     91       0.000000   0.000000   0.000000   0.000000   0.000000   0.000000
     92       0.000000   0.000000   0.000000   0.000000   0.000000   0.000000
     93       0.000000   0.000000   0.000000   0.000000   0.000000   0.000000
     94       0.000000   0.000000   0.000000   0.000000   0.000000   0.000000
     95       0.000000   0.000000   0.000000   0.000000   0.000000   0.000000
     96       0.000000   0.000000   0.000000   0.000000   0.000000   0.000000
     97       0.000000   0.000000   0.000000   0.000000   0.000000   0.000000
     98       0.000000   0.000000   0.000000   0.000000   0.000000   0.000000
     99       0.000000   0.000000   0.000000   0.000000   0.000000   0.000000
    100       0.000000   0.000000   0.000000   0.000000   0.000000   0.000000
    101       0.000000   0.000000   0.000000   0.000000   0.000000   0.000000
    102       0.000000   0.000000   0.000000   0.000000   0.000000   0.000000
    103       0.000000   0.000000   0.000000   0.000000   0.000000   0.000000
    104       0.000000   0.000000   0.000000   0.000000   0.000000   0.000000
    105       0.000000   0.000000   0.000000   0.000000   0.000000   0.000000
    106       0.000000   0.000000   0.000000   0.000000   0.000000   0.000000
    107       0.000000   0.000000   0.000000   0.000000   0.000000   0.000000
                  6          7          8          9         10         11    
      0      -0.048582   0.031122  -0.024085  -0.017974   0.021550  -0.036524
      1       0.028773   0.036700   0.039143   0.063246   0.034735  -0.011411
      2      -0.016457   0.047245  -0.001937  -0.019025  -0.056460   0.030309
      3      -0.040912   0.040190  -0.045075  -0.033853   0.048440   0.038104
      4       0.005944   0.033882   0.036397   0.039689   0.132998   0.081877
      5       0.008919   0.054492  -0.009051  -0.004564  -0.136457  -0.023521
      6      -0.036052   0.042460  -0.053465  -0.035872   0.028960   0.079998
      7      -0.023599   0.009659   0.074328   0.063614   0.085759   0.073055
      8       0.018942   0.064685  -0.020773  -0.015358  -0.094884  -0.056832
      9      -0.039140   0.035438  -0.040994  -0.021423  -0.015796   0.048351
     10      -0.034056  -0.012444   0.115379   0.109249  -0.055075  -0.027227
     11       0.006652   0.068611  -0.025283  -0.037917   0.022809  -0.036900
     12      -0.047915   0.025660  -0.019641  -0.004259  -0.042802  -0.026039
     13      -0.015910  -0.011889   0.117277   0.133607  -0.149982  -0.121837
     14      -0.015044   0.063741  -0.017546  -0.053664   0.100586   0.018237
     15      -0.052381   0.023590  -0.011241  -0.001837  -0.025492  -0.068249
     16       0.015879   0.012637   0.079587   0.112957  -0.106989  -0.113768
     17      -0.027579   0.052931  -0.006165  -0.045151   0.063077   0.053218
     18      -0.053902   0.034284  -0.011858  -0.012883   0.032526  -0.067028
     19       0.072990   0.074674  -0.000857   0.036565   0.057408  -0.004951
     20      -0.034360   0.025794   0.008176  -0.010271  -0.075945   0.053136
     21      -0.038871   0.047652  -0.055800  -0.044570   0.087757   0.065474
     22       0.012619   0.056518   0.002251   0.005223   0.250849   0.165391
     23       0.018629   0.046868  -0.001519   0.015866  -0.233434  -0.039072
     24      -0.058612   0.016781   0.005220   0.012531  -0.047306  -0.125049
     25       0.031839   0.014681   0.081810   0.133135  -0.184068  -0.187059
     26      -0.045682   0.047841  -0.000355  -0.057519   0.125864   0.095817
     27      -0.034676   0.037578  -0.047541  -0.023078  -0.029367   0.081006
     28      -0.056396  -0.029864   0.143666   0.125921  -0.089341  -0.031338
     29       0.014119   0.075713  -0.033916  -0.044700   0.052870  -0.064175
     30      -0.062573   0.025195  -0.009595  -0.039881   0.049895  -0.048832
     31       0.074791   0.066770  -0.013380  -0.020776   0.088318   0.030752
     32       0.007517   0.054031  -0.023210   0.017053  -0.102850   0.026072
     33      -0.076411   0.034385   0.009072  -0.022147   0.028272  -0.036631
     34       0.123234   0.117994  -0.055625  -0.030890   0.070154   0.021461
     35      -0.011937   0.016691  -0.011679   0.010552  -0.075015   0.020655
     36      -0.011520  -0.103998   0.043059  -0.126820  -0.105743  -0.028346
     37       0.095649  -0.032251   0.018721  -0.102428  -0.005835   0.036936
     38       0.023737   0.159624  -0.060791   0.108719  -0.115731   0.092259
     39       0.071823   0.068302  -0.039996  -0.057571   0.074779  -0.091096
     40      -0.133653   0.024969   0.029283   0.012860   0.049047   0.085794
     41       0.013533  -0.018550  -0.020242  -0.017095   0.003819  -0.024431
     42      -0.029376   0.054822   0.005261  -0.020456   0.019795  -0.040250
     43       0.290263   0.188052  -0.117701  -0.056376   0.077758  -0.027943
     44      -0.181949  -0.053863   0.066450   0.045935  -0.093563   0.081298
     45      -0.256898  -0.008442   0.070299   0.018660  -0.022410   0.031900
     46       0.187094   0.163941  -0.094025  -0.040488   0.057213   0.003265
     47       0.138498   0.086399  -0.081262  -0.018742  -0.066498  -0.029334
     48       0.056526   0.063965  -0.060784  -0.063698   0.092485  -0.186670
     49      -0.304583  -0.047285   0.097580   0.041413   0.045569   0.161214
     50       0.214725   0.068445  -0.126434  -0.059074   0.025473  -0.211723
     51       0.245563   0.106477  -0.097047  -0.100863   0.133803  -0.153907
     52      -0.222864  -0.035458   0.090856   0.024950   0.068156   0.202739
     53      -0.166072  -0.104887   0.075784   0.015868  -0.000270   0.137995
     54       0.085875  -0.144496  -0.003351   0.268830   0.004296   0.043613
     55      -0.059066  -0.261184  -0.216916   0.038776   0.009095   0.099288
     56       0.003792  -0.267905  -0.199904   0.112203   0.055460  -0.075044
     57      -0.050517   0.048030  -0.002723   0.019325   0.013788  -0.099513
     58       0.114547   0.117358  -0.022368   0.069663   0.028553  -0.044084
     59      -0.089328  -0.023381   0.044645  -0.033161  -0.049241   0.083145
     60       0.066645  -0.095860   0.124848   0.349570   0.095225   0.077068
     61      -0.053838  -0.095272  -0.220372   0.116496   0.034862   0.097716
     62       0.011877  -0.112056  -0.223202   0.177277   0.067028  -0.081555
     63       0.106824  -0.082070   0.106486   0.101529  -0.061290   0.020677
     64       0.015984  -0.109160  -0.046003  -0.326158  -0.158737   0.043953
     65      -0.015539  -0.134691   0.375539  -0.064763   0.116417   0.011200
     66       0.092207  -0.133027   0.018985   0.222318  -0.019392   0.039559
     67      -0.036351  -0.225779  -0.180639  -0.117069  -0.081369   0.078099
     68      -0.004166  -0.246080   0.011796   0.041250   0.083491  -0.047359
     69       0.123745  -0.121539   0.154404   0.087540  -0.008870  -0.014669
     70       0.016632  -0.157806   0.086611  -0.336815  -0.083744   0.028943
     71      -0.018794  -0.162001   0.462945  -0.069646   0.160551   0.007768
     72       0.017172  -0.139963   0.062428  -0.121270  -0.161497  -0.003112
     73       0.109221  -0.052599   0.027006  -0.104994  -0.029609   0.040597
     74       0.013427   0.194238  -0.052339   0.154633  -0.112459   0.147226
     75       0.076211  -0.115988   0.093657   0.032861  -0.098758   0.018327
     76       0.051026  -0.070533  -0.033426  -0.246969  -0.117509   0.048472
     77      -0.000150  -0.015515   0.223116   0.028236   0.035052   0.062394
     78       0.001848  -0.069926   0.001793  -0.070929  -0.175970   0.016876
     79       0.131354  -0.077565   0.009687  -0.118275  -0.072633   0.018096
     80       0.003857   0.244323  -0.098911   0.191061  -0.126870   0.160228
     81      -0.029283   0.049671  -0.070098  -0.048640   0.048648   0.136088
     82      -0.038756   0.008495   0.072590   0.046857   0.159643   0.145337
     83       0.036702   0.069403  -0.027515  -0.005466  -0.156295  -0.099187
     84      -0.050690   0.020245  -0.010200   0.007056  -0.076566  -0.050363
     85      -0.024989  -0.029188   0.147235   0.169292  -0.256816  -0.199797
     86      -0.023250   0.066992  -0.020125  -0.072685   0.190566   0.033058
     87       0.007969   0.053879   0.016059  -0.029214   0.018443   0.071425
     88      -0.034669   0.112004  -0.062796   0.001756   0.010706  -0.119097
     89       0.013286  -0.053061  -0.017282  -0.034846   0.072236  -0.049393
     90      -0.084911   0.042326   0.045362  -0.000411  -0.028542   0.102073
     91       0.039137   0.166430  -0.118935  -0.007628  -0.010942  -0.231275
     92       0.140584   0.015778  -0.095944  -0.058573   0.067727  -0.194290
     93      -0.008172   0.045886   0.048701  -0.017902  -0.009667   0.185692
     94       0.067580   0.160354  -0.107240  -0.014575  -0.000718  -0.164696
     95      -0.126541  -0.119532   0.068291  -0.004088   0.059206   0.116270
     96       0.082738   0.062830  -0.007283  -0.052973   0.057952   0.047921
     97      -0.158159   0.066900  -0.025898   0.022978   0.017347  -0.122034
     98       0.029171  -0.087631  -0.024197  -0.061450   0.166988  -0.104776
     99       0.076777   0.058737  -0.023112  -0.059426   0.084980  -0.029969
    100      -0.240737   0.029650   0.006370   0.035885   0.029420  -0.100095
    101       0.125356  -0.045719  -0.081137  -0.084347   0.180761  -0.215046
    102       0.057513   0.063038   0.018008  -0.036763   0.014923   0.134340
    103      -0.122918   0.106006  -0.064688   0.021810  -0.010797  -0.211666
    104       0.030897  -0.107621  -0.024144  -0.073446   0.214696  -0.126344
    105       0.168468   0.073468  -0.033966  -0.080059   0.102878   0.021741
    106      -0.199540   0.032848   0.006937   0.026606   0.038597  -0.057560
    107      -0.056941  -0.134037   0.027243  -0.045934   0.174916  -0.014448
                 12         13         14         15         16         17    
      0       0.003072  -0.010417  -0.006564   0.030195   0.053501   0.010719
      1       0.030123  -0.026996   0.001335   0.100691   0.097759   0.014422
      2      -0.038066  -0.026515  -0.058228  -0.056931  -0.072107  -0.009853
      3      -0.022482  -0.085666  -0.024442   0.038817   0.039412   0.005153
      4      -0.043239  -0.093928   0.078659   0.075975   0.084440   0.009081
      5       0.019064   0.001005  -0.138440  -0.028789  -0.065104  -0.005492
      6      -0.036599  -0.149922  -0.056924   0.025604  -0.001014  -0.003801
      7      -0.084519  -0.113907   0.128343  -0.018937  -0.000847  -0.006836
      8       0.053081   0.066597  -0.134042   0.031792   0.014704   0.011201
      9      -0.025506  -0.139363  -0.068455   0.003651  -0.024422  -0.006670
     10      -0.050410  -0.072617   0.093353  -0.088225  -0.073045  -0.013787
     11       0.026971   0.109340  -0.042981   0.067133   0.092261   0.022044
     12       0.000893  -0.064378  -0.053346   0.001262  -0.001642   0.001448
     13       0.026630  -0.008549   0.006692  -0.045681  -0.035743  -0.003439
     14      -0.034334   0.085094   0.046508   0.025729   0.067998   0.015499
     15       0.014204  -0.000458  -0.020902   0.015871   0.039653   0.010438
     16       0.064150   0.012539  -0.036576   0.053189   0.055494   0.009937
     17      -0.065831   0.016299   0.038307  -0.037801  -0.016473  -0.001423
     18       0.007788   0.039101   0.025298   0.031685   0.062494   0.012179
     19       0.048841  -0.010414  -0.036088   0.116034   0.087219   0.012584
     20      -0.051049  -0.076264  -0.067097  -0.065750  -0.076095  -0.010547
     21      -0.032606  -0.096439  -0.012768   0.055717   0.056922   0.006294
     22      -0.073332  -0.131398   0.105702   0.127795   0.135356   0.012022
     23       0.039435  -0.026263  -0.198292  -0.050278  -0.113069  -0.013778
     24       0.032453   0.057939  -0.005049   0.013074   0.058092   0.014410
     25       0.120607   0.062807  -0.100705   0.079245   0.076411   0.012659
     26      -0.110678  -0.004044   0.106893  -0.064051  -0.027775  -0.002156
     27      -0.037240  -0.186650  -0.091060  -0.010783  -0.059470  -0.015105
     28      -0.083762  -0.090199   0.129691  -0.170255  -0.152552  -0.028761
     29       0.054517   0.161639  -0.041710   0.122434   0.165093   0.036053
     30       0.015983   0.050760   0.033733  -0.042249  -0.015765   0.001128
     31       0.063278   0.002052  -0.037672  -0.019800  -0.058393  -0.007159
     32      -0.062526  -0.105377  -0.107492   0.039695   0.032533   0.007501
     33       0.006541   0.041913   0.037509  -0.018245  -0.016520   0.001131
     34       0.034928  -0.006556  -0.070753  -0.054830  -0.093998  -0.012545
     35      -0.037751  -0.090966  -0.089380   0.040320   0.053784   0.011274
     36      -0.003843   0.051669   0.080535  -0.042356   0.030108  -0.032301
     37       0.043562  -0.038704  -0.044967   0.011153  -0.052980  -0.003895
     38      -0.009668   0.039943   0.118014   0.024476  -0.001066   0.010775
     39      -0.050181   0.051413   0.060974   0.023092  -0.109814  -0.009110
     40       0.169028   0.028545  -0.078058  -0.145439   0.053381   0.003190
     41      -0.005541  -0.028167  -0.044677   0.026759   0.026295   0.007469
     42      -0.027126   0.024873   0.042689   0.025975  -0.043855  -0.001650
     43      -0.059318  -0.028492  -0.069025   0.000712  -0.187903  -0.022950
     44       0.049990  -0.079953  -0.085314   0.014173   0.147633   0.021751
     45       0.082760   0.036714   0.009863  -0.079564   0.086637   0.011552
     46      -0.010236  -0.021637  -0.087957  -0.060757  -0.132196  -0.017445
     47      -0.120727  -0.104804  -0.096266   0.059078  -0.036021   0.000904
     48      -0.114946   0.083198   0.116325  -0.017748  -0.066050  -0.004557
     49       0.302570   0.060637  -0.090986  -0.185416   0.123061   0.009838
     50      -0.236456  -0.037630   0.025518   0.038206  -0.020656   0.003305
     51      -0.111229   0.067850   0.089759   0.059537  -0.215382  -0.021763
     52       0.335173   0.054950  -0.114018  -0.143230   0.043708   0.000401
     53       0.212715  -0.004830  -0.098760   0.012050   0.061772   0.009833
     54      -0.028074   0.085256  -0.045562  -0.001381  -0.008609   0.034571
     55      -0.121810   0.220115  -0.137539  -0.000325  -0.022766   0.037342
     56       0.089688  -0.266262   0.145422  -0.011771  -0.012508   0.005593
     57      -0.001785   0.053684   0.038565   0.093877   0.123652   0.021143
     58       0.035569  -0.009763  -0.058737   0.211347   0.168857   0.024942
     59      -0.039728  -0.066155  -0.025330  -0.154167  -0.145664  -0.021278
     60      -0.112863   0.237720  -0.215992   0.026323   0.052964  -0.200930
     61      -0.139546   0.346678  -0.272646   0.072359   0.191250  -0.682091
     62       0.084947  -0.164827   0.038267   0.055462   0.189036  -0.668846
     63       0.007918   0.032389   0.025765   0.002115   0.013248  -0.002845
     64       0.011173   0.003646   0.138597   0.030182   0.024669  -0.001134
     65      -0.076519   0.012554  -0.031361   0.010601  -0.007450  -0.006174
     66      -0.015774   0.064345  -0.009679  -0.001391  -0.012056   0.062861
     67      -0.066756   0.132761  -0.003124  -0.001486  -0.028754   0.114952
     68       0.031961  -0.194120   0.098691  -0.009924  -0.034998   0.094091
     69       0.022656  -0.051321  -0.020187   0.003257   0.003336  -0.006540
     70      -0.026157   0.011440   0.014224   0.037575   0.018900  -0.000796
     71      -0.107244   0.036344  -0.113260   0.015783  -0.009516  -0.005209
     72      -0.011304   0.060913   0.130858  -0.017014   0.061383  -0.028858
     73       0.036541  -0.047209  -0.046496   0.023725  -0.037041  -0.002821
     74       0.018855   0.137520   0.288214   0.002383  -0.005772   0.001900
     75      -0.007230   0.053036   0.061553   0.000593   0.032011  -0.004086
     76       0.027781  -0.018319   0.102775   0.033600   0.004127   0.001545
     77      -0.041688   0.065436   0.091082   0.006639  -0.010516  -0.001898
     78       0.032282   0.102750   0.171425  -0.051884   0.035541  -0.035467
     79       0.023908  -0.104301  -0.136445   0.043968  -0.023082   0.004815
     80       0.050323   0.163799   0.310604  -0.021781  -0.023810  -0.002453
     81      -0.055729  -0.208542  -0.073609   0.029816  -0.017791  -0.008825
     82      -0.144331  -0.163985   0.191623  -0.043089  -0.018112  -0.015405
     83       0.101261   0.086792  -0.203096   0.057237   0.023660   0.015860
     84       0.009521  -0.054278  -0.063965  -0.013313  -0.016279  -0.000760
     85       0.054345   0.023477  -0.025478  -0.092099  -0.081895  -0.010034
     86      -0.054689   0.119271   0.120325   0.045350   0.117609   0.025453
     87       0.067205  -0.004488  -0.033373   0.055535  -0.109141  -0.007680
     88      -0.106519  -0.009048  -0.008800  -0.158546   0.099226   0.011866
     89       0.046208   0.039876  -0.003700   0.004983  -0.002323   0.001287
     90       0.086458  -0.018440  -0.032597   0.257465  -0.244218  -0.016786
     91      -0.267407  -0.038706   0.021081  -0.200768   0.157071   0.019669
     92      -0.150609   0.011434   0.030954  -0.134596   0.125414   0.014451
     93       0.149107  -0.045756  -0.108216   0.009400  -0.052559  -0.002332
     94      -0.207896  -0.052349  -0.027615  -0.325436   0.252444   0.026484
     95       0.248628   0.052936  -0.052837   0.164343  -0.135388  -0.011504
     96       0.054299   0.007958  -0.035962  -0.123982   0.008981   0.000221
     97      -0.045081   0.048127   0.049399   0.120412  -0.147647  -0.010143
     98       0.091551   0.136397   0.061549  -0.053274  -0.037617  -0.007872
     99       0.013845   0.050621   0.025200  -0.082574  -0.047025  -0.005701
    100       0.027067   0.090484   0.077809   0.295410  -0.313615  -0.025930
    101      -0.041223   0.129239   0.091476  -0.226261   0.108592   0.005405
    102       0.099511  -0.039218  -0.094932  -0.088041   0.013423   0.002650
    103      -0.176695   0.020646   0.076896   0.104692  -0.097041  -0.002358
    104       0.123261   0.186957   0.093347  -0.073334  -0.066730  -0.013701
    105       0.039816   0.021998  -0.039966  -0.336710   0.150382   0.009562
    106       0.058129   0.075553   0.037263   0.169823  -0.218165  -0.018846
    107       0.224952   0.164558   0.048186   0.094386  -0.182396  -0.022418
                 18         19         20         21         22         23    
      0       0.054466  -0.079512   0.035956   0.023754   0.019934   0.040831
      1      -0.066000   0.094896  -0.026976  -0.027950  -0.010712  -0.007598
      2      -0.025205   0.070623  -0.031116   0.027969  -0.004110  -0.008037
      3       0.002719   0.017814   0.005249   0.021451   0.011491   0.058434
      4      -0.070491   0.088117  -0.028276  -0.039940  -0.021603   0.043751
      5      -0.048603   0.123258  -0.047370   0.041466   0.001808  -0.046776
      6      -0.038695   0.102066  -0.026068   0.029039   0.001994   0.020670
      7      -0.030440  -0.005134  -0.013385   0.016727   0.005334   0.006689
      8      -0.034121   0.102185  -0.029227   0.008367  -0.003754   0.009400
      9      -0.025189   0.085667  -0.023164   0.042239   0.007173   0.004983
     10       0.013101  -0.061204  -0.001129   0.058443   0.023495  -0.036504
     11      -0.003135   0.015622   0.001471  -0.000952   0.004202   0.087739
     12       0.027239  -0.003142   0.009578   0.029391   0.009767   0.041426
     13       0.018364  -0.025921   0.001984   0.005042  -0.000624   0.045987
     14       0.016262  -0.059665   0.014255   0.044300   0.028033   0.026198
     15       0.065384  -0.088571   0.039023   0.027680   0.020810   0.066505
     16      -0.025281   0.049963  -0.013425  -0.025233  -0.011859   0.058960
     17       0.002311  -0.016325  -0.005761   0.057393   0.020819  -0.011441
     18       0.047225  -0.073281   0.019925   0.051949   0.014982  -0.029894
     19      -0.076189   0.042980  -0.040222   0.053004   0.013853  -0.108497
     20      -0.011989   0.085430  -0.007840  -0.052613  -0.019287   0.072574
     21      -0.010000   0.034885  -0.002442   0.015817   0.004199   0.067451
     22      -0.109292   0.149446  -0.054241  -0.054599  -0.046677   0.072256
     23      -0.090293   0.197572  -0.071483   0.048216   0.006875  -0.078099
     24       0.103112  -0.160303   0.062500   0.039510   0.033337   0.104907
     25      -0.021562   0.061956  -0.012347  -0.040670  -0.018752   0.086923
     26       0.016457  -0.061909   0.004086   0.076901   0.033147  -0.020614
     27      -0.053115   0.138727  -0.044137   0.052913   0.004120  -0.034616
     28       0.043572  -0.129266   0.006681   0.119505   0.046023  -0.110287
     29       0.007040   0.002457   0.016466  -0.042152  -0.004790   0.161025
     30       0.050781  -0.030190   0.034766  -0.057609  -0.006055   0.037718
     31      -0.055456   0.035212  -0.003640  -0.128684  -0.013882   0.021223
     32      -0.001371  -0.123544  -0.026101   0.125294   0.013870  -0.042800
     33       0.056403   0.099282   0.038938   0.003576   0.003602  -0.042056
     34      -0.107399  -0.162353  -0.094929   0.055017  -0.009104   0.054366
     35       0.022520  -0.112213   0.021629  -0.050037  -0.007185  -0.028790
     36      -0.286766  -0.032675  -0.111766  -0.096949   0.023425   0.031965
     37       0.205552   0.041872   0.252513  -0.027331   0.116760   0.034885
     38       0.061760  -0.055970   0.045318   0.117493  -0.012624  -0.032607
     39       0.005512   0.044886   0.009412  -0.042171  -0.012931  -0.024279
     40      -0.015917  -0.057758  -0.029858   0.013461  -0.012292  -0.024882
     41       0.018107  -0.109757   0.035369  -0.198297  -0.039380  -0.048403
     42       0.044349   0.171177   0.039526   0.027841   0.014185  -0.062465
     43      -0.178059  -0.262268  -0.160474   0.142216  -0.003366   0.104339
     44       0.100475   0.101638   0.107729  -0.139275  -0.003223  -0.115904
     45       0.115403   0.178684   0.068865   0.070673   0.018715  -0.081793
     46      -0.153537  -0.294369  -0.162865   0.185841  -0.001993   0.111317
     47      -0.055759  -0.292522  -0.067775   0.065165  -0.006062   0.053115
     48       0.041341   0.127211   0.038490  -0.068140  -0.013182  -0.024100
     49       0.027576  -0.000577  -0.000316   0.004424  -0.009231  -0.086439
     50      -0.002559  -0.100882   0.025853  -0.209297  -0.042654   0.029955
     51      -0.056167  -0.010369  -0.032123  -0.056605  -0.022998   0.027159
     52      -0.025034  -0.076335  -0.040655   0.023195  -0.013645  -0.065774
     53       0.034984  -0.105929   0.040829  -0.177563  -0.035909  -0.116734
     54       0.165989   0.010612  -0.255873  -0.043275   0.069802   0.002166
     55      -0.078794  -0.002983   0.107781   0.017273  -0.023200  -0.000593
     56      -0.020652  -0.003530   0.016533   0.002587   0.002560  -0.002131
     57       0.028512  -0.055956  -0.017340   0.196066   0.031572  -0.122424
     58      -0.096661  -0.068928  -0.095686   0.302249   0.049902  -0.271257
     59       0.000226   0.249614   0.040819  -0.296214  -0.057614   0.231326
[...]
     75      -0.022340   0.718833   0.106991   0.012830   0.020823   0.002804
     76      -0.021476   0.660652   0.108838   0.009543   0.040302   0.004950
     77       0.001138  -0.028685  -0.004502  -0.001782  -0.024190  -0.002295
     78       0.001172   0.016116   0.003719  -0.602313  -0.042720   0.002679
     79       0.001799   0.014463   0.002069  -0.045428  -0.002912   0.000257
     80      -0.004526  -0.012267  -0.003394   0.790319   0.055449  -0.003654
     81       0.046538   0.001016  -0.000593  -0.000010  -0.000258  -0.000388
     82      -0.091947  -0.001694   0.000050   0.000140   0.000633   0.001105
     83      -0.095772  -0.001989   0.000137   0.000186   0.000791   0.000786
     84      -0.012178   0.003382  -0.004210  -0.000021  -0.000321   0.000773
     85       0.003903  -0.000942   0.001067   0.000044   0.000130  -0.000073
     86       0.000038  -0.000002   0.000142   0.000032   0.000049  -0.000096
     87       0.000020   0.000017   0.000007   0.000004  -0.000001  -0.000003
     88      -0.000033   0.000017  -0.000016   0.000002   0.000002   0.000004
     89      -0.000055   0.000025   0.000002  -0.000009  -0.000013  -0.000003
     90       0.000058  -0.000035  -0.000025   0.000034   0.000034   0.000016
     91      -0.000186  -0.000146   0.000122  -0.000111  -0.000044  -0.000024
     92       0.000114  -0.000198  -0.000072   0.000068   0.000068   0.000041
     93      -0.000411  -0.000127  -0.000024  -0.000127  -0.000019   0.000016
     94       0.000567   0.000169   0.000037   0.000235   0.000055  -0.000018
     95       0.000475   0.000005   0.000035   0.000230   0.000063   0.000003
     96      -0.000001  -0.000003   0.000006   0.000012  -0.000001  -0.000003
     97      -0.000028   0.000046  -0.000019  -0.000006   0.000000   0.000005
     98      -0.000002   0.000007  -0.000002  -0.000021  -0.000006  -0.000005
     99      -0.000001  -0.000041  -0.000034  -0.000163  -0.000019   0.000006
    100      -0.000030  -0.000212   0.000033   0.000083   0.000015   0.000002
    101       0.000009  -0.000154   0.000016   0.000137   0.000015   0.000003
    102       0.000126  -0.000068   0.000055  -0.000025   0.000036   0.000004
    103       0.000086  -0.000070   0.000049   0.000004   0.000026   0.000000
    104       0.000157   0.000055   0.000051   0.000047   0.000032   0.000001
    105      -0.000076  -0.000006   0.000007  -0.000030  -0.000003   0.000004
    106       0.000249  -0.000279   0.000026  -0.000044  -0.000019  -0.000026
    107      -0.000174   0.000097  -0.000027   0.000053   0.000017   0.000030


-----------
IR SPECTRUM  
-----------

 Mode    freq (cm**-1)   T**2         TX         TY         TZ
-------------------------------------------------------------------
   6:         5.19    0.000000  (  0.000000   0.000000   0.000000)
   7:        26.65    0.000000  (  0.000000   0.000000   0.000000)
   8:        37.11    0.000000  (  0.000000   0.000000   0.000000)
   9:        38.14    0.000000  (  0.000000   0.000000   0.000000)
  10:        58.80    0.000000  (  0.000000   0.000000   0.000000)
  11:        60.04    0.000000  (  0.000000   0.000000   0.000000)
  12:        63.72    0.000000  (  0.000000   0.000000   0.000000)
  13:        79.45    0.000000  (  0.000000   0.000000   0.000000)
  14:        87.02    0.000000  (  0.000000   0.000000   0.000000)
  15:       108.60    0.000000  (  0.000000   0.000000   0.000000)
  16:       118.70    0.000000  (  0.000000   0.000000   0.000000)
  17:       127.93    0.000000  (  0.000000   0.000000   0.000000)
  18:       155.59    0.000000  (  0.000000   0.000000   0.000000)
  19:       158.51    0.000000  (  0.000000   0.000000   0.000000)
  20:       186.35    0.000000  (  0.000000   0.000000   0.000000)
  21:       223.14    0.000000  (  0.000000   0.000000   0.000000)
  22:       247.99    0.000000  (  0.000000   0.000000   0.000000)
  23:       271.78    0.000000  (  0.000000   0.000000   0.000000)
  24:       276.02    0.000000  (  0.000000   0.000000   0.000000)
  25:       277.76    0.000000  (  0.000000   0.000000   0.000000)
  26:       283.01    0.000000  (  0.000000   0.000000   0.000000)
  27:       300.59    0.000000  (  0.000000   0.000000   0.000000)
  28:       377.31    0.000000  (  0.000000   0.000000   0.000000)
  29:       386.46    0.000000  (  0.000000   0.000000   0.000000)
  30:       394.25    0.000000  (  0.000000   0.000000   0.000000)
  31:       428.98    0.000000  (  0.000000   0.000000   0.000000)
  32:       460.84    0.000000  (  0.000000   0.000000   0.000000)
  33:       473.38    0.000000  (  0.000000   0.000000   0.000000)
  34:       483.57    0.000000  (  0.000000   0.000000   0.000000)
  35:       506.66    0.000000  (  0.000000   0.000000   0.000000)
  36:       585.12    0.000000  (  0.000000   0.000000   0.000000)
  37:       589.39    0.000000  (  0.000000   0.000000   0.000000)
  38:       623.48    0.000000  (  0.000000   0.000000   0.000000)
  39:       663.55    0.000000  (  0.000000   0.000000   0.000000)
  40:       690.56    0.000000  (  0.000000   0.000000   0.000000)
  41:       743.07    0.000000  (  0.000000   0.000000   0.000000)
  42:       755.77    0.000000  (  0.000000   0.000000   0.000000)
  43:       770.35    0.000000  (  0.000000   0.000000   0.000000)
  44:       824.03    0.000000  (  0.000000   0.000000   0.000000)
  45:       859.02    0.000000  (  0.000000   0.000000   0.000000)
  46:       871.59    0.000000  (  0.000000   0.000000   0.000000)
  47:       902.64    0.000000  (  0.000000   0.000000   0.000000)
  48:       916.51    0.000000  (  0.000000   0.000000   0.000000)
  49:       930.45    0.000000  (  0.000000   0.000000   0.000000)
  50:       936.03    0.000000  (  0.000000   0.000000   0.000000)
  51:       945.42    0.000000  (  0.000000   0.000000   0.000000)
  52:       951.96    0.000000  (  0.000000   0.000000   0.000000)
  53:       984.81    0.000000  (  0.000000   0.000000   0.000000)
  54:      1022.24    0.000000  (  0.000000   0.000000   0.000000)
  55:      1067.21    0.000000  (  0.000000   0.000000   0.000000)
  56:      1070.84    0.000000  (  0.000000   0.000000   0.000000)
  57:      1100.37    0.000000  (  0.000000   0.000000   0.000000)
  58:      1114.19    0.000000  (  0.000000   0.000000   0.000000)
  59:      1126.42    0.000000  (  0.000000   0.000000   0.000000)
  60:      1144.63    0.000000  (  0.000000   0.000000   0.000000)
  61:      1178.09    0.000000  (  0.000000   0.000000   0.000000)
  62:      1185.00    0.000000  (  0.000000   0.000000   0.000000)
  63:      1209.92    0.000000  (  0.000000   0.000000   0.000000)
  64:      1219.76    0.000000  (  0.000000   0.000000   0.000000)
  65:      1253.66    0.000000  (  0.000000   0.000000   0.000000)
  66:      1266.88    0.000000  (  0.000000   0.000000   0.000000)
  67:      1273.91    0.000000  (  0.000000   0.000000   0.000000)
  68:      1277.08    0.000000  (  0.000000   0.000000   0.000000)
  69:      1295.29    0.000000  (  0.000000   0.000000   0.000000)
  70:      1324.63    0.000000  (  0.000000   0.000000   0.000000)
  71:      1357.19    0.000000  (  0.000000   0.000000   0.000000)
  72:      1368.30    0.000000  (  0.000000   0.000000   0.000000)
  73:      1422.27    0.000000  (  0.000000   0.000000   0.000000)
  74:      1427.75    0.000000  (  0.000000   0.000000   0.000000)
  75:      1453.61    0.000000  (  0.000000   0.000000   0.000000)
  76:      1468.34    0.000000  (  0.000000   0.000000   0.000000)
  77:      1498.48    0.000000  (  0.000000   0.000000   0.000000)
  78:      1504.26    0.000000  (  0.000000   0.000000   0.000000)
  79:      1507.29    0.000000  (  0.000000   0.000000   0.000000)
  80:      1512.48    0.000000  (  0.000000   0.000000   0.000000)
  81:      1530.33    0.000000  (  0.000000   0.000000   0.000000)
  82:      1540.01    0.000000  (  0.000000   0.000000   0.000000)
  83:      1558.69    0.000000  (  0.000000   0.000000   0.000000)
  84:      1560.68    0.000000  (  0.000000   0.000000   0.000000)
  85:      1567.48    0.000000  (  0.000000   0.000000   0.000000)
  86:      1667.26    0.000000  (  0.000000   0.000000   0.000000)
  87:      2887.40    0.000000  (  0.000000   0.000000   0.000000)
  88:      2901.24    0.000000  (  0.000000   0.000000   0.000000)
  89:      2942.43    0.000000  (  0.000000   0.000000   0.000000)
  90:      2950.39    0.000000  (  0.000000   0.000000   0.000000)
  91:      2957.64    0.000000  (  0.000000   0.000000   0.000000)
  92:      2961.51    0.000000  (  0.000000   0.000000   0.000000)
  93:      2967.30    0.000000  (  0.000000   0.000000   0.000000)
  94:      2972.98    0.000000  (  0.000000   0.000000   0.000000)
  95:      2980.67    0.000000  (  0.000000   0.000000   0.000000)
  96:      2986.73    0.000000  (  0.000000   0.000000   0.000000)
  97:      2998.78    0.000000  (  0.000000   0.000000   0.000000)
  98:      3055.45    0.000000  (  0.000000   0.000000   0.000000)
  99:      3063.36    0.000000  (  0.000000   0.000000   0.000000)
 100:      3070.03    0.000000  (  0.000000   0.000000   0.000000)
 101:      3078.43    0.000000  (  0.000000   0.000000   0.000000)
 102:      3105.93    0.000000  (  0.000000   0.000000   0.000000)
 103:      3187.02    0.000000  (  0.000000   0.000000   0.000000)
 104:      3308.78    0.000000  (  0.000000   0.000000   0.000000)
 105:      3578.58    0.000000  (  0.000000   0.000000   0.000000)
 106:      3593.12    0.000000  (  0.000000   0.000000   0.000000)
 107:      3609.18    0.000000  (  0.000000   0.000000   0.000000)

The first frequency considered to be a vibration is 6
The total number of vibrations considered is 102


--------------------------
THERMOCHEMISTRY AT 298.15K
--------------------------

Temperature         ... 298.15 K
Pressure            ... 1.00 atm
Total Mass          ... 215.29 AMU

Throughout the following assumptions are being made:
  (1) The electronic state is orbitally nondegenerate
  (2) There are no thermally accessible electronically excited states
  (3) Hindered rotations indicated by low frequency modes are not
      treated as such but are treated as vibrations and this may
      cause some error
  (4) All equations used are the standard statistical mechanics
      equations for an ideal gas
  (5) All vibrations are strictly harmonic

freq.       5.19  E(vib)   ...       0.59 
freq.      26.65  E(vib)   ...       0.56 
freq.      37.11  E(vib)   ...       0.54 
freq.      38.14  E(vib)   ...       0.54 
freq.      58.80  E(vib)   ...       0.51 
freq.      60.04  E(vib)   ...       0.51 
freq.      63.72  E(vib)   ...       0.51 
freq.      79.45  E(vib)   ...       0.49 
freq.      87.02  E(vib)   ...       0.48 
freq.     108.60  E(vib)   ...       0.45 
freq.     118.70  E(vib)   ...       0.44 
freq.     127.93  E(vib)   ...       0.43 
freq.     155.59  E(vib)   ...       0.40 
freq.     158.51  E(vib)   ...       0.39 
freq.     186.35  E(vib)   ...       0.37 
freq.     223.14  E(vib)   ...       0.33 
freq.     247.99  E(vib)   ...       0.31 
freq.     271.78  E(vib)   ...       0.29 
freq.     276.02  E(vib)   ...       0.28 
freq.     277.76  E(vib)   ...       0.28 
freq.     283.01  E(vib)   ...       0.28 
freq.     300.59  E(vib)   ...       0.26 
freq.     377.31  E(vib)   ...       0.21 
freq.     386.46  E(vib)   ...       0.20 
freq.     394.25  E(vib)   ...       0.20 
freq.     428.98  E(vib)   ...       0.18 
freq.     460.84  E(vib)   ...       0.16 
freq.     473.38  E(vib)   ...       0.15 
freq.     483.57  E(vib)   ...       0.15 
freq.     506.66  E(vib)   ...       0.14 
freq.     585.12  E(vib)   ...       0.11 
freq.     589.39  E(vib)   ...       0.10 
freq.     623.48  E(vib)   ...       0.09 
freq.     663.55  E(vib)   ...       0.08 
freq.     690.56  E(vib)   ...       0.07 
freq.     743.07  E(vib)   ...       0.06 
freq.     755.77  E(vib)   ...       0.06 
freq.     770.35  E(vib)   ...       0.05 
freq.     824.03  E(vib)   ...       0.05 
freq.     859.02  E(vib)   ...       0.04 
freq.     871.59  E(vib)   ...       0.04 
freq.     902.64  E(vib)   ...       0.03 
freq.     916.51  E(vib)   ...       0.03 
freq.     930.45  E(vib)   ...       0.03 
freq.     936.03  E(vib)   ...       0.03 
freq.     945.42  E(vib)   ...       0.03 
freq.     951.96  E(vib)   ...       0.03 
freq.     984.81  E(vib)   ...       0.02 
freq.    1022.24  E(vib)   ...       0.02 
freq.    1067.21  E(vib)   ...       0.02 
freq.    1070.84  E(vib)   ...       0.02 
freq.    1100.37  E(vib)   ...       0.02 
freq.    1114.19  E(vib)   ...       0.01 
freq.    1126.42  E(vib)   ...       0.01 
freq.    1144.63  E(vib)   ...       0.01 
freq.    1178.09  E(vib)   ...       0.01 
freq.    1185.00  E(vib)   ...       0.01 
freq.    1209.92  E(vib)   ...       0.01 
freq.    1219.76  E(vib)   ...       0.01 
freq.    1253.66  E(vib)   ...       0.01 
freq.    1266.88  E(vib)   ...       0.01 
freq.    1273.91  E(vib)   ...       0.01 
freq.    1277.08  E(vib)   ...       0.01 
freq.    1295.29  E(vib)   ...       0.01 
freq.    1324.63  E(vib)   ...       0.01 
freq.    1357.19  E(vib)   ...       0.01 
freq.    1368.30  E(vib)   ...       0.01 
freq.    1422.27  E(vib)   ...       0.00 
freq.    1427.75  E(vib)   ...       0.00 
freq.    1453.61  E(vib)   ...       0.00 
freq.    1468.34  E(vib)   ...       0.00 
freq.    1498.48  E(vib)   ...       0.00 
freq.    1504.26  E(vib)   ...       0.00 
freq.    1507.29  E(vib)   ...       0.00 
freq.    1512.48  E(vib)   ...       0.00 
freq.    1530.33  E(vib)   ...       0.00 
freq.    1540.01  E(vib)   ...       0.00 
freq.    1558.69  E(vib)   ...       0.00 
freq.    1560.68  E(vib)   ...       0.00 
freq.    1567.48  E(vib)   ...       0.00 
freq.    1667.26  E(vib)   ...       0.00 
freq.    2887.40  E(vib)   ...       0.00 
freq.    2901.24  E(vib)   ...       0.00 
freq.    2942.43  E(vib)   ...       0.00 
freq.    2950.39  E(vib)   ...       0.00 
freq.    2957.64  E(vib)   ...       0.00 
freq.    2961.51  E(vib)   ...       0.00 
freq.    2967.30  E(vib)   ...       0.00 
freq.    2972.98  E(vib)   ...       0.00 
freq.    2980.67  E(vib)   ...       0.00 
freq.    2986.73  E(vib)   ...       0.00 
freq.    2998.78  E(vib)   ...       0.00 
freq.    3055.45  E(vib)   ...       0.00 
freq.    3063.36  E(vib)   ...       0.00 
freq.    3070.03  E(vib)   ...       0.00 
freq.    3078.43  E(vib)   ...       0.00 
freq.    3105.93  E(vib)   ...       0.00 
freq.    3187.02  E(vib)   ...       0.00 
freq.    3308.78  E(vib)   ...       0.00 
freq.    3578.58  E(vib)   ...       0.00 
freq.    3593.12  E(vib)   ...       0.00 
freq.    3609.18  E(vib)   ...       0.00 

------------
INNER ENERGY
------------

The inner energy is: U= E(el) + E(ZPE) + E(vib) + E(rot) + E(trans)
    E(el)   - is the total energy from the electronic structure calculation
              = E(kin-el) + E(nuc-el) + E(el-el) + E(nuc-nuc)
    E(ZPE)  - the the zero temperature vibrational energy from the frequency calculation
    E(vib)  - the the finite temperature correction to E(ZPE) due to population
              of excited vibrational states
    E(rot)  - is the rotational thermal energy
    E(trans)- is the translational thermal energy

Summary of contributions to the inner energy U:
Electronic energy                ...    -49.36700805 Eh
Zero point energy                ...      0.29725248 Eh     186.53 kcal/mol
Thermal vibrational correction   ...      0.01882769 Eh      11.81 kcal/mol
Thermal rotational correction    ...      0.00141627 Eh       0.89 kcal/mol
Thermal translational correction ...      0.00141627 Eh       0.89 kcal/mol
-----------------------------------------------------------------------
Total thermal energy                    -49.04809534 Eh


Summary of corrections to the electronic energy:
(perhaps to be used in another calculation)
Total thermal correction                  0.02166023 Eh      13.59 kcal/mol
Non-thermal (ZPE) correction              0.29725248 Eh     186.53 kcal/mol
-----------------------------------------------------------------------
Total correction                          0.31891272 Eh     200.12 kcal/mol


--------
ENTHALPY
--------

The enthalpy is H = U + kB*T
                kB is Boltzmann's constant
Total free energy                 ...    -49.04809534 Eh 
Thermal Enthalpy correction       ...      0.00094421 Eh       0.59 kcal/mol
-----------------------------------------------------------------------
Total Enthalpy                    ...    -49.04715113 Eh


Note: Only C1 symmetry has been detected, increase convergence thresholds 
      if your molecule has a higher symmetry. Symmetry factor of 1.0 is   
      used for the rotational entropy correction. 
 

Note: Rotational entropy computed according to Herzberg 
Infrared and Raman Spectra, Chapter V,1, Van Nostrand Reinhold, 1945 
Point Group:  C1, Symmetry Number:   1  
Rotational constants in cm-1:     0.025493     0.007968     0.006796 

Vibrational entropy computed according to the QRRHO of S. Grimme
Chem.Eur.J. 2012 18 9955


-------
ENTROPY
-------

The entropy contributions are T*S = T*(S(el)+S(vib)+S(rot)+S(trans))
     S(el)   - electronic entropy
     S(vib)  - vibrational entropy
     S(rot)  - rotational entropy
     S(trans)- translational entropy
The entropies will be listed as mutliplied by the temperature to get
units of energy

Electronic entropy                ...      0.00000000 Eh      0.00 kcal/mol
Vibrational entropy               ...      0.03526651 Eh     22.13 kcal/mol
Rotational entropy                ...      0.01588078 Eh      9.97 kcal/mol
Translational entropy             ...      0.01995728 Eh     12.52 kcal/mol
-----------------------------------------------------------------------
Final entropy term                ...      0.07110457 Eh     44.62 kcal/mol

In case the symmetry of your molecule has not been determined correctly
or in case you have a reason to use a different symmetry number we print 
out the resulting rotational entropy values for sn=1,12 :
 --------------------------------------------------------
|  sn= 1 | S(rot)=       0.01588078 Eh      9.97 kcal/mol|
|  sn= 2 | S(rot)=       0.01522632 Eh      9.55 kcal/mol|
|  sn= 3 | S(rot)=       0.01484349 Eh      9.31 kcal/mol|
|  sn= 4 | S(rot)=       0.01457186 Eh      9.14 kcal/mol|
|  sn= 5 | S(rot)=       0.01436117 Eh      9.01 kcal/mol|
|  sn= 6 | S(rot)=       0.01418903 Eh      8.90 kcal/mol|
|  sn= 7 | S(rot)=       0.01404348 Eh      8.81 kcal/mol|
|  sn= 8 | S(rot)=       0.01391741 Eh      8.73 kcal/mol|
|  sn= 9 | S(rot)=       0.01380620 Eh      8.66 kcal/mol|
|  sn=10 | S(rot)=       0.01370672 Eh      8.60 kcal/mol|
|  sn=11 | S(rot)=       0.01361673 Eh      8.54 kcal/mol|
|  sn=12 | S(rot)=       0.01353457 Eh      8.49 kcal/mol|
 --------------------------------------------------------


-------------------
GIBBS FREE ENERGY
-------------------

The Gibbs free energy is G = H - T*S

Total enthalpy                    ...    -49.04715113 Eh 
Total entropy correction          ...     -0.07110457 Eh    -44.62 kcal/mol
-----------------------------------------------------------------------
Final Gibbs free energy         ...    -49.11825569 Eh

For completeness - the Gibbs free energy minus the electronic energy
G-E(el)                           ...      0.24875236 Eh    156.09 kcal/mol


Total Time for Numerical Frequencies  :       121.416 sec
Time for Reference State(s)           :         0.155 sec
Time for Displacements                :       110.838 sec

Timings for individual modules:

Sum of individual times         ...        0.264 sec (=   0.004 min)
XTB module                      ...        0.264 sec (=   0.004 min) 100.0 %
                             ****ORCA TERMINATED NORMALLY****
TOTAL RUN TIME: 0 days 0 hours 2 minutes 2 seconds 50 msec
(SLURM) EXECUTION TIME: 122.078910978 seconds.
