
                                 *****************
                                 * O   R   C   A *
                                 *****************

           --- An Ab Initio, DFT and Semiempirical electronic structure package ---

                  #######################################################
                  #                        -***-                        #
                  #          Department of theory and spectroscopy      #
                  #               Directorship: Frank Neese             #
                  #        Max Planck Institute fuer Kohlenforschung    #
                  #                Kaiser Wilhelm Platz 1               #
                  #                 D-45470 Muelheim/Ruhr               #
                  #                      Germany                        #
                  #                                                     #
                  #                  All rights reserved                #
                  #                        -***-                        #
                  #######################################################


                         Program Version 4.2.1 -  RELEASE  -


 With contributions from (in alphabetic order):
   Daniel Aravena         : Magnetic Suceptibility
   Michael Atanasov       : Ab Initio Ligand Field Theory (pilot matlab implementation)
   Alexander A. Auer      : GIAO ZORA, VPT2
   Ute Becker             : Parallelization
   Giovanni Bistoni       : ED, misc. LED, open-shell LED, HFLD
   Martin Brehm           : Molecular dynamics
   Dmytro Bykov           : SCF Hessian
   Vijay G. Chilkuri      : MRCI spin determinant printing, contributions to CSF-ICE
   Dipayan Datta          : RHF DLPNO-CCSD density
   Achintya Kumar Dutta   : EOM-CC, STEOM-CC
   Dmitry Ganyushin       : Spin-Orbit,Spin-Spin,Magnetic field MRCI
   Miquel Garcia          : C-PCM Hessian, Gaussian charge scheme
   Yang Guo               : DLPNO-NEVPT2, CIM, IAO-localization
   Andreas Hansen         : Spin unrestricted coupled pair/coupled cluster methods
   Benjamin Helmich-Paris : CASSCF linear response (MC-RPA)
   Lee Huntington         : MR-EOM, pCC
   Robert Izsak           : Overlap fitted RIJCOSX, COSX-SCS-MP3, EOM
   Christian Kollmar      : KDIIS, OOCD, Brueckner-CCSD(T), CCSD density
   Simone Kossmann        : Meta GGA functionals, TD-DFT gradient, OOMP2, MP2 Hessian
   Martin Krupicka        : AUTO-CI
   Lucas Lang             : DCDCAS
   Dagmar Lenk            : GEPOL surface, SMD
   Dimitrios Liakos       : Extrapolation schemes; Compound Job, initial MDCI parallelization
   Dimitrios Manganas     : Further ROCIS development; embedding schemes
   Dimitrios Pantazis     : SARC Basis sets
   Taras Petrenko         : DFT Hessian,TD-DFT gradient, ASA, ECA, R-Raman, ABS, FL, XAS/XES, NRVS
   Peter Pinski           : DLPNO-MP2, DLPNO-MP2 Gradient
   Christoph Reimann      : Effective Core Potentials
   Marius Retegan         : Local ZFS, SOC
   Christoph Riplinger    : Optimizer, TS searches, QM/MM, DLPNO-CCSD(T), (RO)-DLPNO pert. Triples
   Tobias Risthaus        : Range-separated hybrids, TD-DFT gradient, RPA, STAB
   Michael Roemelt        : Original ROCIS implementation
   Masaaki Saitow         : Open-shell DLPNO-CCSD energy and density
   Barbara Sandhoefer     : DKH picture change effects
   Avijit Sen             : IP-ROCIS
   Kantharuban Sivalingam : CASSCF convergence, NEVPT2, FIC-MRCI
   Bernardo de Souza      : ESD, SOC TD-DFT
   Georgi Stoychev        : AutoAux, RI-MP2 NMR
   Willem Van den Heuvel  : Paramagnetic NMR
   Boris Wezisla          : Elementary symmetry handling
   Frank Wennmohs         : Technical directorship


 We gratefully acknowledge several colleagues who have allowed us to
 interface, adapt or use parts of their codes:
   Stefan Grimme, W. Hujo, H. Kruse,             : VdW corrections, initial TS optimization,
                  C. Bannwarth                     DFT functionals, gCP, sTDA/sTD-DF
   Ed Valeev, F. Pavosevic, A. Kumar             : LibInt (2-el integral package), F12 methods
   Garnet Chan, S. Sharma, J. Yang, R. Olivares  : DMRG
   Ulf Ekstrom                                   : XCFun DFT Library
   Mihaly Kallay                                 : mrcc  (arbitrary order and MRCC methods)
   Andreas Klamt, Michael Diedenhofen            : otool_cosmo (COSMO solvation model)
   Jiri Pittner, Ondrej Demel                    : Mk-CCSD
   Frank Weinhold                                : gennbo (NPA and NBO analysis)
   Christopher J. Cramer and Donald G. Truhlar   : smd solvation model
   Lars Goerigk                                  : TD-DFT with DH, B97 family of functionals
   V. Asgeirsson, H. Jonsson                     : NEB implementation
   FAccTs GmbH                                   : IRC, NEB, NEB-TS, Multilevel, MM, QM/MM, CI optimization
   S Lehtola, MJT Oliveira, MAL Marques          : LibXC Library


 Your calculation uses the libint2 library for the computation of 2-el integrals
 For citations please refer to: http://libint.valeyev.net

 Your ORCA version has been built with support for libXC version: 4.2.3
 For citations please refer to: https://tddft.org/programs/libxc/

 This ORCA versions uses:
   CBLAS   interface :  Fast vector & matrix operations
   LAPACKE interface :  Fast linear algebra routines
   SCALAPACK package :  Parallel linear algebra routines




***************************************
The coordinates will be read from file: acetate.xyz
***************************************


Your calculation utilizes the atom-pairwise dispersion correction
with the zero-damping scheme (D30)
Cite in your paper:
S.Grimme, J.Antony, S.Ehrlich and H.Krieg, J.Chem.Phys., 132, (2010), 154104 
   

XCFun DFT library Copyright 2009-2010 Ulf Ekstrom and contributors.
See http://admol.org/xcfun for more information. This is free soft-
ware; see the source code for copying conditions. There is ABSOLUTELY
NO WARRANTY; not even for MERCHANTABILITY or FITNESS FOR A PARTICULAR
PURPOSE. For details see the documentation. Scientific users of this 
library should cite U. Ekstrom, L. Visscher, R. Bast, A. J. Thorvald-
sen and K. Ruud; J.Chem.Theor.Comp. 2010, DOI: 10.1021/ct100117s
XCFun Version 0.99 
----- Orbital basis set information -----
Your calculation utilizes the basis: 6-311++G(d,p)
   H, Li - Ne  : R. Krishnan, J. S. Binkley, R. Seeger and J. A. Pople, J. Chem. Phys. 72, 650 (1980).
   Na - Ar     : A. D. McLean and G. S. Chandler J. Chem. Phys. 72, 5639, (1980).
   K  - Ca     : J.-P. Blaudeau, M. P. McGrath, L. A. Curtiss and L. Radom, J. Chem. Phys. 107, 5016 (1997).
   Ga - Kr     : L. A. Curtiss, M. P. McGrath, J.-P. Blandeau, N. E. Davis, R. C. Binning and L. Radom, J. Chem. Phys. 103, 6104 (1995).
   Pol./Diff.
   H, Li - Cl  : T. Clark, J. Chandrasekhar and P. v. R. Schleyer, J. Comp. Chem. 4, 294 (1983).
   H - Ne      : M. J. Frisch, J. A. Pople and J. S. Binkley, J. Chem. Phys. 80, 3265 (1984).

================================================================================
                                        WARNINGS
                       Please study these warnings very carefully!
================================================================================


WARNING: The environment variable RSH_COMMAND is not set!
  ===> : All Displacements for the Numerical Hessian calculation
         will be started on localhost

WARNING: Geometry Optimization
  ===> : Switching off AutoStart
         For restart on a previous wavefunction, please use MOREAD

INFO   : the flag for use of LIBINT has been found!

================================================================================
                                       INPUT FILE
================================================================================
NAME = acetate.inp
|  1> ! UHF M062X D3Zero 6-311++G(d,p) Opt NumFreq TightOpt TightSCF Grid6 NoFinalGrid PrintBasis PrintMOs NBO
|  2> 
|  3> %pal
|  4>  nprocs 6
|  5> end
|  6> 
|  7> *xyzfile -1 1 acetate.xyz
|  8> 
|  9>                          ****END OF INPUT****
================================================================================

                       *****************************
                       * Geometry Optimization Run *
                       *****************************

Geometry optimization settings:
Update method            Update   .... BFGS
Choice of coordinates    CoordSys .... Z-matrix Internals
Initial Hessian          InHess   .... Almoef's Model

Convergence Tolerances:
Energy Change            TolE     ....  1.0000e-06 Eh
Max. Gradient            TolMAXG  ....  1.0000e-04 Eh/bohr
RMS Gradient             TolRMSG  ....  3.0000e-05 Eh/bohr
Max. Displacement        TolMAXD  ....  1.0000e-03 bohr
RMS Displacement         TolRMSD  ....  6.0000e-04 bohr
Strict Convergence                ....  False
------------------------------------------------------------------------------
                        ORCA OPTIMIZATION COORDINATE SETUP
------------------------------------------------------------------------------

The optimization will be done in new redundant internal coordinates
Making redundant internal coordinates   ...  (new redundants) done
Evaluating the initial hessian          ...  (Almloef) done
Evaluating the coordinates              ...  done
Calculating the B-matrix                .... done
Calculating the G-matrix                .... done
Diagonalizing the G-matrix              .... done
The first mode is                       ....    6
The number of degrees of freedom        ....   15

    -----------------------------------------------------------------
                    Redundant Internal Coordinates


    -----------------------------------------------------------------
         Definition                    Initial Value    Approx d2E/dq
    -----------------------------------------------------------------
      1. B(C   1,C   0)                  1.5663         0.326937   
      2. B(H   2,C   0)                  1.0944         0.354365   
      3. B(H   3,C   0)                  1.0944         0.354383   
      4. B(H   4,C   0)                  1.0916         0.357935   
      5. B(O   5,C   1)                  1.2411         0.967049   
      6. B(O   6,C   1)                  1.2434         0.958865   
      7. A(C   1,C   0,H   3)          110.1797         0.316497   
      8. A(C   1,C   0,H   4)          113.0479         0.317011   
      9. A(C   1,C   0,H   2)          110.1843         0.316494   
     10. A(H   2,C   0,H   4)          108.5014         0.289833   
     11. A(H   3,C   0,H   4)          108.5023         0.289835   
     12. A(H   2,C   0,H   3)          106.1712         0.289380   
     13. A(C   0,C   1,O   5)          116.0679         0.416419   
     14. A(O   5,C   1,O   6)          129.7183         0.503269   
     15. A(C   0,C   1,O   6)          114.2129         0.415790   
     16. D(O   5,C   1,C   0,H   3)    121.7393         0.008192   
     17. D(O   5,C   1,C   0,H   4)      0.1523         0.008192   
     18. D(O   6,C   1,C   0,H   2)     58.2462         0.008192   
     19. D(O   6,C   1,C   0,H   3)    -58.5776         0.008192   
     20. D(O   6,C   1,C   0,H   4)    179.8354         0.008192   
     21. D(O   5,C   1,C   0,H   2)   -121.4370         0.008192   
    -----------------------------------------------------------------

Number of atoms                         .... 7
Number of degrees of freedom            .... 21

         *************************************************************
         *                GEOMETRY OPTIMIZATION CYCLE   1            *
         *************************************************************
---------------------------------
CARTESIAN COORDINATES (ANGSTROEM)
---------------------------------
  C      0.623274   -1.310998   -0.000304
  C     -0.088447    0.084260   -0.001692
  H      1.273843   -1.402164    0.874964
  H      1.274403   -1.403522   -0.874996
  H     -0.077339   -2.148149    0.000128
  O     -1.329363    0.063508    0.000847
  O      0.690010    1.053824    0.001053

----------------------------
CARTESIAN COORDINATES (A.U.)
----------------------------
  NO LB      ZA    FRAG     MASS         X           Y           Z
   0 C     6.0000    0    12.011    1.177817   -2.477427   -0.000574
   1 C     6.0000    0    12.011   -0.167141    0.159228   -0.003197
   2 H     1.0000    0     1.008    2.407214   -2.649706    1.653442
   3 H     1.0000    0     1.008    2.408273   -2.652272   -1.653503
   4 H     1.0000    0     1.008   -0.146150   -4.059413    0.000242
   5 O     8.0000    0    15.999   -2.512132    0.120013    0.001601
   6 O     8.0000    0    15.999    1.303930    1.991439    0.001990

--------------------------------
INTERNAL COORDINATES (ANGSTROEM)
--------------------------------
 C      0   0   0     0.000000000000     0.00000000     0.00000000
 C      1   0   0     1.566299331210     0.00000000     0.00000000
 H      1   2   0     1.094369834718   110.18430207     0.00000000
 H      1   2   3     1.094356322265   110.17973230   243.17628092
 H      1   2   3     1.091641222744   113.04786936   121.58927153
 O      2   1   3     1.241092104189   116.06786411   238.56301703
 O      2   1   3     1.243405479307   114.21291185    58.24616760

---------------------------
INTERNAL COORDINATES (A.U.)
---------------------------
 C      0   0   0     0.000000000000     0.00000000     0.00000000
 C      1   0   0     2.959876779731     0.00000000     0.00000000
 H      1   2   0     2.068059276842   110.18430207     0.00000000
 H      1   2   3     2.068033742006   110.17973230   243.17628092
 H      1   2   3     2.062902947485   113.04786936   121.58927153
 O      2   1   3     2.345324183890   116.06786411   238.56301703
 O      2   1   3     2.349695829307   114.21291185    58.24616760

---------------------
BASIS SET INFORMATION
---------------------
There are 3 groups of distinct atoms

 Group   1 Type C   : 12s6p1d contracted to 5s4p1d pattern {63111/3111/1}
 Group   2 Type H   : 6s1p contracted to 4s1p pattern {3111/1}
 Group   3 Type O   : 12s6p1d contracted to 5s4p1d pattern {63111/3111/1}

Atom   0C    basis set group =>   1
Atom   1C    basis set group =>   1
Atom   2H    basis set group =>   2
Atom   3H    basis set group =>   2
Atom   4H    basis set group =>   2
Atom   5O    basis set group =>   3
Atom   6O    basis set group =>   3

-------------------------
BASIS SET IN INPUT FORMAT
-------------------------

 # Basis set for element : H 
 NewGTO H 
 S 3 
   1      33.8650000000      0.0254938145
   2       5.0947900000      0.1903731086
   3       1.1587900000      0.8521614860
 S 1 
   1       0.3258400000      1.0000000000
 S 1 
   1       0.1027410000      1.0000000000
 S 1 
   1       0.0360000000      1.0000000000
 P 1 
   1       0.7500000000      1.0000000000
  end;

 # Basis set for element : C 
 NewGTO C 
 S 6 
   1    4563.2400000000      0.0019666502
   2     682.0240000000      0.0152306019
   3     154.9730000000      0.0761269097
   4      44.4553000000      0.2608010331
   5      13.0290000000      0.6164620782
   6       1.8277300000      0.2210060280
 S 3 
   1      20.9642000000      0.1146600807
   2       4.8033100000      0.9199996477
   3       1.4593300000     -0.0030306821
 P 3 
   1      20.9642000000      0.0402486927
   2       4.8033100000      0.2375939567
   3       1.4593300000      0.8158538515
 S 1 
   1       0.4834560000      1.0000000000
 P 1 
   1       0.4834560000      1.0000000000
 S 1 
   1       0.1455850000      1.0000000000
 P 1 
   1       0.1455850000      1.0000000000
 S 1 
   1       0.0438000000      1.0000000000
 P 1 
   1       0.0438000000      1.0000000000
 D 1 
   1       0.6260000000      1.0000000000
  end;

 # Basis set for element : O 
 NewGTO O 
 S 6 
   1    8588.5000000000      0.0018951501
   2    1297.2300000000      0.0143859006
   3     299.2960000000      0.0707320031
   4      87.3771000000      0.2400010105
   5      25.6789000000      0.5947970261
   6       3.7400400000      0.2808020123
 S 3 
   1      42.1175000000      0.1138890124
   2       9.6283700000      0.9208111006
   3       2.8533200000     -0.0032744704
 P 3 
   1      42.1175000000      0.0365113974
   2       9.6283700000      0.2371529830
   3       2.8533200000      0.8197019412
 S 1 
   1       0.9056610000      1.0000000000
 P 1 
   1       0.9056610000      1.0000000000
 S 1 
   1       0.2556110000      1.0000000000
 P 1 
   1       0.2556110000      1.0000000000
 S 1 
   1       0.0845000000      1.0000000000
 P 1 
   1       0.0845000000      1.0000000000
 D 1 
   1       1.2920000000      1.0000000000
  end;



           ************************************************************
           *        Program running with 6 parallel MPI-processes     *
           *              working on a common directory               *
           ************************************************************
------------------------------------------------------------------------------
                           ORCA GTO INTEGRAL CALCULATION
------------------------------------------------------------------------------

                         BASIS SET STATISTICS AND STARTUP INFO

 # of primitive gaussian shells          ...   97
 # of primitive gaussian functions       ...  167
 # of contracted shells                  ...   55
 # of contracted basis functions         ...  109
 Highest angular momentum                ...    2
 Maximum contraction depth               ...    6
 Integral package used                   ... LIBINT
 Integral threshhold            Thresh   ...  2.500e-11
 Primitive cut-off              TCut     ...  2.500e-12


------------------------------ INTEGRAL EVALUATION ----------------------------


 * One electron integrals 
 Pre-screening matrix                    ... done
 Shell pair data                         ... done (   0.001 sec)



           ************************************************************
           *        Program running with 6 parallel MPI-processes     *
           *              working on a common directory               *
           ************************************************************
-------------------------------------------------------------------------------
                                 ORCA SCF
-------------------------------------------------------------------------------

------------
SCF SETTINGS
------------
Hamiltonian:
 Density Functional     Method          .... DFT(GTOs)
 Exchange Functional    Exchange        .... M062X
 Correlation Functional Correlation     .... M062X
 Gradients option       PostSCFGGA      .... off
 Hybrid DFT is turned on
   Fraction HF Exchange ScalHFX         ....  0.540000
   Scaling of DF-GGA-X  ScalDFX         ....  0.460000
   Scaling of DF-GGA-C  ScalDFC         ....  1.000000
   Scaling of DF-LDA-C  ScalLDAC        ....  1.000000
   Perturbative correction              ....  0.000000
   Density functional embedding theory  .... OFF


General Settings:
 Integral files         IntName         .... acetate
 Hartree-Fock type      HFTyp           .... UHF
 Total Charge           Charge          ....   -1
 Multiplicity           Mult            ....    1
 Number of Electrons    NEL             ....   32
 Basis Dimension        Dim             ....  109
 Nuclear Repulsion      ENuc            ....    112.2485925113 Eh

Convergence Acceleration:
 DIIS                   CNVDIIS         .... on
   Start iteration      DIISMaxIt       ....    12
   Startup error        DIISStart       ....  0.200000
   # of expansion vecs  DIISMaxEq       ....     5
   Bias factor          DIISBfac        ....   1.050
   Max. coefficient     DIISMaxC        ....  10.000
 Newton-Raphson         CNVNR           .... off
 SOSCF                  CNVSOSCF        .... off
 Level Shifting         CNVShift        .... on
   Level shift para.    LevelShift      ....    0.2500
   Turn off err/grad.   ShiftErr        ....    0.0010
 Zerner damping         CNVZerner       .... off
 Static damping         CNVDamp         .... on
   Fraction old density DampFac         ....    0.7000
   Max. Damping (<1)    DampMax         ....    0.9800
   Min. Damping (>=0)   DampMin         ....    0.0000
   Turn off err/grad.   DampErr         ....    0.1000
 Fernandez-Rico         CNVRico         .... off

SCF Procedure:
 Maximum # iterations   MaxIter         ....   125
 SCF integral mode      SCFMode         .... Direct
   Integral package                     .... LIBINT
 Reset frequency        DirectResetFreq ....    20
 Integral Threshold     Thresh          ....  2.500e-11 Eh
 Primitive CutOff       TCut            ....  2.500e-12 Eh

Convergence Tolerance:
 Convergence Check Mode ConvCheckMode   .... Total+1el-Energy
 Convergence forced     ConvForced      .... 0
 Energy Change          TolE            ....  1.000e-08 Eh
 1-El. energy change                    ....  1.000e-05 Eh
 DIIS Error             TolErr          ....  5.000e-07


Diagonalization of the overlap matrix:
Smallest eigenvalue                        ... 1.911e-04
Time for diagonalization                   ...    0.033 sec
Threshold for overlap eigenvalues          ... 1.000e-08
Number of eigenvalues below threshold      ... 0
Time for construction of square roots      ...    0.004 sec
Total time needed                          ...    0.037 sec

-------------------
DFT GRID GENERATION
-------------------

General Integration Accuracy     IntAcc      ...  5.340
Radial Grid Type                 RadialGrid  ... Gauss-Chebyshev
Angular Grid (max. acc.)         AngularGrid ... Lebedev-590
Angular grid pruning method      GridPruning ... 3 (G Style)
Weight generation scheme         WeightScheme... Becke
Basis function cutoff            BFCut       ...    1.0000e-11
Integration weight cutoff        WCut        ...    1.0000e-14
Grids for H and He will be reduced by one unit

# of grid points (after initial pruning)     ...  99358 (   0.0 sec)
# of grid points (after weights+screening)   ...  95071 (   0.0 sec)
nearest neighbour list constructed           ...    0.0 sec
Grid point re-assignment to atoms done       ...    0.0 sec
Grid point division into batches done        ...    1.2 sec
Reduced shell lists constructed in    1.3 sec

Total number of grid points                  ...    95071
Total number of batches                      ...     1489
Average number of points per batch           ...       63
Average number of grid points per atom       ...    13582
Average number of shells per batch           ...    50.74 (92.25%)
Average number of basis functions per batch  ...   102.00 (93.58%)
Average number of large shells per batch     ...    45.02 (88.73%)
Average number of large basis fcns per batch ...    90.88 (89.09%)
Maximum spatial batch extension              ...   1.91,  3.19,  5.00 au
Average spatial batch extension              ...   0.13,  0.13,  0.14 au

Time for grid setup =    1.354 sec

------------------------------
INITIAL GUESS: MODEL POTENTIAL
------------------------------
Loading Hartree-Fock densities                     ... done
Calculating cut-offs                               ... done
Setting up the integral package                    ... done
Initializing the effective Hamiltonian             ... done
Starting the Coulomb interaction                   ... done (   0.0 sec)
Reading the grid                                   ... done
Mapping shells                                     ... done
Starting the XC term evaluation                    ... done (   0.1 sec)
  promolecular density results
     # of electrons  =     30.998534078
     EX              =    -27.350260753
     EC              =     -1.018988807
     EX+EC           =    -28.369249559
Transforming the Hamiltonian                       ... done (   0.0 sec)
Diagonalizing the Hamiltonian                      ... done (   0.0 sec)
Back transforming the eigenvectors                 ... done (   0.0 sec)
Now organizing SCF variables                       ... done
                      ------------------
                      INITIAL GUESS DONE (   1.6 sec)
                      ------------------
--------------
SCF ITERATIONS
--------------
ITER       Energy         Delta-E        Max-DP      RMS-DP      [F,P]     Damp
               ***  Starting incremental Fock matrix formation  ***
  0   -228.2358692622   0.000000000000 0.03585362  0.00138107  0.3612644 0.7000
  1   -228.3547022632  -0.118833001002 0.01850894  0.00102028  0.1733138 0.7000
                               ***Turning on DIIS***
  2   -228.4052557583  -0.050553495044 0.03173106  0.00193410  0.0635354 0.0000
  3   -228.4822205117  -0.076964753445 0.01621109  0.00072033  0.0918137 0.0000
  4   -228.4991588520  -0.016938340244 0.00711856  0.00026149  0.0151576 0.0000
  5   -228.4997876366  -0.000628784664 0.00474909  0.00014609  0.0037331 0.0000
  6   -228.4998420116  -0.000054374998 0.00676632  0.00018709  0.0008022 0.0000
  7   -228.4998516601  -0.000009648479 0.00090085  0.00002541  0.0001926 0.0000
  8   -228.4998519813  -0.000000321200 0.00006325  0.00000260  0.0001636 0.0000
  9   -228.4998519994  -0.000000018076 0.00003599  0.00000138  0.0000786 0.0000
 10   -228.4998520075  -0.000000008121 0.00002245  0.00000079  0.0000118 0.0000
 11   -228.4998520083  -0.000000000751 0.00000476  0.00000017  0.0000028 0.0000
                 **** Energy Check signals convergence ****

               *****************************************************
               *                     SUCCESS                       *
               *           SCF CONVERGED AFTER  12 CYCLES          *
               *****************************************************


----------------
TOTAL SCF ENERGY
----------------

Total Energy       :         -228.49985201 Eh           -6217.79708 eV

Components:
Nuclear Repulsion  :          112.24859251 Eh            3054.43949 eV
Electronic Energy  :         -340.74844452 Eh           -9272.23657 eV
One Electron Energy:         -541.70762306 Eh          -14740.61382 eV
Two Electron Energy:          200.95917855 Eh            5468.37726 eV

Virial components:
Potential Energy   :         -456.31559297 Eh          -12416.97855 eV
Kinetic Energy     :          227.81574096 Eh            6199.18147 eV
Virial Ratio       :            2.00300291


DFT components:
N(Alpha)           :       16.000000552831 electrons
N(Beta)            :       16.000000552831 electrons
N(Total)           :       32.000001105662 electrons
E(XC)              :      -14.136756109585 Eh       
DFET-embed. en.    :        0.000000000000 Eh       

---------------
SCF CONVERGENCE
---------------

  Last Energy change         ...   -3.0965e-10  Tolerance :   1.0000e-08
  Last MAX-Density change    ...    3.4188e-06  Tolerance :   1.0000e-07
  Last RMS-Density change    ...    1.4056e-07  Tolerance :   5.0000e-09
  Last DIIS Error            ...    8.6967e-07  Tolerance :   5.0000e-07

             **** THE GBW FILE WAS UPDATED (acetate.gbw) ****
             **** DENSITY FILE WAS UPDATED (acetate.scfp) ****
             **** ENERGY FILE WAS UPDATED (acetate.en.tmp) ****
----------------------
UHF SPIN CONTAMINATION
----------------------

Warning: in a DFT calculation there is little theoretical justification to 
         calculate <S**2> as in Hartree-Fock theory. We will do it anyways
         but you should keep in mind that the values have only limited relevance

Expectation value of <S**2>     :    -0.000000
Ideal value S*(S+1) for S=0.0   :     0.000000
Deviation                       :    -0.000000

             **** THE GBW FILE WAS UPDATED (acetate.gbw) ****
             **** DENSITY FILE WAS UPDATED (acetate.scfp) ****
----------------
ORBITAL ENERGIES
----------------
                 SPIN UP ORBITALS
  NO   OCC          E(Eh)            E(eV) 
   0   1.0000     -19.357144      -526.7347 
   1   1.0000     -19.354837      -526.6719 
   2   1.0000     -10.424998      -283.6786 
   3   1.0000     -10.348315      -281.5920 
   4   1.0000      -0.948026       -25.7971 
   5   1.0000      -0.855005       -23.2659 
   6   1.0000      -0.622191       -16.9307 
   7   1.0000      -0.384730       -10.4690 
   8   1.0000      -0.317478        -8.6390 
   9   1.0000      -0.309224        -8.4144 
  10   1.0000      -0.308756        -8.4017 
  11   1.0000      -0.262504        -7.1431 
  12   1.0000      -0.237392        -6.4598 
  13   1.0000      -0.113944        -3.1006 
  14   1.0000      -0.107742        -2.9318 
  15   1.0000      -0.103560        -2.8180 
  16   0.0000       0.118631         3.2281 
  17   0.0000       0.147384         4.0105 
  18   0.0000       0.149552         4.0695 
  19   0.0000       0.197299         5.3688 
  20   0.0000       0.222180         6.0458 
  21   0.0000       0.224448         6.1075 
  22   0.0000       0.227963         6.2032 
  23   0.0000       0.247129         6.7247 
  24   0.0000       0.249396         6.7864 
  25   0.0000       0.271920         7.3993 
  26   0.0000       0.285442         7.7673 
  27   0.0000       0.301981         8.2173 
  28   0.0000       0.367022         9.9872 
  29   0.0000       0.381540        10.3822 
  30   0.0000       0.401674        10.9301 
  31   0.0000       0.427083        11.6215 
  32   0.0000       0.433032        11.7834 
  33   0.0000       0.436710        11.8835 
  34   0.0000       0.461233        12.5508 
  35   0.0000       0.483442        13.1551 
  36   0.0000       0.483840        13.1660 
  37   0.0000       0.497516        13.5381 
  38   0.0000       0.530294        14.4300 
  39   0.0000       0.546318        14.8661 
  40   0.0000       0.641315        17.4511 
  41   0.0000       0.659230        17.9385 
  42   0.0000       0.701832        19.0978 
  43   0.0000       0.747900        20.3514 
  44   0.0000       0.765204        20.8223 
  45   0.0000       0.810765        22.0620 
  46   0.0000       0.863534        23.4980 
  47   0.0000       0.896053        24.3828 
  48   0.0000       0.920839        25.0573 
  49   0.0000       0.932373        25.3711 
  50   0.0000       0.995923        27.1004 
  51   0.0000       1.073587        29.2138 
  52   0.0000       1.100556        29.9476 
  53   0.0000       1.250325        34.0231 
  54   0.0000       1.354317        36.8528 
  55   0.0000       1.364564        37.1317 
  56   0.0000       1.420353        38.6498 
  57   0.0000       1.434962        39.0473 
  58   0.0000       1.447604        39.3913 
  59   0.0000       1.480152        40.2770 
  60   0.0000       1.504513        40.9399 
  61   0.0000       1.623975        44.1906 
  62   0.0000       1.676863        45.6297 
  63   0.0000       1.690068        45.9891 
  64   0.0000       1.745127        47.4873 
  65   0.0000       1.787776        48.6479 
  66   0.0000       1.791881        48.7596 
  67   0.0000       1.818291        49.4782 
  68   0.0000       1.851667        50.3864 
  69   0.0000       1.975211        53.7482 
  70   0.0000       2.050082        55.7856 
  71   0.0000       2.093003        56.9535 
  72   0.0000       2.157305        58.7032 
  73   0.0000       2.229611        60.6708 
  74   0.0000       2.342815        63.7512 
  75   0.0000       2.424553        65.9754 
  76   0.0000       2.518231        68.5245 
  77   0.0000       2.658235        72.3342 
  78   0.0000       2.708906        73.7131 
  79   0.0000       2.741319        74.5951 
  80   0.0000       2.758662        75.0670 
  81   0.0000       2.798045        76.1387 
  82   0.0000       2.959448        80.5307 
  83   0.0000       3.043248        82.8110 
  84   0.0000       3.149616        85.7054 
  85   0.0000       3.168178        86.2105 
  86   0.0000       3.189822        86.7995 
  87   0.0000       3.229857        87.8889 
  88   0.0000       3.313968        90.1776 
  89   0.0000       3.563314        96.9627 
  90   0.0000       3.591713        97.7355 
  91   0.0000       3.635614        98.9301 
  92   0.0000       3.691874       100.4610 
  93   0.0000       3.842388       104.5567 
  94   0.0000       3.974157       108.1423 
  95   0.0000       4.000421       108.8570 
  96   0.0000       4.051974       110.2598 
  97   0.0000       4.326123       117.7198 
  98   0.0000       4.420178       120.2792 
  99   0.0000       5.373970       146.2332 
 100   0.0000       5.412167       147.2725 
 101   0.0000       5.459953       148.5729 
 102   0.0000       5.534314       150.5963 
 103   0.0000       5.904150       160.6601 
 104   0.0000       6.188517       168.3981 
 105   0.0000      24.126340       656.5111 
 106   0.0000      24.241612       659.6478 
 107   0.0000      50.274171      1368.0297 
 108   0.0000      50.360860      1370.3887 

                 SPIN DOWN ORBITALS
  NO   OCC          E(Eh)            E(eV) 
   0   1.0000     -19.357144      -526.7347 
   1   1.0000     -19.354837      -526.6719 
   2   1.0000     -10.424998      -283.6786 
   3   1.0000     -10.348315      -281.5920 
   4   1.0000      -0.948026       -25.7971 
   5   1.0000      -0.855005       -23.2659 
   6   1.0000      -0.622191       -16.9307 
   7   1.0000      -0.384730       -10.4690 
   8   1.0000      -0.317478        -8.6390 
   9   1.0000      -0.309224        -8.4144 
  10   1.0000      -0.308756        -8.4017 
  11   1.0000      -0.262504        -7.1431 
  12   1.0000      -0.237392        -6.4598 
  13   1.0000      -0.113944        -3.1006 
  14   1.0000      -0.107742        -2.9318 
  15   1.0000      -0.103560        -2.8180 
  16   0.0000       0.118631         3.2281 
  17   0.0000       0.147384         4.0105 
  18   0.0000       0.149552         4.0695 
  19   0.0000       0.197299         5.3688 
  20   0.0000       0.222180         6.0458 
  21   0.0000       0.224448         6.1075 
  22   0.0000       0.227963         6.2032 
  23   0.0000       0.247129         6.7247 
  24   0.0000       0.249396         6.7864 
  25   0.0000       0.271920         7.3993 
  26   0.0000       0.285442         7.7673 
  27   0.0000       0.301981         8.2173 
  28   0.0000       0.367022         9.9872 
  29   0.0000       0.381540        10.3822 
  30   0.0000       0.401674        10.9301 
  31   0.0000       0.427083        11.6215 
  32   0.0000       0.433032        11.7834 
  33   0.0000       0.436710        11.8835 
  34   0.0000       0.461233        12.5508 
  35   0.0000       0.483442        13.1551 
  36   0.0000       0.483840        13.1660 
  37   0.0000       0.497516        13.5381 
  38   0.0000       0.530294        14.4300 
  39   0.0000       0.546318        14.8661 
  40   0.0000       0.641315        17.4511 
  41   0.0000       0.659230        17.9385 
  42   0.0000       0.701832        19.0978 
  43   0.0000       0.747900        20.3514 
  44   0.0000       0.765204        20.8223 
  45   0.0000       0.810765        22.0620 
  46   0.0000       0.863534        23.4980 
  47   0.0000       0.896053        24.3828 
  48   0.0000       0.920839        25.0573 
  49   0.0000       0.932373        25.3711 
  50   0.0000       0.995923        27.1004 
  51   0.0000       1.073587        29.2138 
  52   0.0000       1.100556        29.9476 
  53   0.0000       1.250325        34.0231 
  54   0.0000       1.354317        36.8528 
  55   0.0000       1.364564        37.1317 
  56   0.0000       1.420353        38.6498 
  57   0.0000       1.434962        39.0473 
  58   0.0000       1.447604        39.3913 
  59   0.0000       1.480152        40.2770 
  60   0.0000       1.504513        40.9399 
  61   0.0000       1.623975        44.1906 
  62   0.0000       1.676863        45.6297 
  63   0.0000       1.690068        45.9891 
  64   0.0000       1.745127        47.4873 
  65   0.0000       1.787776        48.6479 
  66   0.0000       1.791881        48.7596 
  67   0.0000       1.818291        49.4782 
  68   0.0000       1.851667        50.3864 
  69   0.0000       1.975211        53.7482 
  70   0.0000       2.050082        55.7856 
  71   0.0000       2.093003        56.9535 
  72   0.0000       2.157305        58.7032 
  73   0.0000       2.229611        60.6708 
  74   0.0000       2.342815        63.7512 
  75   0.0000       2.424553        65.9754 
  76   0.0000       2.518231        68.5245 
  77   0.0000       2.658235        72.3342 
  78   0.0000       2.708906        73.7131 
  79   0.0000       2.741319        74.5951 
  80   0.0000       2.758662        75.0670 
  81   0.0000       2.798045        76.1387 
  82   0.0000       2.959448        80.5307 
  83   0.0000       3.043248        82.8110 
  84   0.0000       3.149616        85.7054 
  85   0.0000       3.168178        86.2105 
  86   0.0000       3.189822        86.7995 
  87   0.0000       3.229857        87.8889 
  88   0.0000       3.313968        90.1776 
  89   0.0000       3.563314        96.9627 
  90   0.0000       3.591713        97.7355 
  91   0.0000       3.635614        98.9301 
  92   0.0000       3.691874       100.4610 
  93   0.0000       3.842388       104.5567 
  94   0.0000       3.974157       108.1423 
  95   0.0000       4.000421       108.8570 
  96   0.0000       4.051974       110.2598 
  97   0.0000       4.326123       117.7198 
  98   0.0000       4.420178       120.2792 
  99   0.0000       5.373970       146.2332 
 100   0.0000       5.412167       147.2725 
 101   0.0000       5.459953       148.5729 
 102   0.0000       5.534314       150.5963 
 103   0.0000       5.904150       160.6601 
 104   0.0000       6.188517       168.3981 
 105   0.0000      24.126340       656.5111 
 106   0.0000      24.241612       659.6478 
 107   0.0000      50.274171      1368.0297 
 108   0.0000      50.360860      1370.3887 
------------------
MOLECULAR ORBITALS
------------------
                      0         1         2         3         4         5   
                 -19.35714 -19.35484 -10.42500 -10.34831  -0.94803  -0.85500
                   1.00000   1.00000   1.00000   1.00000   1.00000   1.00000
                  --------  --------  --------  --------  --------  --------
  0C   1s         0.000002 -0.000000 -0.001138 -0.564134  0.012084 -0.000732
  0C   2s        -0.000018 -0.000009 -0.000855 -0.463695  0.019271 -0.001141
  0C   1pz       -0.000000  0.000000  0.000000  0.000000 -0.000001  0.000001
  0C   1px        0.000045  0.000002  0.000155 -0.000210  0.005328  0.005896
  0C   1py       -0.000038 -0.000062 -0.000256  0.000222 -0.010765  0.003604
  0C   3s         0.000039  0.000058 -0.000416 -0.013026 -0.049786  0.002980
  0C   2pz        0.000000 -0.000000 -0.000000 -0.000001  0.000002 -0.000002
  0C   2px       -0.000198 -0.000070 -0.000253 -0.000676  0.010210  0.008542
  0C   2py        0.000212  0.000343  0.000250  0.001192 -0.020788  0.005448
  0C   4s        -0.000100 -0.000741 -0.001806  0.005700 -0.004161 -0.000838
  0C   3pz        0.000001  0.000004  0.000000 -0.000001 -0.000056  0.000004
  0C   3px       -0.000647  0.000661  0.000471 -0.000224 -0.001778  0.010384
  0C   3py       -0.000470  0.000191 -0.000339  0.000957  0.002848  0.005680
  0C   5s        -0.000682 -0.001802  0.001187  0.011606  0.010381 -0.008140
  0C   4pz       -0.000000 -0.000000  0.000005  0.000001  0.000003 -0.000010
  0C   4px        0.001217  0.000352  0.000606  0.000217 -0.013218 -0.005635
  0C   4py        0.000015 -0.000692  0.000200  0.000493  0.001709 -0.005075
  0C   1dz2      -0.000022 -0.000030 -0.000239 -0.000286  0.001995  0.000011
  0C   1dxz       0.000001 -0.000000  0.000000  0.000000 -0.000005 -0.000004
  0C   1dyz       0.000000 -0.000000 -0.000001 -0.000001  0.000001 -0.000002
  0C   1dx2y2     0.000012 -0.000175 -0.000200 -0.000316  0.002739 -0.002927
  0C   1dxy      -0.000174 -0.000090 -0.000199 -0.000503  0.004044  0.001728
  1C   1s         0.000011  0.000010 -0.564188  0.001168  0.075982 -0.000851
  1C   2s        -0.000019 -0.000014 -0.463861  0.001025  0.119396 -0.001370
  1C   1pz       -0.000000 -0.000000  0.000004 -0.000000 -0.000239  0.000014
  1C   1px        0.000258 -0.000148 -0.000133 -0.000167  0.019922  0.114156
  1C   1py       -0.000002 -0.000201  0.000282  0.000330 -0.037347  0.055899
  1C   3s        -0.000253 -0.000296 -0.011919 -0.000430 -0.312737  0.003434
  1C   2pz       -0.000000 -0.000000 -0.000011 -0.000000 -0.000302  0.000018
  1C   2px       -0.000436  0.000233  0.000605  0.000227  0.025790  0.148439
  1C   2py       -0.000003  0.000325 -0.001236 -0.000469 -0.048781  0.072728
  1C   4s        -0.001064 -0.000649  0.006828  0.000780 -0.094946  0.004055
  1C   3pz       -0.000003 -0.000004  0.000005  0.000002  0.000027  0.000005
  1C   3px        0.003022 -0.002066  0.000172 -0.001147 -0.008496 -0.002723
  1C   3py        0.000645 -0.001952 -0.000945  0.001226  0.012540 -0.001686
  1C   5s         0.003249  0.004299  0.003132 -0.003084 -0.056209  0.009710
  1C   4pz        0.000005  0.000005  0.000000 -0.000001 -0.000085  0.000005
  1C   4px       -0.000658  0.001215  0.000205 -0.000175 -0.002526  0.022214
  1C   4py       -0.000932 -0.000403 -0.000809  0.000929  0.008144  0.007205
  1C   1dz2      -0.000070 -0.000073  0.001008 -0.000086  0.016781 -0.000306
  1C   1dxz      -0.000001  0.000001  0.000001  0.000000  0.000015  0.000107
  1C   1dyz      -0.000000  0.000001 -0.000003 -0.000001 -0.000039  0.000055
  1C   1dx2y2     0.000427 -0.000057 -0.000711 -0.000212 -0.012545 -0.017667
  1C   1dxy       0.000044  0.000423 -0.000894 -0.000338 -0.015511  0.013998
  2H   1s        -0.000011 -0.000034  0.000019 -0.000374 -0.005108  0.002103
  2H   2s         0.000186  0.000233  0.000557  0.002750 -0.008257  0.001864
  2H   3s        -0.000272 -0.000239 -0.000624 -0.003689  0.006371 -0.000060
  2H   4s        -0.000690 -0.000473 -0.000731 -0.001361  0.010191 -0.000510
  2H   1pz       -0.000063 -0.000053 -0.000149 -0.001332  0.001478 -0.000330
  2H   1px        0.000045 -0.000079 -0.000110 -0.000933  0.000932 -0.000536
  2H   1py       -0.000001  0.000037 -0.000002  0.000028 -0.000633  0.000496
  3H   1s        -0.000011 -0.000035  0.000019 -0.000374 -0.005096  0.002098
  3H   2s         0.000188  0.000235  0.000557  0.002749 -0.008284  0.001855
  3H   3s        -0.000275 -0.000237 -0.000624 -0.003689  0.006376 -0.000046
  3H   4s        -0.000686 -0.000474 -0.000723 -0.001358  0.010145 -0.000558
  3H   1pz        0.000063  0.000053  0.000150  0.001331 -0.001477  0.000328
  3H   1px        0.000045 -0.000079 -0.000110 -0.000934  0.000935 -0.000536
  3H   1py       -0.000001  0.000037 -0.000002  0.000031 -0.000631  0.000494
  4H   1s         0.000045 -0.000001 -0.000009 -0.000382 -0.005328 -0.003035
  4H   2s        -0.000121  0.000396  0.000473  0.002860 -0.007927 -0.000280
  4H   3s        -0.000160  0.000099  0.000137 -0.003223  0.000886  0.001441
  4H   4s         0.000576  0.000199  0.000013 -0.000701 -0.008974  0.000643
  4H   1pz       -0.000000 -0.000000 -0.000000 -0.000000  0.000004 -0.000001
  4H   1px        0.000003  0.000077  0.000064  0.001145 -0.000940  0.000140
  4H   1py        0.000069  0.000056  0.000106  0.001196 -0.002059 -0.000699
  5O   1s        -0.552886 -0.003056  0.000100 -0.000005  0.071105  0.080212
  5O   2s        -0.469487 -0.002616  0.000112 -0.000023  0.116616  0.131942
  5O   1pz        0.000004  0.000000  0.000001  0.000000  0.000082  0.000110
  5O   1px       -0.001227 -0.000032 -0.000500 -0.000032 -0.049707 -0.042439
  5O   1py       -0.000021 -0.000005  0.000015  0.000006 -0.002991  0.005864
  5O   3s        -0.008848  0.000097 -0.000492  0.000140 -0.330456 -0.374714
  5O   2pz       -0.000000 -0.000001 -0.000002 -0.000001  0.000124  0.000172
  5O   2px       -0.000125  0.000128  0.000929  0.000199 -0.075139 -0.065565
  5O   2py        0.000019  0.000016 -0.000074 -0.000050 -0.005354  0.009266
  5O   4s         0.005648 -0.000606  0.002523 -0.000239 -0.232963 -0.292391
  5O   3pz       -0.000002  0.000004 -0.000003  0.000001  0.000028  0.000089
  5O   3px        0.000851 -0.000172  0.001156 -0.000292 -0.026366 -0.026181
  5O   3py       -0.000099  0.000434  0.000087 -0.000119 -0.002931  0.008251
  5O   5s        -0.001565 -0.001168 -0.003779 -0.001917  0.024070  0.010732
  5O   4pz       -0.000002 -0.000001  0.000003  0.000001  0.000016 -0.000008
  5O   4px        0.000325 -0.000479 -0.001764 -0.000898  0.005073 -0.001747
  5O   4py        0.000121  0.000117  0.000520  0.000052 -0.002555 -0.001089
  5O   1dz2       0.000103 -0.000011 -0.000396 -0.000006  0.004946  0.005163
  5O   1dxz       0.000001  0.000000 -0.000003 -0.000000  0.000033  0.000057
  5O   1dyz      -0.000000 -0.000000  0.000000  0.000000  0.000009 -0.000002
  5O   1dx2y2    -0.000131  0.000034  0.000593  0.000054 -0.010495 -0.010788
  5O   1dxy      -0.000009  0.000109 -0.000056 -0.000029 -0.001973  0.002320
  6O   1s         0.003053 -0.552889  0.000099 -0.000004  0.069244 -0.081485
  6O   2s         0.002571 -0.469486  0.000115 -0.000017  0.113557 -0.134014
  6O   1pz        0.000000  0.000004  0.000001 -0.000000  0.000087 -0.000117
  6O   1px        0.000017  0.000767  0.000294  0.000032  0.032094 -0.021897
  6O   1py        0.000012  0.000963  0.000398  0.000025  0.036575 -0.037903
  6O   3s         0.000194 -0.008837 -0.000536  0.000072 -0.321762  0.380389
  6O   2pz       -0.000001 -0.000000 -0.000002 -0.000000  0.000132 -0.000182
  6O   2px       -0.000100  0.000043 -0.000507 -0.000154  0.049289 -0.033695
  6O   2py       -0.000095  0.000105 -0.000753 -0.000172  0.054799 -0.058567
  6O   4s        -0.000677  0.005567  0.002747  0.000223 -0.225718  0.296694
  6O   3pz        0.000004 -0.000002 -0.000004 -0.000001  0.000030 -0.000093
  6O   3px       -0.000228 -0.000391 -0.000787  0.000348  0.017726 -0.009455
  6O   3py        0.000400 -0.000706 -0.000989 -0.000015  0.018361 -0.026356
  6O   5s        -0.001321 -0.002040 -0.003472 -0.001402  0.028844 -0.014643
  6O   4pz       -0.000000 -0.000002  0.000003  0.000002  0.000004  0.000010
  6O   4px        0.000201 -0.000308  0.000535 -0.000158 -0.000702 -0.002140
  6O   4py        0.000501  0.000041  0.001730  0.000458 -0.007971  0.001340
  6O   1dz2      -0.000013  0.000098 -0.000395 -0.000008  0.004883 -0.005310
  6O   1dxz       0.000000 -0.000000  0.000002  0.000000 -0.000029  0.000035
  6O   1dyz      -0.000000 -0.000001  0.000003  0.000000 -0.000023  0.000049
  6O   1dx2y2     0.000095  0.000025 -0.000209 -0.000041  0.000619 -0.004960
  6O   1dxy       0.000065 -0.000127  0.000560  0.000060 -0.010360  0.009971
                      6         7         8         9        10        11   
                  -0.62219  -0.38473  -0.31748  -0.30922  -0.30876  -0.26250
                   1.00000   1.00000   1.00000   1.00000   1.00000   1.00000
                  --------  --------  --------  --------  --------  --------
  0C   1s        -0.101540 -0.015486  0.000002  0.002142  0.002007  0.000700
  0C   2s        -0.163186 -0.024982  0.000004  0.003512  0.003233  0.001166
  0C   1pz       -0.000008  0.000164 -0.156647 -0.000016 -0.000188 -0.000006
  0C   1px        0.004245  0.053113  0.000165  0.108213 -0.095530  0.104949
  0C   1py       -0.002954 -0.104649 -0.000184  0.100869  0.051115  0.056623
  0C   3s         0.419697  0.059814 -0.000015 -0.008314 -0.007301 -0.003067
  0C   2pz       -0.000021  0.000257 -0.234492 -0.000026 -0.000299 -0.000009
  0C   2px        0.002543  0.081729  0.000244  0.159088 -0.143536  0.155687
  0C   2py        0.001483 -0.159915 -0.000267  0.149425  0.078639  0.083683
  0C   4s         0.287822  0.086045 -0.000065 -0.017229 -0.000523 -0.007538
  0C   3pz       -0.000040  0.000160 -0.165708 -0.000003 -0.000222 -0.000007
  0C   3px        0.004110  0.046732  0.000127  0.112000 -0.097470  0.117289
  0C   3py       -0.011101 -0.089690 -0.000244  0.109129  0.065665  0.063617
  0C   5s         0.039472  0.029452  0.000843 -0.035841 -0.054010  0.016123
  0C   4pz        0.000051 -0.000117  0.019513  0.000058  0.000017 -0.000076
  0C   4px        0.000189 -0.001712 -0.000161  0.021684  0.011892 -0.006311
  0C   4py        0.005949  0.000755  0.000225  0.011140  0.005768  0.001781
  0C   1dz2      -0.000351  0.007228  0.000009  0.008576 -0.010076  0.010653
  0C   1dxz       0.000003 -0.000011 -0.016160  0.000007 -0.000000  0.000010
  0C   1dyz      -0.000011  0.000034 -0.003119  0.000003 -0.000035  0.000017
  0C   1dx2y2    -0.000976  0.008646  0.000016  0.002094 -0.006556  0.010529
  0C   1dxy      -0.000891  0.012143 -0.000014 -0.011848 -0.002049 -0.013753
  1C   1s        -0.018557  0.072776 -0.000053  0.008155  0.017145  0.001157
  1C   2s        -0.030372  0.119455 -0.000088  0.013437  0.028233  0.001944
  1C   1pz       -0.000041  0.000022 -0.108504 -0.000015 -0.000181 -0.000018
  1C   1px        0.030927 -0.024666 -0.000023  0.108088  0.031586 -0.120443
  1C   1py       -0.063438  0.051066  0.000168 -0.012783 -0.145295 -0.061123
  1C   3s         0.082473 -0.348595  0.000224 -0.045247 -0.094523 -0.006338
  1C   2pz       -0.000047  0.000029 -0.178693 -0.000017 -0.000284 -0.000027
  1C   2px        0.048259 -0.035531 -0.000044  0.165970  0.048733 -0.181621
  1C   2py       -0.098051  0.072811  0.000282 -0.019494 -0.224485 -0.091979
  1C   4s         0.078882 -0.288075  0.000320 -0.029014 -0.086222 -0.001158
  1C   3pz        0.000017  0.000058 -0.095608  0.000018 -0.000105 -0.000004
  1C   3px        0.013399 -0.026673  0.000148  0.077934  0.017070 -0.089860
  1C   3py       -0.020771  0.046954  0.000175 -0.009077 -0.100058 -0.046451
  1C   5s        -0.020145 -0.036835 -0.001145  0.024469  0.039311 -0.015212
  1C   4pz       -0.000029  0.000071 -0.024045  0.000019  0.000040  0.000011
  1C   4px        0.001684 -0.011462 -0.000178 -0.010716  0.016461  0.008800
  1C   4py       -0.000686  0.021862  0.000428 -0.023026 -0.027366  0.009780
  1C   1dz2      -0.002543  0.006565 -0.000108  0.001587  0.002782  0.000678
  1C   1dxz       0.000015 -0.000008 -0.001606  0.000048  0.000022 -0.000046
  1C   1dyz      -0.000032  0.000012 -0.000085 -0.000012 -0.000082 -0.000024
  1C   1dx2y2    -0.005890 -0.004776  0.000004  0.012726  0.002764  0.017897
  1C   1dxy      -0.008843 -0.005622  0.000006 -0.004323  0.012944 -0.013945
  2H   1s         0.084150  0.049307 -0.111186  0.046893 -0.055561  0.055090
  2H   2s         0.095254  0.060230 -0.149504  0.064572 -0.077596  0.079174
  2H   3s        -0.000792  0.023007 -0.072505  0.032158 -0.038518  0.045218
  2H   4s        -0.001425  0.003173 -0.033502  0.003988 -0.011045  0.012535
  2H   1pz       -0.011267 -0.004957  0.003386 -0.005273  0.005941 -0.005695
  2H   1px       -0.008300 -0.000996  0.008740  0.001927 -0.000642  0.002160
  2H   1py        0.000718 -0.004813 -0.000427  0.005627  0.002703  0.002891
  3H   1s         0.084164  0.049226  0.111310  0.046853 -0.055406  0.055079
  3H   2s         0.095249  0.060137  0.149704  0.064532 -0.077419  0.079167
  3H   3s        -0.000792  0.022984  0.072697  0.032182 -0.038466  0.045167
  3H   4s        -0.001336  0.003001  0.033629  0.004098 -0.010987  0.012375
  3H   1pz        0.011259  0.004959  0.003393  0.005264 -0.005941  0.005690
  3H   1px       -0.008307 -0.000993 -0.008738  0.001925 -0.000647  0.002158
  3H   1py        0.000740 -0.004807  0.000431  0.005639  0.002682  0.002899
  4H   1s         0.082412  0.053694 -0.000024 -0.129956  0.019527 -0.108372
  4H   2s         0.089084  0.067157 -0.000029 -0.174456  0.027076 -0.152192
  4H   3s        -0.000224  0.022838 -0.000063 -0.073568  0.028626 -0.088506
  4H   4s         0.003623  0.002985  0.000023 -0.002582  0.026243 -0.025916
  4H   1pz       -0.000004  0.000005 -0.008126  0.000007 -0.000010  0.000004
  4H   1px        0.009500  0.006950  0.000008 -0.007217 -0.003900 -0.003993
  4H   1py        0.009620  0.000166 -0.000009 -0.006651  0.004764 -0.005432
  5O   1s         0.017981 -0.039348 -0.000025 -0.031504 -0.012237  0.018990
  5O   2s         0.029812 -0.065624 -0.000040 -0.052297 -0.020201  0.031498
  5O   1pz        0.000008  0.000208 -0.079043  0.000325  0.000039 -0.000432
  5O   1px        0.002331 -0.097779 -0.000273 -0.130389 -0.060346  0.142415
  5O   1py       -0.016387  0.025252  0.000141 -0.000456 -0.111414 -0.012442
  5O   3s        -0.086930  0.193368  0.000105  0.152606  0.056357 -0.090399
  5O   2pz        0.000016  0.000289 -0.119201  0.000486  0.000062 -0.000636
  5O   2px        0.002354 -0.137005 -0.000419 -0.189399 -0.089155  0.204023
  5O   2py       -0.024612  0.037511  0.000211 -0.000825 -0.164335 -0.020016
  5O   4s        -0.080588  0.242951  0.000234  0.224602  0.095059 -0.171836
  5O   3pz        0.000007  0.000188 -0.094194  0.000311  0.000022 -0.000444
  5O   3px        0.001019 -0.085353 -0.000245 -0.120150 -0.050773  0.136663
  5O   3py       -0.013274  0.023943  0.000175  0.000686 -0.128272 -0.011931
  5O   5s        -0.014978  0.058945  0.000387  0.083670  0.027478 -0.052198
  5O   4pz        0.000007 -0.000012  0.002057  0.000015 -0.000028 -0.000063
  5O   4px       -0.008099  0.001622  0.000078 -0.003442 -0.015516  0.021065
  5O   4py        0.005132 -0.007314 -0.000064 -0.002558 -0.008403 -0.005917
  5O   1dz2       0.000139  0.003869  0.000050  0.007061  0.002679 -0.006296
  5O   1dxz       0.000006  0.000026 -0.011268  0.000064  0.000016 -0.000069
  5O   1dyz       0.000007 -0.000008  0.000324 -0.000000  0.000028  0.000010
  5O   1dx2y2    -0.000937 -0.006502 -0.000034 -0.010110 -0.005271  0.011316
  5O   1dxy      -0.003674  0.003724  0.000021 -0.000459 -0.012693 -0.003089
  6O   1s         0.019406 -0.039352 -0.000009  0.013057 -0.029985 -0.020614
  6O   2s         0.032159 -0.065607 -0.000015  0.021715 -0.049675 -0.034244
  6O   1pz        0.000010  0.000220 -0.081389 -0.000126  0.000238  0.000469
  6O   1px        0.011881  0.039301  0.000038  0.029745  0.141448  0.082595
  6O   1py       -0.012153  0.091492  0.000242 -0.083424  0.053437  0.123687
  6O   3s        -0.093531  0.192892  0.000046 -0.064532  0.142712  0.099135
  6O   2pz        0.000019  0.000306 -0.121982 -0.000188  0.000358  0.000686
  6O   2px        0.018387  0.053392  0.000062  0.045133  0.207744  0.116827
  6O   2py       -0.017226  0.129577  0.000365 -0.121683  0.077436  0.178137
  6O   4s        -0.089376  0.245490 -0.000019 -0.090934  0.221780  0.179099
  6O   3pz        0.000012  0.000196 -0.097912 -0.000109  0.000204  0.000485
  6O   3px        0.010857  0.032273  0.000023  0.040022  0.141476  0.079413
  6O   3py       -0.008320  0.079416  0.000318 -0.087350  0.034110  0.121284
  6O   5s        -0.017833  0.062828  0.000066 -0.044316  0.077766  0.056864
  6O   4pz        0.000018 -0.000024  0.002675 -0.000029 -0.000008  0.000064
  6O   4px       -0.001096  0.004764  0.000070  0.007075  0.012175  0.010139
  6O   4py        0.009139 -0.006318 -0.000039  0.007499  0.007599  0.019633
  6O   1dz2       0.000138  0.003811  0.000049 -0.002930  0.006505  0.006660
  6O   1dxz      -0.000011 -0.000010  0.006506 -0.000001 -0.000051 -0.000037
  6O   1dyz      -0.000001 -0.000027  0.009299  0.000032 -0.000029 -0.000065
  6O   1dx2y2    -0.003310  0.005159  0.000026 -0.008884 -0.006485  0.005734
  6O   1dxy      -0.001927 -0.005237 -0.000024  0.001150 -0.012486 -0.010571
                     12        13        14        15        16        17   
                  -0.23739  -0.11394  -0.10774  -0.10356   0.11863   0.14738
                   1.00000   1.00000   1.00000   1.00000   0.00000   0.00000
                  --------  --------  --------  --------  --------  --------
  0C   1s         0.000002 -0.000007 -0.001691  0.025837  0.014613 -0.000024
  0C   2s         0.000004 -0.000011 -0.002756  0.043165  0.025150 -0.000043
  0C   1pz       -0.118998 -0.006744  0.000019  0.000015  0.000017  0.034026
  0C   1px        0.000015 -0.000279 -0.034898  0.062522 -0.016952 -0.000219
  0C   1py       -0.000054 -0.000106 -0.009119 -0.112145  0.024660 -0.000124
  0C   3s        -0.000034  0.000032  0.006219 -0.126200 -0.097068  0.000175
  0C   2pz       -0.176435 -0.010670  0.000043  0.000017  0.000088  0.099978
  0C   2px        0.000031 -0.000473 -0.060360  0.093718 -0.014345 -0.000659
  0C   2py       -0.000109 -0.000195 -0.019015 -0.170297  0.027798 -0.000285
  0C   4s         0.000109  0.000056  0.032327 -0.233618 -0.062759  0.000196
  0C   3pz       -0.136847 -0.031626  0.000117  0.000222 -0.000083 -0.148234
  0C   3px       -0.000089  0.000085 -0.029999  0.130122 -0.038738  0.001449
  0C   3py       -0.000003  0.000138  0.000918 -0.178785  0.017768  0.000638
  0C   5s        -0.001054 -0.000620  0.066509 -0.172456 -8.606013  0.024133
  0C   4pz       -0.015313 -0.073593  0.000410  0.000122  0.000679  1.661524
  0C   4px        0.000066 -0.000004  0.003049  0.058155 -0.307912 -0.019090
  0C   4py       -0.000346 -0.000224  0.004056 -0.017895 -0.423078 -0.001425
  0C   1dz2      -0.000022 -0.000035 -0.004837 -0.002455  0.002993  0.000023
  0C   1dxz      -0.020994  0.001925 -0.000003 -0.000032  0.000016  0.000780
  0C   1dyz       0.010253  0.001783 -0.000014  0.000029  0.000001  0.001849
  0C   1dx2y2     0.000002 -0.000042 -0.003050  0.001993  0.000591  0.000001
  0C   1dxy      -0.000019  0.000051  0.005812  0.002927  0.000728 -0.000001
  1C   1s         0.000081 -0.000000 -0.000072  0.001016 -0.003558  0.000031
  1C   2s         0.000135 -0.000000 -0.000125  0.001868 -0.005916  0.000053
  1C   1pz        0.125328  0.001060 -0.000017  0.000222 -0.000074  0.015031
  1C   1px        0.000033 -0.000055 -0.012394 -0.028186  0.006552  0.000006
  1C   1py       -0.000098 -0.000048 -0.010456  0.056155 -0.012668  0.000029
  1C   3s        -0.000353 -0.000005  0.000185 -0.000057  0.014203 -0.000215
  1C   2pz        0.202284  0.000918 -0.000025  0.000328 -0.000046  0.035051
  1C   2px        0.000065 -0.000127 -0.024111 -0.044664 -0.003933  0.000037
  1C   2py       -0.000174 -0.000102 -0.019430  0.086845  0.001470 -0.000064
  1C   4s        -0.000354  0.000130  0.000105 -0.071263 -0.024327  0.000227
  1C   3pz        0.151547  0.010430 -0.000050  0.000182 -0.000554  0.007202
  1C   3px        0.000053 -0.000601  0.062525 -0.005073  0.032995 -0.001524
  1C   3py        0.000133 -0.000190  0.036023 -0.027117 -0.171635 -0.000009
  1C   5s         0.001437  0.000592  0.002433 -0.022370  1.593085 -0.022647
  1C   4pz        0.052333  0.019775 -0.000090 -0.000063 -0.000103 -0.076863
  1C   4px        0.000217 -0.000322  0.058499  0.021955  0.100006 -0.004463
  1C   4py       -0.000314 -0.000248  0.027303 -0.077321 -0.381853  0.007117
  1C   1dz2       0.000141  0.000008 -0.000008 -0.007448  0.003605  0.000003
  1C   1dxz      -0.012803  0.062152 -0.000451  0.000017 -0.000014  0.004994
  1C   1dyz       0.021084  0.030878 -0.000225 -0.000053 -0.000005 -0.003858
  1C   1dx2y2    -0.000052  0.000378  0.043121  0.048533 -0.002241 -0.000001
  1C   1dxy      -0.000059 -0.000324 -0.038985  0.056838 -0.005777  0.000061
  2H   1s        -0.095653 -0.002763 -0.021451  0.018167 -0.004399  0.015783
  2H   2s        -0.140498  0.001036 -0.037266  0.029287 -0.047909 -0.030548
  2H   3s        -0.087606  0.036761 -0.051448  0.015411  0.598819  0.402077
  2H   4s        -0.025235  0.064085 -0.024831  0.017651  2.496944 -4.306007
  2H   1pz        0.002212 -0.000166  0.002558 -0.002326  0.009832 -0.003357
  2H   1px        0.006702 -0.000704 -0.001679  0.002931  0.005610 -0.005323
  2H   1py        0.001167  0.002282  0.001387 -0.006516  0.000567  0.001209
  3H   1s         0.095630  0.002410 -0.021472  0.018377 -0.004484 -0.015880
  3H   2s         0.140438 -0.001700 -0.037252  0.029707 -0.047902  0.030508
  3H   3s         0.087745 -0.037319 -0.051080  0.015877  0.597882 -0.404683
  3H   4s         0.025234 -0.063728 -0.024077  0.017845  2.501780  4.348503
  3H   1pz        0.002198 -0.000218 -0.002550  0.002342 -0.009829 -0.003428
  3H   1px       -0.006700  0.000652 -0.001694  0.002917  0.005617  0.005295
  3H   1py       -0.001154 -0.002259  0.001406 -0.006537  0.000562 -0.001252
  4H   1s        -0.000016  0.000318  0.037054  0.021992 -0.005873  0.000144
  4H   2s        -0.000068  0.000618  0.058083  0.048885 -0.033079  0.000010
  4H   3s        -0.000052  0.000705  0.060619  0.065555  0.386031  0.002537
  4H   4s        -0.000126 -0.000306  0.008412  0.071616  1.539589 -0.046336
  4H   1pz       -0.006704 -0.000861  0.000005 -0.000009  0.000004  0.003406
  4H   1px       -0.000003  0.000039  0.003654  0.003963 -0.006638  0.000035
  4H   1py       -0.000014 -0.000012 -0.002025 -0.003234 -0.007298  0.000082
  5O   1s        -0.000004  0.000003 -0.002118 -0.003025  0.003584 -0.000017
  5O   2s        -0.000008  0.000005 -0.003286 -0.004873  0.005974 -0.000032
  5O   1pz        0.134224 -0.202304  0.001406 -0.000267  0.000086 -0.006954
  5O   1px        0.000354 -0.000324  0.042624  0.079746 -0.005152 -0.000075
  5O   1py        0.000014  0.001558  0.216000 -0.152892  0.012920 -0.000054
  5O   3s         0.000047 -0.000000  0.007594  0.013311 -0.016374  0.000145
  5O   2pz        0.200980 -0.297813  0.002098 -0.000362  0.000125 -0.012611
  5O   2px        0.000554 -0.000482  0.054329  0.108105 -0.005404 -0.000115
  5O   2py        0.000013  0.002286  0.319159 -0.222625  0.016740 -0.000111
  5O   4s        -0.000050 -0.000313  0.026307  0.014182 -0.048335 -0.000454
  5O   3pz        0.170304 -0.296350  0.002053 -0.000360  0.000170 -0.002899
  5O   3px        0.000354 -0.000674  0.059819  0.109032 -0.028110 -0.000268
  5O   3py       -0.000037  0.002266  0.306669 -0.220180  0.035149  0.000113
  5O   5s        -0.000314 -0.000756  0.052903  0.067491  0.209016 -0.001610
  5O   4pz        0.005274 -0.099816  0.000622 -0.000158  0.000214 -0.063372
  5O   4px        0.000036 -0.000225  0.012751  0.036735  0.211745 -0.001184
  5O   4py        0.000040  0.000716  0.093184 -0.055459 -0.031953 -0.000885
  5O   1dz2      -0.000066  0.000053 -0.000023 -0.001527  0.000757 -0.000000
  5O   1dxz       0.015556 -0.011985  0.000085 -0.000007  0.000006  0.000837
  5O   1dyz       0.000222  0.000958 -0.000040  0.000013 -0.000000 -0.000146
  5O   1dx2y2     0.000043 -0.000021  0.001544  0.003805 -0.001292 -0.000003
  5O   1dxy      -0.000012  0.000086  0.011722 -0.004863  0.000331 -0.000004
  6O   1s        -0.000009 -0.000002  0.002440 -0.002426  0.003564 -0.000004
  6O   2s        -0.000017 -0.000003  0.003829 -0.003837  0.005977 -0.000009
  6O   1pz        0.127110  0.207835 -0.001374 -0.000317  0.000077  0.001628
  6O   1px       -0.000256  0.000951  0.187993  0.092458 -0.006564 -0.000046
  6O   1py       -0.000239 -0.001159 -0.080859 -0.167294  0.010456 -0.000050
  6O   3s         0.000084 -0.000000 -0.009657  0.008924 -0.017993  0.000063
  6O   2pz        0.190914  0.306070 -0.002055 -0.000432  0.000112  0.009977
  6O   2px       -0.000393  0.001380  0.271773  0.139302 -0.006422 -0.000026
  6O   2py       -0.000389 -0.001711 -0.127186 -0.237942  0.013715 -0.000074
  6O   4s        -0.000124  0.000238 -0.024126  0.027100 -0.026870 -0.000156
  6O   3pz        0.159697  0.302397 -0.002002 -0.000466  0.000124 -0.031448
  6O   3px       -0.000210  0.001324  0.267569  0.134110 -0.032382 -0.000240
  6O   3py       -0.000209 -0.001823 -0.117558 -0.243949  0.018933 -0.000127
  6O   5s        -0.000457  0.000487 -0.077286  0.080556  0.428365  0.004539
  6O   4pz        0.005473  0.097122 -0.000571 -0.000202 -0.000221  0.132080
  6O   4px       -0.000022  0.000436  0.076151  0.025995  0.014057  0.000620
  6O   4py        0.000008 -0.000587 -0.030009 -0.062828 -0.220872 -0.001576
  6O   1dz2      -0.000067 -0.000058  0.000055 -0.001657  0.000442 -0.000003
  6O   1dxz      -0.009598 -0.006907  0.000020 -0.000007 -0.000001 -0.001107
  6O   1dyz      -0.011595 -0.010370  0.000092  0.000021 -0.000003 -0.000859
  6O   1dx2y2    -0.000018 -0.000087 -0.010425 -0.007012  0.000322  0.000001
  6O   1dxy       0.000041 -0.000001 -0.004817  0.002037 -0.000295  0.000005
                     18        19        20        21        22        23   
                   0.14955   0.19730   0.22218   0.22445   0.22796   0.24713
                   0.00000   0.00000   0.00000   0.00000   0.00000   0.00000
                  --------  --------  --------  --------  --------  --------
  0C   1s        -0.000410 -0.004138  0.001675  0.007643 -0.000019 -0.006349
  0C   2s        -0.000892 -0.006446  0.003006  0.014100 -0.000035 -0.010615
  0C   1pz       -0.000262 -0.000006  0.000010 -0.000005 -0.006899 -0.000212
  0C   1px       -0.026834 -0.012400  0.006818  0.002438 -0.000019 -0.018975
  0C   1py       -0.018897  0.020171  0.004681  0.000291  0.000033 -0.005731
  0C   3s         0.006642  0.011771 -0.017520 -0.059116  0.000180  0.025106
  0C   2pz       -0.000785  0.000048  0.000062  0.000016 -0.019624 -0.000534
  0C   2px       -0.078967 -0.019224  0.007234  0.024595 -0.000069 -0.059607
  0C   2py       -0.047990  0.021670  0.006110 -0.025229  0.000167 -0.039362
  0C   4s        -0.008204  0.090332  0.089041  0.186304 -0.000920  0.094248
  0C   3pz        0.001173  0.000153 -0.000288 -0.000734 -0.042954 -0.001130
  0C   3px        0.169460 -0.095181 -0.104866 -0.130939  0.000344 -0.095456
  0C   3py        0.092515  0.130403 -0.061249  0.193021 -0.000665 -0.071576
  0C   5s         1.733065 -7.091494  2.111933  3.911734  0.012257  0.377133
  0C   4pz       -0.013291  0.003762 -0.002013  0.000987  1.657486  0.056431
  0C   4px       -2.151071  2.058277 -1.582343  0.866429 -0.007371  4.610831
  0C   4py       -0.602785 -3.413327 -0.500103 -2.391771  0.007502  3.586124
  0C   1dz2       0.002124 -0.013977  0.000099 -0.009615  0.000032 -0.031983
  0C   1dxz      -0.000011  0.000010 -0.000009  0.000021 -0.003243 -0.000634
  0C   1dyz      -0.000011 -0.000012 -0.000001 -0.000035 -0.004162  0.000024
  0C   1dx2y2    -0.000687 -0.011594  0.003261 -0.009139 -0.000003  0.001192
  0C   1dxy      -0.000746 -0.013754 -0.001634 -0.013777 -0.000018  0.025895
  1C   1s         0.000823 -0.003815 -0.000428 -0.008324  0.000061 -0.002044
  1C   2s         0.001267 -0.009302 -0.000767 -0.012804  0.000087 -0.002600
  1C   1pz       -0.000132  0.000025 -0.000001  0.000070  0.026575  0.000485
  1C   1px        0.002810  0.016294  0.021415  0.008659  0.000029  0.002461
  1C   1py        0.003315 -0.030235  0.009981 -0.021031 -0.000050  0.004902
  1C   3s        -0.005063  0.096526  0.003518  0.013757  0.000051 -0.013460
  1C   2pz       -0.000271  0.000109  0.000003  0.000040  0.027851  0.001085
  1C   2px        0.006552  0.006706  0.006628  0.027795 -0.000043 -0.029519
  1C   2py       -0.002629 -0.018482 -0.002041 -0.051643  0.000110  0.001004
  1C   4s        -0.027953 -0.984847 -0.019252  0.468809 -0.006587  0.312178
  1C   3pz       -0.000252 -0.001182  0.000069  0.000846  0.105377  0.000889
  1C   3px       -0.152983  0.219105  0.802219 -0.188462  0.001211  0.519980
  1C   3py       -0.037445 -0.258019  0.434674  0.283544 -0.002992  0.246000
  1C   5s        -2.081681  7.226756 -1.243952  3.147915 -0.041143 -2.202028
  1C   4pz       -0.000490  0.007530  0.000638 -0.008021 -3.183221 -0.013966
  1C   4px       -0.340297  1.581389  3.664118 -1.063539  0.004574 -1.429251
  1C   4py        0.690421 -3.074806  2.466011  1.950463 -0.004871  0.330819
  1C   1dz2      -0.000157  0.003040  0.000678  0.001954  0.000147 -0.012091
  1C   1dxz      -0.000053  0.000028  0.000096 -0.000005 -0.003084  0.000140
  1C   1dyz       0.000017 -0.000034  0.000038  0.000011  0.006682 -0.000112
  1C   1dx2y2    -0.002018 -0.006789 -0.003157  0.011387 -0.000085 -0.008437
  1C   1dxy       0.007948 -0.006461  0.004517  0.014138 -0.000123  0.006043
  2H   1s        -0.007423 -0.014453 -0.000087 -0.011065 -0.003282 -0.020387
  2H   2s        -0.000037  0.027392 -0.009226  0.014912  0.047222  0.067574
  2H   3s        -0.139518 -0.142934 -0.031649 -0.206056 -0.226872 -0.602012
  2H   4s         2.840603 -0.651912 -0.472155 -1.267132  0.323830 -2.438777
  2H   1pz        0.005126 -0.007120  0.000785 -0.002971 -0.000487 -0.014226
  2H   1px       -0.001044  0.001556  0.002230  0.003322 -0.000293  0.008266
  2H   1py       -0.003071 -0.006858  0.001248 -0.009739 -0.003395  0.007682
  3H   1s        -0.007167 -0.014436 -0.000068 -0.011089  0.003301 -0.019040
  3H   2s        -0.000599  0.027748 -0.009050  0.014589 -0.047024  0.065247
  3H   3s        -0.132637 -0.143149 -0.033527 -0.206771  0.227168 -0.572562
  3H   4s         2.771863 -0.642071 -0.474543 -1.277313 -0.316777 -2.335660
  3H   1pz       -0.005068  0.007132 -0.000794  0.002991 -0.000497  0.014058
  3H   1px       -0.001123  0.001550  0.002260  0.003325  0.000250  0.008678
  3H   1py       -0.003055 -0.006863  0.001251 -0.009721  0.003422  0.007717
  4H   1s         0.017712 -0.007477  0.000816 -0.013457 -0.000030  0.048459
  4H   2s        -0.003590 -0.001378  0.023311  0.033731  0.000204 -0.197625
  4H   3s         0.376393  0.004141 -0.409457 -0.452663 -0.001025  1.610108
  4H   4s        -5.631938 -0.477024  0.436322 -1.912298  0.000438  6.370050
  4H   1pz       -0.000032 -0.000003  0.000025  0.000018  0.002827  0.000227
  4H   1px        0.004454  0.007177 -0.000705  0.008071  0.000004 -0.011947
  4H   1py        0.008465 -0.004786 -0.005777 -0.008788  0.000033 -0.011733
  5O   1s        -0.001885 -0.009313 -0.009239  0.006362 -0.000066  0.000205
  5O   2s        -0.003538 -0.016451 -0.016555  0.011488 -0.000120  0.000295
  5O   1pz        0.000054 -0.000162 -0.000126  0.000194  0.025899 -0.000684
  5O   1px       -0.008565 -0.016191 -0.015795  0.004033 -0.000063  0.001869
  5O   1py       -0.007915  0.015271 -0.014625 -0.017193  0.000116 -0.006861
  5O   3s         0.018621  0.064420  0.070638 -0.049151  0.000533  0.000663
  5O   2pz        0.000082 -0.000332 -0.000185  0.000411  0.065210 -0.000949
  5O   2px       -0.014709 -0.028815 -0.047590  0.011444 -0.000101 -0.000150
  5O   2py       -0.017595  0.024988 -0.021681 -0.040965  0.000229 -0.020133
  5O   4s        -0.066855  0.043601 -0.006671  0.015569 -0.000435  0.048924
  5O   3pz        0.000122  0.000008 -0.000405 -0.000155 -0.086247 -0.001570
  5O   3px       -0.018059  0.072590  0.160471 -0.063664  0.000536  0.023722
  5O   3py        0.021532  0.022429 -0.042341  0.039159 -0.000008  0.020402
  5O   5s        -0.015653  1.443286  3.160463 -1.340084  0.016615  0.920130
  5O   4pz        0.000771 -0.002973 -0.003338  0.004072  0.775956 -0.001436
  5O   4px       -0.122586  0.271657  0.195610 -0.087288  0.001749  0.507011
  5O   4py       -0.138772  0.192156 -0.268665 -0.647506  0.003301 -0.411298
  5O   1dz2       0.000430 -0.000907  0.000252  0.000695 -0.000017 -0.000880
  5O   1dxz      -0.000006 -0.000009 -0.000001  0.000020  0.003035  0.000009
  5O   1dyz       0.000000  0.000006 -0.000002 -0.000001 -0.000840 -0.000038
  5O   1dx2y2    -0.000552  0.000980 -0.001557 -0.000821  0.000018 -0.001136
  5O   1dxy      -0.000386 -0.000822 -0.000956 -0.002507  0.000003 -0.000443
  6O   1s         0.000830 -0.008358  0.010314  0.005130 -0.000061  0.004207
  6O   2s         0.001308 -0.014789  0.018448  0.009233 -0.000112  0.007104
  6O   1pz       -0.000014 -0.000125  0.000119  0.000152  0.025970 -0.000147
  6O   1px       -0.006795 -0.007030 -0.019812  0.013745 -0.000056 -0.022226
  6O   1py       -0.006866  0.022619 -0.005567 -0.012707  0.000108 -0.000264
  6O   3s        -0.002233  0.058457 -0.077976 -0.038234  0.000484 -0.020242
  6O   2pz       -0.000074 -0.000278  0.000169  0.000349  0.065254 -0.000283
  6O   2px       -0.005759 -0.011564 -0.041345  0.031233 -0.000127 -0.036967
  6O   2py       -0.010229  0.038498 -0.029381 -0.031700  0.000197  0.001711
  6O   4s        -0.007735  0.020302  0.004001  0.000580 -0.000243 -0.130250
  6O   3pz        0.000224  0.000104  0.000436 -0.000228 -0.086587  0.000109
  6O   3px       -0.028658 -0.055081  0.055614  0.002792 -0.000330  0.019874
  6O   3py       -0.017510 -0.028316  0.159301  0.069800 -0.000466  0.052760
  6O   5s         0.522131  1.102872 -3.224543 -0.955549  0.016261 -1.190757
  6O   4pz       -0.001405 -0.002548  0.003360  0.003748  0.778606  0.000662
  6O   4px        0.011712 -0.315664  0.000436  0.559122 -0.003943  0.043562
  6O   4py       -0.213179  0.015712  0.230375 -0.428061 -0.000045  0.626299
  6O   1dz2       0.000273 -0.001115 -0.000291  0.000756 -0.000018 -0.001833
  6O   1dxz       0.000009 -0.000001 -0.000002 -0.000009 -0.001158 -0.000017
  6O   1dyz       0.000004  0.000011 -0.000000 -0.000018 -0.002736 -0.000027
  6O   1dx2y2     0.000255 -0.000697  0.000356 -0.002157 -0.000003  0.002308
  6O   1dxy       0.000415  0.000998  0.001650 -0.001915  0.000022 -0.000597
                     24        25        26        27        28        29   
                   0.24940   0.27192   0.28544   0.30198   0.36702   0.38154
                   0.00000   0.00000   0.00000   0.00000   0.00000   0.00000
                  --------  --------  --------  --------  --------  --------
  0C   1s         0.000042  0.034504  0.016063  0.000019 -0.001752  0.000103
  0C   2s         0.000070  0.058872  0.027020  0.000039 -0.002884  0.000163
  0C   1pz       -0.018943 -0.000216  0.000254  0.054562  0.000374  0.161683
  0C   1px        0.000223 -0.033503 -0.009797 -0.000473 -0.131905  0.000573
  0C   1py        0.000095  0.023000  0.036477  0.000510 -0.096388  0.000009
  0C   3s        -0.000157 -0.163216 -0.041021 -0.000452  0.014097 -0.000064
  0C   2pz       -0.048135 -0.000240  0.000174  0.050866  0.000336  0.136966
  0C   2px        0.000783 -0.075516 -0.028402 -0.000711 -0.113198  0.000629
  0C   2py        0.000443  0.044147  0.087885  0.000624 -0.093704 -0.000156
  0C   4s        -0.000867 -0.393368 -0.462870  0.004420 -0.146865 -0.008141
  0C   3pz       -0.087455 -0.002722  0.003520  0.517308  0.003423  1.358865
  0C   3px        0.001823 -0.150813  0.064145 -0.003539 -1.201593  0.005638
  0C   3py        0.001428  0.194710 -0.145403  0.006615 -0.985430 -0.000096
  0C   5s        -0.027197  5.719315 35.907437 -0.253997  2.177201  0.010893
  0C   4pz        4.787952  0.015233 -0.014688 -1.166312 -0.003056 -0.633223
  0C   4px       -0.056985  3.101821 -4.911785  0.055801  0.256697 -0.006381
  0C   4py       -0.045120 -1.167567  7.685196 -0.084780  1.284649  0.013890
  0C   1dz2       0.000379 -0.003957  0.001058  0.000003  0.022506 -0.000133
  0C   1dxz      -0.048242  0.000129 -0.000182 -0.026153 -0.000045 -0.023257
  0C   1dyz       0.002466 -0.000222  0.000214  0.026149  0.000028 -0.014168
  0C   1dx2y2    -0.000028 -0.001299  0.002512  0.000008  0.010931 -0.000105
  0C   1dxy      -0.000338 -0.001192 -0.001609 -0.000027 -0.026486  0.000084
  1C   1s         0.000029 -0.002059  0.000315  0.000219  0.002032 -0.000103
  1C   2s         0.000049 -0.002663 -0.000467  0.000386  0.002968 -0.000200
  1C   1pz        0.007050 -0.001621  0.001593  0.214862 -0.000122 -0.106508
  1C   1px       -0.000072 -0.000937  0.005043 -0.000080  0.003500 -0.000026
  1C   1py       -0.000099  0.004134 -0.012763  0.000168 -0.016706 -0.000232
  1C   3s        -0.000055 -0.010022  0.005859 -0.001165  0.002227  0.000984
  1C   2pz        0.038877 -0.002660  0.002794  0.311565 -0.000064 -0.157085
  1C   2px        0.000351  0.010342  0.010540  0.000142 -0.022199  0.000163
  1C   2py        0.000013 -0.026054 -0.005942 -0.000364 -0.006283  0.000256
  1C   4s        -0.002560  0.333763 -0.174360  0.000314 -0.099623 -0.004985
  1C   3pz       -0.053673 -0.003703  0.003666  0.749926 -0.000980 -0.565271
  1C   3px       -0.009070  0.028274  0.125018 -0.003319  0.683827 -0.001742
  1C   3py       -0.004940  0.460462 -0.206633  0.008136 -0.071659 -0.008048
  1C   5s         0.048000  8.023425-34.084228  0.362613 -3.048985 -0.054671
  1C   4pz       -0.845844  0.002202 -0.010722  0.331780 -0.000957 -0.438013
  1C   4px        0.018111  1.393262 -4.507047  0.051370 -0.130708 -0.006717
  1C   4py       -0.009929 -3.236145  9.221614 -0.102513  1.110566  0.014567
  1C   1dz2       0.000130  0.022407 -0.024913  0.000126  0.005431  0.000223
  1C   1dxz       0.008161 -0.000067  0.000105  0.011237  0.000096 -0.003390
  1C   1dyz      -0.008912  0.000231 -0.000180 -0.025699  0.000002  0.002518
  1C   1dx2y2     0.000151 -0.014996  0.004576 -0.000118 -0.018936  0.000077
  1C   1dxy      -0.000150 -0.005351  0.008097 -0.000094  0.017014 -0.000135
  2H   1s        -0.049199 -0.017298 -0.010335 -0.043927  0.017082 -0.014179
  2H   2s         0.110326  0.165007  0.145372 -0.146870  0.059900  0.014811
  2H   3s        -1.223511 -1.523311 -1.117413 -0.691439  1.153025 -2.044520
  2H   4s        -4.437534 -4.157720 -0.123509  1.831179 -1.182360  2.264986
  2H   1pz       -0.005997  0.005612  0.000777 -0.004415  0.013382 -0.022055
  2H   1px       -0.016035  0.005597  0.000730 -0.006253  0.002906 -0.019214
  2H   1py       -0.001261 -0.001696  0.003090  0.007421 -0.004557 -0.003508
  3H   1s         0.049680 -0.017879 -0.009661  0.043893  0.017216  0.014013
  3H   2s        -0.112337  0.162688  0.147595  0.146653  0.060272 -0.015015
  3H   3s         1.239436 -1.528164 -1.107915  0.688208  1.161513  2.042508
  3H   4s         4.500860 -4.123003 -0.148388 -1.884385 -1.192544 -2.245017
  3H   1pz       -0.006359 -0.005607 -0.000815 -0.004588 -0.013458 -0.021858
  3H   1px        0.015800  0.005597  0.000787  0.006299  0.002996  0.019156
  3H   1py        0.001053 -0.001594  0.002990 -0.007488 -0.004583  0.003564
  4H   1s        -0.000587 -0.006513 -0.015629 -0.000067 -0.042361  0.000311
  4H   2s         0.002502  0.061103  0.182756 -0.000623 -0.094053  0.000598
  4H   3s        -0.018109 -0.711493 -1.523986  0.002623 -2.693854  0.014275
  4H   4s        -0.079452 -0.565083 -1.682348 -0.007464  3.207389  0.003875
  4H   1pz        0.017650  0.000070 -0.000045 -0.004235  0.000011  0.012716
  4H   1px        0.000150 -0.003700 -0.004397 -0.000008  0.020401 -0.000020
  4H   1py        0.000174 -0.005377  0.000904 -0.000008  0.025664 -0.000082
  5O   1s         0.000027  0.008564 -0.004334  0.000065 -0.002678  0.000034
  5O   2s         0.000049  0.015078 -0.008052  0.000121 -0.004066  0.000056
  5O   1pz       -0.042357  0.000974 -0.001023 -0.123226 -0.000033  0.025691
  5O   1px       -0.000018 -0.013141  0.001532 -0.000046 -0.028786 -0.000144
  5O   1py        0.000101  0.014868  0.006463  0.000280 -0.007309 -0.000198
  5O   3s        -0.000208 -0.062165  0.042752 -0.000650  0.001894 -0.000114
  5O   2pz       -0.064561  0.001410 -0.001489 -0.179362  0.000010  0.052208
  5O   2px        0.000002 -0.022041  0.000126 -0.000048 -0.032343 -0.000159
  5O   2py        0.000255  0.036833  0.002293  0.000613 -0.005867 -0.000365
  5O   4s        -0.000900  0.057851 -0.121567  0.001660  0.202863 -0.001165
  5O   3pz       -0.062371  0.001953 -0.002071 -0.266432 -0.000467  0.005158
  5O   3px       -0.000552  0.023688 -0.016389  0.000175 -0.036228 -0.000465
  5O   3py       -0.000074 -0.068766  0.068115 -0.000900 -0.027805  0.000258
  5O   5s        -0.019675 -1.220957  1.876025 -0.031847  1.012847  0.004122
  5O   4pz       -0.133906  0.001441 -0.002451 -0.336895 -0.000357  0.631722
  5O   4px       -0.009264 -0.601241  0.368379 -0.010864  0.703749  0.001538
  5O   4py        0.005990  0.512584 -0.225438  0.005844  0.067502 -0.000616
  5O   1dz2       0.000015  0.001141 -0.001857 -0.000032  0.001965  0.000044
  5O   1dxz      -0.001145 -0.000078  0.000083  0.010569 -0.000002 -0.009092
  5O   1dyz      -0.002976  0.000006 -0.000017 -0.001144 -0.000003 -0.001946
  5O   1dx2y2     0.000017  0.001477 -0.003762  0.000081 -0.001071 -0.000036
  5O   1dxy       0.000004  0.000166 -0.000382  0.000006 -0.003569 -0.000018
  6O   1s        -0.000053  0.008951 -0.005453  0.000069 -0.007293  0.000010
  6O   2s        -0.000085  0.015579 -0.010240  0.000126 -0.012307  0.000020
  6O   1pz       -0.001663  0.001010 -0.000988 -0.116962 -0.000008  0.087111
[...]

                            ***************************************
                            *     ORCA property calculations      *
                            ***************************************

                                    ---------------------
                                    Active property flags
                                    ---------------------
   (+) Dipole Moment


------------------------------------------------------------------------------
                       ORCA ELECTRIC PROPERTIES CALCULATION
------------------------------------------------------------------------------

Dipole Moment Calculation                       ... on
Quadrupole Moment Calculation                   ... off
Polarizability Calculation                      ... off
GBWName                                         ... acetate.gbw
Electron density file                           ... acetate.scfp
The origin for moment calculation is the CENTER OF MASS  = (-0.031170, -0.080096 -0.000008)

-------------
DIPOLE MOMENT
-------------
                                X             Y             Z
Electronic contribution:     -1.71751       3.23129      -0.00005
Nuclear contribution   :      2.32993      -4.46281       0.00003
                        -----------------------------------------
Total Dipole Moment    :      0.61243      -1.23152      -0.00002
                        -----------------------------------------
Magnitude (a.u.)       :      1.37539
Magnitude (Debye)      :      3.49597



--------------------
Rotational spectrum 
--------------------
 
Rotational constants in cm-1:     0.386598     0.336250     0.186069 
Rotational constants in MHz : 11589.915242 10080.514223  5578.218498 

 Dipole components along the rotational axes: 
x,y,z [a.u.] :     1.370959    -0.110344    -0.000015 
x,y,z [Debye]:     3.484701    -0.280472    -0.000039 

 

----------------------------------------------------------------------------
                           ORCA NUMERICAL FREQUENCIES
                              (6-process run)
----------------------------------------------------------------------------

Number of atoms                ... 7
Central differences            ... used
Number of displacements        ... 42
Numerical increment            ... 5.000e-03 bohr
IR-spectrum generation         ... on
Raman-spectrum generation      ... off
Surface Crossing Hessian       ... off

The output will be reduced. Please look at the following files:
SCF program output             ... >acetate.lastscf
Integral program output        ... >acetate.lastint
Gradient program output        ... >acetate.lastgrad
Dipole moment program output   ... >acetate.lastmom
AutoCI program output          ... >acetate.lastautoci


         <<< Energy and Gradient at the input geometry >>>

        <<< Energy and Gradient at displaced geometries >>>
             <<<Displacing   2/coordinate 1 (+)>>>
             <<<Displacing   2/coordinate 2 (+)>>>
             <<<Displacing   1/coordinate 1 (+)>>>
             <<<Displacing   1/coordinate 2 (+)>>>
             <<<Displacing   2/coordinate 3 (+)>>>
             <<<Displacing   1/coordinate 3 (+)>>>
             <<<Displacing   1/coordinate 3 (-)>>>
             <<<Displacing   2/coordinate 3 (-)>>>
             <<<Displacing   1/coordinate 1 (-)>>>
             <<<Displacing   1/coordinate 2 (-)>>>
             <<<Displacing   2/coordinate 1 (-)>>>
             <<<Displacing   2/coordinate 2 (-)>>>
             <<<Displacing   3/coordinate 1 (+)>>>
             <<<Displacing   3/coordinate 2 (+)>>>
             <<<Displacing   3/coordinate 3 (+)>>>
             <<<Displacing   4/coordinate 1 (+)>>>
             <<<Displacing   4/coordinate 2 (+)>>>
             <<<Displacing   4/coordinate 3 (+)>>>
             <<<Displacing   3/coordinate 1 (-)>>>
             <<<Displacing   3/coordinate 2 (-)>>>
             <<<Displacing   3/coordinate 3 (-)>>>
             <<<Displacing   4/coordinate 1 (-)>>>
             <<<Displacing   4/coordinate 2 (-)>>>
             <<<Displacing   4/coordinate 3 (-)>>>
             <<<Displacing   5/coordinate 1 (+)>>>
             <<<Displacing   5/coordinate 2 (+)>>>
             <<<Displacing   5/coordinate 3 (+)>>>
             <<<Displacing   6/coordinate 1 (+)>>>
             <<<Displacing   6/coordinate 2 (+)>>>
             <<<Displacing   6/coordinate 3 (+)>>>
             <<<Displacing   5/coordinate 2 (-)>>>
             <<<Displacing   5/coordinate 1 (-)>>>
             <<<Displacing   5/coordinate 3 (-)>>>
             <<<Displacing   6/coordinate 2 (-)>>>
             <<<Displacing   6/coordinate 1 (-)>>>
             <<<Displacing   6/coordinate 3 (-)>>>
             <<<Displacing   7/coordinate 1 (+)>>>
             <<<Displacing   7/coordinate 2 (+)>>>
             <<<Displacing   7/coordinate 3 (+)>>>
             <<<Displacing   7/coordinate 1 (-)>>>
             <<<Displacing   7/coordinate 3 (-)>>>
             <<<Displacing   7/coordinate 2 (-)>>>

-----------------------
VIBRATIONAL FREQUENCIES
-----------------------

Scaling factor for frequencies =  1.000000000 (already applied!)

   0:         0.00 cm**-1
   1:         0.00 cm**-1
   2:         0.00 cm**-1
   3:         0.00 cm**-1
   4:         0.00 cm**-1
   5:         0.00 cm**-1
   6:        67.95 cm**-1
   7:       443.40 cm**-1
   8:       620.06 cm**-1
   9:       645.20 cm**-1
  10:       906.35 cm**-1
  11:      1002.57 cm**-1
  12:      1040.58 cm**-1
  13:      1318.44 cm**-1
  14:      1417.61 cm**-1
  15:      1468.24 cm**-1
  16:      1479.81 cm**-1
  17:      1732.10 cm**-1
  18:      3044.88 cm**-1
  19:      3119.08 cm**-1
  20:      3139.16 cm**-1


------------
NORMAL MODES
------------

These modes are the cartesian displacements weighted by the diagonal matrix
M(i,i)=1/sqrt(m[i]) where m[i] is the mass of the displaced atom
Thus, these vectors are normalized but *not* orthogonal

                  0          1          2          3          4          5    
      0       0.000000   0.000000   0.000000   0.000000   0.000000   0.000000
      1       0.000000   0.000000   0.000000   0.000000   0.000000   0.000000
      2       0.000000   0.000000   0.000000   0.000000   0.000000   0.000000
      3       0.000000   0.000000   0.000000   0.000000   0.000000   0.000000
      4       0.000000   0.000000   0.000000   0.000000   0.000000   0.000000
      5       0.000000   0.000000   0.000000   0.000000   0.000000   0.000000
      6       0.000000   0.000000   0.000000   0.000000   0.000000   0.000000
      7       0.000000   0.000000   0.000000   0.000000   0.000000   0.000000
      8       0.000000   0.000000   0.000000   0.000000   0.000000   0.000000
      9       0.000000   0.000000   0.000000   0.000000   0.000000   0.000000
     10       0.000000   0.000000   0.000000   0.000000   0.000000   0.000000
     11       0.000000   0.000000   0.000000   0.000000   0.000000   0.000000
     12       0.000000   0.000000   0.000000   0.000000   0.000000   0.000000
     13       0.000000   0.000000   0.000000   0.000000   0.000000   0.000000
     14       0.000000   0.000000   0.000000   0.000000   0.000000   0.000000
     15       0.000000   0.000000   0.000000   0.000000   0.000000   0.000000
     16       0.000000   0.000000   0.000000   0.000000   0.000000   0.000000
     17       0.000000   0.000000   0.000000   0.000000   0.000000   0.000000
     18       0.000000   0.000000   0.000000   0.000000   0.000000   0.000000
     19       0.000000   0.000000   0.000000   0.000000   0.000000   0.000000
     20       0.000000   0.000000   0.000000   0.000000   0.000000   0.000000
                  6          7          8          9         10         11    
      0       0.000009  -0.160178   0.000127   0.207634   0.157079  -0.145761
      1       0.000002  -0.093782  -0.000234  -0.362988  -0.266254  -0.091222
      2       0.007482   0.000031   0.037726  -0.000060  -0.000025   0.000016
      3      -0.000005   0.130217   0.000068   0.030255  -0.176472   0.009705
      4      -0.000004   0.062744  -0.000023  -0.082956   0.349472   0.016520
      5       0.018114  -0.000049   0.286310  -0.000458   0.000013   0.000015
      6       0.466821  -0.209635   0.230100   0.209410   0.172349   0.003925
      7       0.192904  -0.427761  -0.550304  -0.415220  -0.424316   0.420876
      8      -0.320699   0.011679  -0.173008   0.001583  -0.007789  -0.067719
      9      -0.466661  -0.209676  -0.229817   0.210187   0.172498   0.003767
     10      -0.192818  -0.428158   0.549471  -0.416932  -0.424561   0.421167
     11      -0.320838  -0.011675  -0.173064  -0.001015   0.007838   0.067732
     12      -0.000017  -0.569804  -0.000012   0.228961   0.188206   0.452903
     13      -0.000059   0.275328  -0.000055  -0.394141  -0.317941  -0.626808
     14       0.527945   0.000206  -0.355399   0.000517   0.000060  -0.000049
     15      -0.000019   0.136151   0.000015   0.046964  -0.291957   0.056064
     16       0.000011  -0.152713   0.000168   0.298787  -0.126740  -0.023441
     17      -0.055769  -0.000011  -0.093108   0.000124   0.000050  -0.000009
     18       0.000007  -0.051340  -0.000178  -0.266418   0.272931   0.017059
     19      -0.000011   0.212593   0.000081   0.113260   0.137779   0.065963
     20       0.043710   0.000011  -0.105962   0.000196  -0.000049  -0.000012
                 12         13         14         15         16         17    
      0       0.000016  -0.072820   0.081505  -0.046236  -0.000035  -0.042298
      1      -0.000002   0.129824  -0.082089  -0.042704  -0.000051  -0.018357
      2       0.163869  -0.000004   0.000025   0.000059  -0.060627  -0.000001
      3      -0.000039  -0.009277  -0.270128   0.000461  -0.000019   0.714035
      4      -0.000005   0.021239   0.553942   0.039641   0.000049   0.340501
      5      -0.238579  -0.000002   0.000006   0.000012  -0.018717  -0.000129
      6       0.346598   0.180298  -0.286804   0.514450  -0.188647  -0.141225
      7      -0.516926  -0.507476   0.076595   0.134302  -0.428487   0.103256
      8      -0.139489  -0.208096   0.279639  -0.378762   0.063616   0.105357
      9      -0.346563   0.180264  -0.286842   0.513928   0.189729  -0.141158
     10       0.516747  -0.507437   0.076481   0.133304   0.428803   0.103499
     11      -0.139565   0.208108  -0.279781   0.378790   0.064522  -0.105363
     12      -0.000042   0.433324  -0.034134  -0.308602  -0.000459   0.239944
     13       0.000123  -0.348184  -0.006456   0.215996   0.000221  -0.216516
     14      -0.313763   0.000064  -0.000154  -0.000876   0.740737   0.000114
     15      -0.000005   0.027673   0.367463   0.005732   0.000019  -0.308791
     16      -0.000003  -0.002327  -0.046463  -0.001101  -0.000002  -0.014413
     17       0.048117  -0.000003  -0.000052  -0.000000   0.001219   0.000048
     18       0.000022  -0.016057  -0.187565  -0.016715  -0.000018  -0.192831
     19       0.000012  -0.025201  -0.317011  -0.027068  -0.000031  -0.226817
     20       0.045321   0.000003   0.000048   0.000000   0.003604   0.000043
                  18         19         20    
      0      -0.028822   0.000020   0.081531
      1       0.037581   0.000024   0.048736
      2      -0.000016   0.092623  -0.000031
      3       0.000957   0.000003   0.004071
      4      -0.002606  -0.000001   0.001170
      5      -0.000004   0.000931   0.000001
      6       0.345200  -0.420572  -0.202106
      7      -0.022601   0.037298   0.026942
      8       0.493247  -0.563398  -0.301132
      9       0.345230   0.420650  -0.202598
     10      -0.022543  -0.037212   0.026944
     11      -0.492981  -0.563146   0.301607
     12      -0.359507  -0.000328  -0.574098
     13      -0.377908  -0.000359  -0.629583
     14      -0.000065   0.016337  -0.000113
     15      -0.000216  -0.000001  -0.001626
     16       0.000013  -0.000000  -0.000191
     17       0.000001  -0.000011  -0.000001
     18       0.000285  -0.000000  -0.000970
     19       0.000384  -0.000000  -0.001004
     20       0.000001  -0.000275  -0.000000


-----------
IR SPECTRUM  
-----------

 Mode    freq (cm**-1)   T**2         TX         TY         TZ
-------------------------------------------------------------------
   6:        67.95    0.083552  (  0.001292  -0.000118   0.289050)
   7:       443.40    1.078396  ( -0.707277  -0.760365   0.000121)
   8:       620.06    6.986862  (  0.002513  -0.002623   2.643265)
   9:       645.20   12.712578  (  1.803164  -3.075902  -0.002811)
  10:       906.35   58.294944  ( -3.143815   6.957828  -0.000012)
  11:      1002.57   10.097743  ( -3.093065  -0.728487   0.000725)
  12:      1040.58    5.379394  ( -0.000089   0.000413  -2.319352)
  13:      1318.44    8.360613  (  2.163059  -1.918799   0.000353)
  14:      1417.61  358.278896  ( -8.723509  16.798193  -0.000180)
  15:      1468.24   24.929354  (  2.706342   4.195838  -0.002806)
  16:      1479.81    4.154157  (  0.000641   0.004623   2.038170)
  17:      1732.10  760.660527  ( 24.733862  12.202319  -0.004322)
  18:      3044.88   34.122358  ( -3.204945   4.883716  -0.001923)
  19:      3119.08   45.739664  (  0.000086   0.002681   6.763110)
  20:      3139.16   52.425686  (  5.801377   4.332402  -0.001845)

The first frequency considered to be a vibration is 6
The total number of vibrations considered is 15


--------------------------
THERMOCHEMISTRY AT 298.15K
--------------------------

Temperature         ... 298.15 K
Pressure            ... 1.00 atm
Total Mass          ... 59.04 AMU

Throughout the following assumptions are being made:
  (1) The electronic state is orbitally nondegenerate
  (2) There are no thermally accessible electronically excited states
  (3) Hindered rotations indicated by low frequency modes are not
      treated as such but are treated as vibrations and this may
      cause some error
  (4) All equations used are the standard statistical mechanics
      equations for an ideal gas
  (5) All vibrations are strictly harmonic

freq.      67.95  E(vib)   ...       0.50 
freq.     443.40  E(vib)   ...       0.17 
freq.     620.06  E(vib)   ...       0.09 
freq.     645.20  E(vib)   ...       0.09 
freq.     906.35  E(vib)   ...       0.03 
freq.    1002.57  E(vib)   ...       0.02 
freq.    1040.58  E(vib)   ...       0.02 
freq.    1318.44  E(vib)   ...       0.01 
freq.    1417.61  E(vib)   ...       0.00 
freq.    1468.24  E(vib)   ...       0.00 
freq.    1479.81  E(vib)   ...       0.00 
freq.    1732.10  E(vib)   ...       0.00 
freq.    3044.88  E(vib)   ...       0.00 
freq.    3119.08  E(vib)   ...       0.00 
freq.    3139.16  E(vib)   ...       0.00 

------------
INNER ENERGY
------------

The inner energy is: U= E(el) + E(ZPE) + E(vib) + E(rot) + E(trans)
    E(el)   - is the total energy from the electronic structure calculation
              = E(kin-el) + E(nuc-el) + E(el-el) + E(nuc-nuc)
    E(ZPE)  - the the zero temperature vibrational energy from the frequency calculation
    E(vib)  - the the finite temperature correction to E(ZPE) due to population
              of excited vibrational states
    E(rot)  - is the rotational thermal energy
    E(trans)- is the translational thermal energy

Summary of contributions to the inner energy U:
Electronic energy                ...   -228.50011770 Eh
Zero point energy                ...      0.04885629 Eh      30.66 kcal/mol
Thermal vibrational correction   ...      0.00150414 Eh       0.94 kcal/mol
Thermal rotational correction    ...      0.00141627 Eh       0.89 kcal/mol
Thermal translational correction ...      0.00141627 Eh       0.89 kcal/mol
-----------------------------------------------------------------------
Total thermal energy                   -228.44692473 Eh


Summary of corrections to the electronic energy:
(perhaps to be used in another calculation)
Total thermal correction                  0.00433668 Eh       2.72 kcal/mol
Non-thermal (ZPE) correction              0.04885629 Eh      30.66 kcal/mol
-----------------------------------------------------------------------
Total correction                          0.05319297 Eh      33.38 kcal/mol


--------
ENTHALPY
--------

The enthalpy is H = U + kB*T
                kB is Boltzmann's constant
Total free energy                 ...   -228.44692473 Eh 
Thermal Enthalpy correction       ...      0.00094421 Eh       0.59 kcal/mol
-----------------------------------------------------------------------
Total Enthalpy                    ...   -228.44598052 Eh


Note: Only C1 symmetry has been detected, increase convergence thresholds 
      if your molecule has a higher symmetry. Symmetry factor of 1.0 is   
      used for the rotational entropy correction. 
 

Note: Rotational entropy computed according to Herzberg 
Infrared and Raman Spectra, Chapter V,1, Van Nostrand Reinhold, 1945 
Point Group:  C1, Symmetry Number:   1  
Rotational constants in cm-1:     0.386598     0.336250     0.186069 

Vibrational entropy computed according to the QRRHO of S. Grimme
Chem.Eur.J. 2012 18 9955


-------
ENTROPY
-------

The entropy contributions are T*S = T*(S(el)+S(vib)+S(rot)+S(trans))
     S(el)   - electronic entropy
     S(vib)  - vibrational entropy
     S(rot)  - rotational entropy
     S(trans)- translational entropy
The entropies will be listed as mutliplied by the temperature to get
units of energy

Electronic entropy                ...      0.00000000 Eh      0.00 kcal/mol
Vibrational entropy               ...      0.00256754 Eh      1.61 kcal/mol
Rotational entropy                ...      0.01126789 Eh      7.07 kcal/mol
Translational entropy             ...      0.01812503 Eh     11.37 kcal/mol
-----------------------------------------------------------------------
Final entropy term                ...      0.03196046 Eh     20.06 kcal/mol

In case the symmetry of your molecule has not been determined correctly
or in case you have a reason to use a different symmetry number we print 
out the resulting rotational entropy values for sn=1,12 :
 --------------------------------------------------------
|  sn= 1 | S(rot)=       0.01126789 Eh      7.07 kcal/mol|
|  sn= 2 | S(rot)=       0.01061343 Eh      6.66 kcal/mol|
|  sn= 3 | S(rot)=       0.01023060 Eh      6.42 kcal/mol|
|  sn= 4 | S(rot)=       0.00995897 Eh      6.25 kcal/mol|
|  sn= 5 | S(rot)=       0.00974829 Eh      6.12 kcal/mol|
|  sn= 6 | S(rot)=       0.00957614 Eh      6.01 kcal/mol|
|  sn= 7 | S(rot)=       0.00943060 Eh      5.92 kcal/mol|
|  sn= 8 | S(rot)=       0.00930452 Eh      5.84 kcal/mol|
|  sn= 9 | S(rot)=       0.00919331 Eh      5.77 kcal/mol|
|  sn=10 | S(rot)=       0.00909383 Eh      5.71 kcal/mol|
|  sn=11 | S(rot)=       0.00900384 Eh      5.65 kcal/mol|
|  sn=12 | S(rot)=       0.00892169 Eh      5.60 kcal/mol|
 --------------------------------------------------------


-------------------
GIBBS FREE ENERGY
-------------------

The Gibbs free energy is G = H - T*S

Total enthalpy                    ...   -228.44598052 Eh 
Total entropy correction          ...     -0.03196046 Eh    -20.06 kcal/mol
-----------------------------------------------------------------------
Final Gibbs free energy         ...   -228.47794098 Eh

For completeness - the Gibbs free energy minus the electronic energy
G-E(el)                           ...      0.02217673 Eh     13.92 kcal/mol


Total Time for Numerical Frequencies  :       432.534 sec

Timings for individual modules:

Sum of individual times         ...      144.204 sec (=   2.403 min)
GTO integral calculation        ...        8.118 sec (=   0.135 min)   5.6 %
SCF iterations                  ...      105.294 sec (=   1.755 min)  73.0 %
SCF Gradient evaluation         ...       30.064 sec (=   0.501 min)  20.8 %
Geometry relaxation             ...        0.728 sec (=   0.012 min)   0.5 %
                             ****ORCA TERMINATED NORMALLY****
TOTAL RUN TIME: 0 days 0 hours 9 minutes 29 seconds 800 msec
