
                                 *****************
                                 * O   R   C   A *
                                 *****************

           --- An Ab Initio, DFT and Semiempirical electronic structure package ---

                  #######################################################
                  #                        -***-                        #
                  #          Department of theory and spectroscopy      #
                  #               Directorship: Frank Neese             #
                  #        Max Planck Institute fuer Kohlenforschung    #
                  #                Kaiser Wilhelm Platz 1               #
                  #                 D-45470 Muelheim/Ruhr               #
                  #                      Germany                        #
                  #                                                     #
                  #                  All rights reserved                #
                  #                        -***-                        #
                  #######################################################


                         Program Version 4.2.1 -  RELEASE  -


 With contributions from (in alphabetic order):
   Daniel Aravena         : Magnetic Suceptibility
   Michael Atanasov       : Ab Initio Ligand Field Theory (pilot matlab implementation)
   Alexander A. Auer      : GIAO ZORA, VPT2
   Ute Becker             : Parallelization
   Giovanni Bistoni       : ED, misc. LED, open-shell LED, HFLD
   Martin Brehm           : Molecular dynamics
   Dmytro Bykov           : SCF Hessian
   Vijay G. Chilkuri      : MRCI spin determinant printing, contributions to CSF-ICE
   Dipayan Datta          : RHF DLPNO-CCSD density
   Achintya Kumar Dutta   : EOM-CC, STEOM-CC
   Dmitry Ganyushin       : Spin-Orbit,Spin-Spin,Magnetic field MRCI
   Miquel Garcia          : C-PCM Hessian, Gaussian charge scheme
   Yang Guo               : DLPNO-NEVPT2, CIM, IAO-localization
   Andreas Hansen         : Spin unrestricted coupled pair/coupled cluster methods
   Benjamin Helmich-Paris : CASSCF linear response (MC-RPA)
   Lee Huntington         : MR-EOM, pCC
   Robert Izsak           : Overlap fitted RIJCOSX, COSX-SCS-MP3, EOM
   Christian Kollmar      : KDIIS, OOCD, Brueckner-CCSD(T), CCSD density
   Simone Kossmann        : Meta GGA functionals, TD-DFT gradient, OOMP2, MP2 Hessian
   Martin Krupicka        : AUTO-CI
   Lucas Lang             : DCDCAS
   Dagmar Lenk            : GEPOL surface, SMD
   Dimitrios Liakos       : Extrapolation schemes; Compound Job, initial MDCI parallelization
   Dimitrios Manganas     : Further ROCIS development; embedding schemes
   Dimitrios Pantazis     : SARC Basis sets
   Taras Petrenko         : DFT Hessian,TD-DFT gradient, ASA, ECA, R-Raman, ABS, FL, XAS/XES, NRVS
   Peter Pinski           : DLPNO-MP2, DLPNO-MP2 Gradient
   Christoph Reimann      : Effective Core Potentials
   Marius Retegan         : Local ZFS, SOC
   Christoph Riplinger    : Optimizer, TS searches, QM/MM, DLPNO-CCSD(T), (RO)-DLPNO pert. Triples
   Tobias Risthaus        : Range-separated hybrids, TD-DFT gradient, RPA, STAB
   Michael Roemelt        : Original ROCIS implementation
   Masaaki Saitow         : Open-shell DLPNO-CCSD energy and density
   Barbara Sandhoefer     : DKH picture change effects
   Avijit Sen             : IP-ROCIS
   Kantharuban Sivalingam : CASSCF convergence, NEVPT2, FIC-MRCI
   Bernardo de Souza      : ESD, SOC TD-DFT
   Georgi Stoychev        : AutoAux, RI-MP2 NMR
   Willem Van den Heuvel  : Paramagnetic NMR
   Boris Wezisla          : Elementary symmetry handling
   Frank Wennmohs         : Technical directorship


 We gratefully acknowledge several colleagues who have allowed us to
 interface, adapt or use parts of their codes:
   Stefan Grimme, W. Hujo, H. Kruse,             : VdW corrections, initial TS optimization,
                  C. Bannwarth                     DFT functionals, gCP, sTDA/sTD-DF
   Ed Valeev, F. Pavosevic, A. Kumar             : LibInt (2-el integral package), F12 methods
   Garnet Chan, S. Sharma, J. Yang, R. Olivares  : DMRG
   Ulf Ekstrom                                   : XCFun DFT Library
   Mihaly Kallay                                 : mrcc  (arbitrary order and MRCC methods)
   Andreas Klamt, Michael Diedenhofen            : otool_cosmo (COSMO solvation model)
   Jiri Pittner, Ondrej Demel                    : Mk-CCSD
   Frank Weinhold                                : gennbo (NPA and NBO analysis)
   Christopher J. Cramer and Donald G. Truhlar   : smd solvation model
   Lars Goerigk                                  : TD-DFT with DH, B97 family of functionals
   V. Asgeirsson, H. Jonsson                     : NEB implementation
   FAccTs GmbH                                   : IRC, NEB, NEB-TS, Multilevel, MM, QM/MM, CI optimization
   S Lehtola, MJT Oliveira, MAL Marques          : LibXC Library


 Your calculation uses the libint2 library for the computation of 2-el integrals
 For citations please refer to: http://libint.valeyev.net

 Your ORCA version has been built with support for libXC version: 4.2.3
 For citations please refer to: https://tddft.org/programs/libxc/

 This ORCA versions uses:
   CBLAS   interface :  Fast vector & matrix operations
   LAPACKE interface :  Fast linear algebra routines
   SCALAPACK package :  Parallel linear algebra routines




***************************************
The coordinates will be read from file: acetic_acid.xyz
***************************************


Your calculation utilizes the atom-pairwise dispersion correction
with the zero-damping scheme (D30)
Cite in your paper:
S.Grimme, J.Antony, S.Ehrlich and H.Krieg, J.Chem.Phys., 132, (2010), 154104 
   

XCFun DFT library Copyright 2009-2010 Ulf Ekstrom and contributors.
See http://admol.org/xcfun for more information. This is free soft-
ware; see the source code for copying conditions. There is ABSOLUTELY
NO WARRANTY; not even for MERCHANTABILITY or FITNESS FOR A PARTICULAR
PURPOSE. For details see the documentation. Scientific users of this 
library should cite U. Ekstrom, L. Visscher, R. Bast, A. J. Thorvald-
sen and K. Ruud; J.Chem.Theor.Comp. 2010, DOI: 10.1021/ct100117s
XCFun Version 0.99 
----- Orbital basis set information -----
Your calculation utilizes the basis: 6-311++G(d,p)
   H, Li - Ne  : R. Krishnan, J. S. Binkley, R. Seeger and J. A. Pople, J. Chem. Phys. 72, 650 (1980).
   Na - Ar     : A. D. McLean and G. S. Chandler J. Chem. Phys. 72, 5639, (1980).
   K  - Ca     : J.-P. Blaudeau, M. P. McGrath, L. A. Curtiss and L. Radom, J. Chem. Phys. 107, 5016 (1997).
   Ga - Kr     : L. A. Curtiss, M. P. McGrath, J.-P. Blandeau, N. E. Davis, R. C. Binning and L. Radom, J. Chem. Phys. 103, 6104 (1995).
   Pol./Diff.
   H, Li - Cl  : T. Clark, J. Chandrasekhar and P. v. R. Schleyer, J. Comp. Chem. 4, 294 (1983).
   H - Ne      : M. J. Frisch, J. A. Pople and J. S. Binkley, J. Chem. Phys. 80, 3265 (1984).

================================================================================
                                        WARNINGS
                       Please study these warnings very carefully!
================================================================================


WARNING: The environment variable RSH_COMMAND is not set!
  ===> : All Displacements for the Numerical Hessian calculation
         will be started on localhost

WARNING: Geometry Optimization
  ===> : Switching off AutoStart
         For restart on a previous wavefunction, please use MOREAD

INFO   : the flag for use of LIBINT has been found!

================================================================================
                                       INPUT FILE
================================================================================
NAME = acetic_acid.inp
|  1> ! UHF M062X D3Zero 6-311++G(d,p) Opt NumFreq TightOpt TightSCF Grid6 NoFinalGrid PrintBasis PrintMOs NBO
|  2> 
|  3> %pal
|  4>  nprocs 6
|  5> end
|  6> 
|  7> *xyzfile 0 1 acetic_acid.xyz
|  8> 
|  9>                          ****END OF INPUT****
================================================================================

                       *****************************
                       * Geometry Optimization Run *
                       *****************************

Geometry optimization settings:
Update method            Update   .... BFGS
Choice of coordinates    CoordSys .... Z-matrix Internals
Initial Hessian          InHess   .... Almoef's Model

Convergence Tolerances:
Energy Change            TolE     ....  1.0000e-06 Eh
Max. Gradient            TolMAXG  ....  1.0000e-04 Eh/bohr
RMS Gradient             TolRMSG  ....  3.0000e-05 Eh/bohr
Max. Displacement        TolMAXD  ....  1.0000e-03 bohr
RMS Displacement         TolRMSD  ....  6.0000e-04 bohr
Strict Convergence                ....  False
------------------------------------------------------------------------------
                        ORCA OPTIMIZATION COORDINATE SETUP
------------------------------------------------------------------------------

The optimization will be done in new redundant internal coordinates
Making redundant internal coordinates   ...  (new redundants) done
Evaluating the initial hessian          ...  (Almloef) done
Evaluating the coordinates              ...  done
Calculating the B-matrix                .... done
Calculating the G-matrix                .... done
Diagonalizing the G-matrix              .... done
The first mode is                       ....    7
The number of degrees of freedom        ....   18

    -----------------------------------------------------------------
                    Redundant Internal Coordinates


    -----------------------------------------------------------------
         Definition                    Initial Value    Approx d2E/dq
    -----------------------------------------------------------------
      1. B(C   1,C   0)                  1.5013         0.415166   
      2. B(H   2,C   0)                  1.0904         0.359621   
      3. B(H   3,C   0)                  1.0904         0.359621   
      4. B(H   4,C   0)                  1.0856         0.366016   
      5. B(O   5,C   1)                  1.1985         1.130992   
      6. B(O   6,C   1)                  1.3399         0.672689   
      7. B(H   7,O   6)                  0.9661         0.508379   
      8. A(C   1,C   0,H   2)          110.5306         0.329936   
      9. A(C   1,C   0,H   4)          110.1513         0.330899   
     10. A(H   2,C   0,H   4)          109.2570         0.291524   
     11. A(C   1,C   0,H   3)          110.5306         0.329936   
     12. A(H   3,C   0,H   4)          109.2570         0.291524   
     13. A(H   2,C   0,H   3)          107.0493         0.290718   
     14. A(C   0,C   1,O   5)          125.7519         0.447082   
     15. A(O   5,C   1,O   6)          122.9164         0.485125   
     16. A(C   0,C   1,O   6)          111.3317         0.407354   
     17. A(C   1,O   6,H   7)          108.1627         0.373898   
     18. D(O   5,C   1,C   0,H   2)   -120.8347         0.012755   
     19. D(O   6,C   1,C   0,H   2)     59.1653         0.012755   
     20. D(O   5,C   1,C   0,H   3)    120.8347         0.012755   
     21. D(O   6,C   1,C   0,H   3)    -59.1653         0.012755   
     22. D(O   6,C   1,C   0,H   4)    180.0000         0.012755   
     23. D(O   5,C   1,C   0,H   4)      0.0000         0.012755   
     24. D(H   7,O   6,C   1,C   0)    180.0000         0.033639   
     25. D(H   7,O   6,C   1,O   5)      0.0000         0.033639   
    -----------------------------------------------------------------

Number of atoms                         .... 8
Number of degrees of freedom            .... 25

         *************************************************************
         *                GEOMETRY OPTIMIZATION CYCLE   1            *
         *************************************************************
---------------------------------
CARTESIAN COORDINATES (ANGSTROEM)
---------------------------------
  C      0.626425   -1.307882    0.000000
  C     -0.125726   -0.008626    0.000000
  H      1.270967   -1.376605    0.876774
  H      1.270967   -1.376604   -0.876774
  H     -0.068190   -2.142124    0.000000
  O     -1.318295    0.110092    0.000000
  O      0.710233    1.038509    0.000000
  H      0.180710    1.846600    0.000000

----------------------------
CARTESIAN COORDINATES (A.U.)
----------------------------
  NO LB      ZA    FRAG     MASS         X           Y           Z
   0 C     6.0000    0    12.011    1.183772   -2.471539    0.000000
   1 C     6.0000    0    12.011   -0.237588   -0.016301    0.000000
   2 H     1.0000    0     1.008    2.401780   -2.601406    1.656863
   3 H     1.0000    0     1.008    2.401780   -2.601405   -1.656863
   4 H     1.0000    0     1.008   -0.128860   -4.048028    0.000000
   5 O     8.0000    0    15.999   -2.491217    0.208044    0.000000
   6 O     8.0000    0    15.999    1.342146    1.962498    0.000000
   7 H     1.0000    0     1.008    0.341492    3.489568    0.000000

--------------------------------
INTERNAL COORDINATES (ANGSTROEM)
--------------------------------
 C      0   0   0     0.000000000000     0.00000000     0.00000000
 C      1   0   0     1.501265226513     0.00000000     0.00000000
 H      1   2   0     1.090362273544   110.53061447     0.00000000
 H      1   2   3     1.090362210517   110.53056715   241.66939558
 H      1   2   3     1.085564237062   110.15127960   120.83468572
 O      2   1   3     1.198463509367   125.75189402   239.16531428
 O      2   1   3     1.339895204076   111.33165609    59.16531428
 H      7   2   1     0.966129221072   108.16271129   180.00000000

---------------------------
INTERNAL COORDINATES (A.U.)
---------------------------
 C      0   0   0     0.000000000000     0.00000000     0.00000000
 C      1   0   0     2.836980132489     0.00000000     0.00000000
 H      1   2   0     2.060486083759   110.53061447     0.00000000
 H      1   2   3     2.060485964655   110.53056715   241.66939558
 H      1   2   3     2.051419108827   110.15127960   120.83468572
 O      2   1   3     2.264767814202   125.75189402   239.16531428
 O      2   1   3     2.532034983858   111.33165609    59.16531428
 H      7   2   1     1.825719637806   108.16271129   180.00000000

---------------------
BASIS SET INFORMATION
---------------------
There are 3 groups of distinct atoms

 Group   1 Type C   : 12s6p1d contracted to 5s4p1d pattern {63111/3111/1}
 Group   2 Type H   : 6s1p contracted to 4s1p pattern {3111/1}
 Group   3 Type O   : 12s6p1d contracted to 5s4p1d pattern {63111/3111/1}

Atom   0C    basis set group =>   1
Atom   1C    basis set group =>   1
Atom   2H    basis set group =>   2
Atom   3H    basis set group =>   2
Atom   4H    basis set group =>   2
Atom   5O    basis set group =>   3
Atom   6O    basis set group =>   3
Atom   7H    basis set group =>   2

-------------------------
BASIS SET IN INPUT FORMAT
-------------------------

 # Basis set for element : H 
 NewGTO H 
 S 3 
   1      33.8650000000      0.0254938145
   2       5.0947900000      0.1903731086
   3       1.1587900000      0.8521614860
 S 1 
   1       0.3258400000      1.0000000000
 S 1 
   1       0.1027410000      1.0000000000
 S 1 
   1       0.0360000000      1.0000000000
 P 1 
   1       0.7500000000      1.0000000000
  end;

 # Basis set for element : C 
 NewGTO C 
 S 6 
   1    4563.2400000000      0.0019666502
   2     682.0240000000      0.0152306019
   3     154.9730000000      0.0761269097
   4      44.4553000000      0.2608010331
   5      13.0290000000      0.6164620782
   6       1.8277300000      0.2210060280
 S 3 
   1      20.9642000000      0.1146600807
   2       4.8033100000      0.9199996477
   3       1.4593300000     -0.0030306821
 P 3 
   1      20.9642000000      0.0402486927
   2       4.8033100000      0.2375939567
   3       1.4593300000      0.8158538515
 S 1 
   1       0.4834560000      1.0000000000
 P 1 
   1       0.4834560000      1.0000000000
 S 1 
   1       0.1455850000      1.0000000000
 P 1 
   1       0.1455850000      1.0000000000
 S 1 
   1       0.0438000000      1.0000000000
 P 1 
   1       0.0438000000      1.0000000000
 D 1 
   1       0.6260000000      1.0000000000
  end;

 # Basis set for element : O 
 NewGTO O 
 S 6 
   1    8588.5000000000      0.0018951501
   2    1297.2300000000      0.0143859006
   3     299.2960000000      0.0707320031
   4      87.3771000000      0.2400010105
   5      25.6789000000      0.5947970261
   6       3.7400400000      0.2808020123
 S 3 
   1      42.1175000000      0.1138890124
   2       9.6283700000      0.9208111006
   3       2.8533200000     -0.0032744704
 P 3 
   1      42.1175000000      0.0365113974
   2       9.6283700000      0.2371529830
   3       2.8533200000      0.8197019412
 S 1 
   1       0.9056610000      1.0000000000
 P 1 
   1       0.9056610000      1.0000000000
 S 1 
   1       0.2556110000      1.0000000000
 P 1 
   1       0.2556110000      1.0000000000
 S 1 
   1       0.0845000000      1.0000000000
 P 1 
   1       0.0845000000      1.0000000000
 D 1 
   1       1.2920000000      1.0000000000
  end;



           ************************************************************
           *        Program running with 6 parallel MPI-processes     *
           *              working on a common directory               *
           ************************************************************
------------------------------------------------------------------------------
                           ORCA GTO INTEGRAL CALCULATION
------------------------------------------------------------------------------

                         BASIS SET STATISTICS AND STARTUP INFO

 # of primitive gaussian shells          ...  104
 # of primitive gaussian functions       ...  176
 # of contracted shells                  ...   60
 # of contracted basis functions         ...  116
 Highest angular momentum                ...    2
 Maximum contraction depth               ...    6
 Integral package used                   ... LIBINT
 Integral threshhold            Thresh   ...  2.500e-11
 Primitive cut-off              TCut     ...  2.500e-12


------------------------------ INTEGRAL EVALUATION ----------------------------


 * One electron integrals 
 Pre-screening matrix                    ... done
 Shell pair data                         ... done (   0.000 sec)



           ************************************************************
           *        Program running with 6 parallel MPI-processes     *
           *              working on a common directory               *
           ************************************************************
-------------------------------------------------------------------------------
                                 ORCA SCF
-------------------------------------------------------------------------------

------------
SCF SETTINGS
------------
Hamiltonian:
 Density Functional     Method          .... DFT(GTOs)
 Exchange Functional    Exchange        .... M062X
 Correlation Functional Correlation     .... M062X
 Gradients option       PostSCFGGA      .... off
 Hybrid DFT is turned on
   Fraction HF Exchange ScalHFX         ....  0.540000
   Scaling of DF-GGA-X  ScalDFX         ....  0.460000
   Scaling of DF-GGA-C  ScalDFC         ....  1.000000
   Scaling of DF-LDA-C  ScalLDAC        ....  1.000000
   Perturbative correction              ....  0.000000
   Density functional embedding theory  .... OFF


General Settings:
 Integral files         IntName         .... acetic_acid
 Hartree-Fock type      HFTyp           .... UHF
 Total Charge           Charge          ....    0
 Multiplicity           Mult            ....    1
 Number of Electrons    NEL             ....   32
 Basis Dimension        Dim             ....  116
 Nuclear Repulsion      ENuc            ....    121.7152130526 Eh

Convergence Acceleration:
 DIIS                   CNVDIIS         .... on
   Start iteration      DIISMaxIt       ....    12
   Startup error        DIISStart       ....  0.200000
   # of expansion vecs  DIISMaxEq       ....     5
   Bias factor          DIISBfac        ....   1.050
   Max. coefficient     DIISMaxC        ....  10.000
 Newton-Raphson         CNVNR           .... off
 SOSCF                  CNVSOSCF        .... off
 Level Shifting         CNVShift        .... on
   Level shift para.    LevelShift      ....    0.2500
   Turn off err/grad.   ShiftErr        ....    0.0010
 Zerner damping         CNVZerner       .... off
 Static damping         CNVDamp         .... on
   Fraction old density DampFac         ....    0.7000
   Max. Damping (<1)    DampMax         ....    0.9800
   Min. Damping (>=0)   DampMin         ....    0.0000
   Turn off err/grad.   DampErr         ....    0.1000
 Fernandez-Rico         CNVRico         .... off

SCF Procedure:
 Maximum # iterations   MaxIter         ....   125
 SCF integral mode      SCFMode         .... Direct
   Integral package                     .... LIBINT
 Reset frequency        DirectResetFreq ....    20
 Integral Threshold     Thresh          ....  2.500e-11 Eh
 Primitive CutOff       TCut            ....  2.500e-12 Eh

Convergence Tolerance:
 Convergence Check Mode ConvCheckMode   .... Total+1el-Energy
 Convergence forced     ConvForced      .... 0
 Energy Change          TolE            ....  1.000e-08 Eh
 1-El. energy change                    ....  1.000e-05 Eh
 DIIS Error             TolErr          ....  5.000e-07


Diagonalization of the overlap matrix:
Smallest eigenvalue                        ... 9.011e-05
Time for diagonalization                   ...    0.005 sec
Threshold for overlap eigenvalues          ... 1.000e-08
Number of eigenvalues below threshold      ... 0
Time for construction of square roots      ...    0.004 sec
Total time needed                          ...    0.009 sec

-------------------
DFT GRID GENERATION
-------------------

General Integration Accuracy     IntAcc      ...  5.340
Radial Grid Type                 RadialGrid  ... Gauss-Chebyshev
Angular Grid (max. acc.)         AngularGrid ... Lebedev-590
Angular grid pruning method      GridPruning ... 3 (G Style)
Weight generation scheme         WeightScheme... Becke
Basis function cutoff            BFCut       ...    1.0000e-11
Integration weight cutoff        WCut        ...    1.0000e-14
Grids for H and He will be reduced by one unit

# of grid points (after initial pruning)     ... 110416 (   0.0 sec)
# of grid points (after weights+screening)   ... 105015 (   0.0 sec)
nearest neighbour list constructed           ...    0.0 sec
Grid point re-assignment to atoms done       ...    0.0 sec
Grid point division into batches done        ...    1.3 sec
Reduced shell lists constructed in    1.3 sec

Total number of grid points                  ...   105015
Total number of batches                      ...     1644
Average number of points per batch           ...       63
Average number of grid points per atom       ...    13127
Average number of shells per batch           ...    54.75 (91.25%)
Average number of basis functions per batch  ...   107.26 (92.47%)
Average number of large shells per batch     ...    48.31 (88.24%)
Average number of large basis fcns per batch ...    95.20 (88.75%)
Maximum spatial batch extension              ...  16.06, 15.50, 14.11 au
Average spatial batch extension              ...   0.16,  0.16,  0.16 au

Time for grid setup =    1.434 sec

------------------------------
INITIAL GUESS: MODEL POTENTIAL
------------------------------
Loading Hartree-Fock densities                     ... done
Calculating cut-offs                               ... done
Setting up the integral package                    ... done
Initializing the effective Hamiltonian             ... done
Starting the Coulomb interaction                   ... done (   0.0 sec)
Reading the grid                                   ... done
Mapping shells                                     ... done
Starting the XC term evaluation                    ... done (   0.2 sec)
  promolecular density results
     # of electrons  =     31.998040415
     EX              =    -27.712748658
     EC              =     -1.057081294
     EX+EC           =    -28.769829952
Transforming the Hamiltonian                       ... done (   0.0 sec)
Diagonalizing the Hamiltonian                      ... done (   0.0 sec)
Back transforming the eigenvectors                 ... done (   0.0 sec)
Now organizing SCF variables                       ... done
                      ------------------
                      INITIAL GUESS DONE (   1.7 sec)
                      ------------------
--------------
SCF ITERATIONS
--------------
ITER       Energy         Delta-E        Max-DP      RMS-DP      [F,P]     Damp
               ***  Starting incremental Fock matrix formation  ***
  0   -228.8877090440   0.000000000000 0.03198467  0.00116837  0.3238942 0.7000
  1   -228.9670788540  -0.079369809959 0.01830789  0.00075837  0.1527004 0.7000
                               ***Turning on DIIS***
  2   -229.0005772472  -0.033498393194 0.03133146  0.00119050  0.0561881 0.0000
  3   -229.0533695336  -0.052792286423 0.01460473  0.00058545  0.0779579 0.0000
  4   -229.0636726170  -0.010303083340 0.00356794  0.00012094  0.0124367 0.0000
  5   -229.0640271779  -0.000354560962 0.00169738  0.00006718  0.0055137 0.0000
  6   -229.0640651915  -0.000038013584 0.00106817  0.00003232  0.0012074 0.0000
  7   -229.0640702814  -0.000005089893 0.00108069  0.00002993  0.0006869 0.0000
  8   -229.0640723754  -0.000002094009 0.00013586  0.00000600  0.0002185 0.0000
  9   -229.0640725263  -0.000000150944 0.00002597  0.00000079  0.0000486 0.0000
 10   -229.0640725341  -0.000000007794 0.00001110  0.00000037  0.0000155 0.0000
 11   -229.0640725351  -0.000000000984 0.00000541  0.00000017  0.0000050 0.0000
 12   -229.0640725354  -0.000000000259 0.00000545  0.00000011  0.0000029 0.0000
                 **** Energy Check signals convergence ****

               *****************************************************
               *                     SUCCESS                       *
               *           SCF CONVERGED AFTER  13 CYCLES          *
               *****************************************************


----------------
TOTAL SCF ENERGY
----------------

Total Energy       :         -229.06407254 Eh           -6233.15030 eV

Components:
Nuclear Repulsion  :          121.71521305 Eh            3312.03933 eV
Electronic Energy  :         -350.77928559 Eh           -9545.18963 eV
One Electron Energy:         -552.95535331 Eh          -15046.68012 eV
Two Electron Energy:          202.17606772 Eh            5501.49049 eV

Virial components:
Potential Energy   :         -457.43021748 Eh          -12447.30903 eV
Kinetic Energy     :          228.36614495 Eh            6214.15873 eV
Virial Ratio       :            2.00305618


DFT components:
N(Alpha)           :       15.999999536525 electrons
N(Beta)            :       15.999999536525 electrons
N(Total)           :       31.999999073050 electrons
E(XC)              :      -14.199560545111 Eh       
DFET-embed. en.    :        0.000000000000 Eh       

---------------
SCF CONVERGENCE
---------------

  Last Energy change         ...   -3.5584e-11  Tolerance :   1.0000e-08
  Last MAX-Density change    ...    5.9692e-06  Tolerance :   1.0000e-07
  Last RMS-Density change    ...    1.4526e-07  Tolerance :   5.0000e-09
  Last DIIS Error            ...    1.0151e-06  Tolerance :   5.0000e-07

             **** THE GBW FILE WAS UPDATED (acetic_acid.gbw) ****
             **** DENSITY FILE WAS UPDATED (acetic_acid.scfp) ****
             **** ENERGY FILE WAS UPDATED (acetic_acid.en.tmp) ****
----------------------
UHF SPIN CONTAMINATION
----------------------

Warning: in a DFT calculation there is little theoretical justification to 
         calculate <S**2> as in Hartree-Fock theory. We will do it anyways
         but you should keep in mind that the values have only limited relevance

Expectation value of <S**2>     :     0.000000
Ideal value S*(S+1) for S=0.0   :     0.000000
Deviation                       :     0.000000

             **** THE GBW FILE WAS UPDATED (acetic_acid.gbw) ****
             **** DENSITY FILE WAS UPDATED (acetic_acid.scfp) ****
----------------
ORBITAL ENERGIES
----------------
                 SPIN UP ORBITALS
  NO   OCC          E(Eh)            E(eV) 
   0   1.0000     -19.677250      -535.4452 
   1   1.0000     -19.622100      -533.9445 
   2   1.0000     -10.685624      -290.7706 
   3   1.0000     -10.553352      -287.1713 
   4   1.0000      -1.249822       -34.0094 
   5   1.0000      -1.152041       -31.3486 
   6   1.0000      -0.862797       -23.4779 
   7   1.0000      -0.710071       -19.3220 
   8   1.0000      -0.587095       -15.9757 
   9   1.0000      -0.574750       -15.6397 
  10   1.0000      -0.560736       -15.2584 
  11   1.0000      -0.485555       -13.2126 
  12   1.0000      -0.477556       -12.9950 
  13   1.0000      -0.470007       -12.7895 
  14   1.0000      -0.405452       -11.0329 
  15   1.0000      -0.364578        -9.9207 
  16   0.0000      -0.005277        -0.1436 
  17   0.0000       0.014142         0.3848 
  18   0.0000       0.025928         0.7055 
  19   0.0000       0.037877         1.0307 
  20   0.0000       0.050420         1.3720 
  21   0.0000       0.060628         1.6498 
  22   0.0000       0.078178         2.1273 
  23   0.0000       0.080678         2.1954 
  24   0.0000       0.097402         2.6504 
  25   0.0000       0.107399         2.9225 
  26   0.0000       0.112508         3.0615 
  27   0.0000       0.127589         3.4719 
  28   0.0000       0.140551         3.8246 
  29   0.0000       0.178532         4.8581 
  30   0.0000       0.204286         5.5589 
  31   0.0000       0.209559         5.7024 
  32   0.0000       0.224195         6.1007 
  33   0.0000       0.242352         6.5947 
  34   0.0000       0.262561         7.1446 
  35   0.0000       0.275078         7.4853 
  36   0.0000       0.294721         8.0198 
  37   0.0000       0.295034         8.0283 
  38   0.0000       0.313820         8.5395 
  39   0.0000       0.333490         9.0747 
  40   0.0000       0.345109         9.3909 
  41   0.0000       0.368416        10.0251 
  42   0.0000       0.408175        11.1070 
  43   0.0000       0.468221        12.7409 
  44   0.0000       0.478510        13.0209 
  45   0.0000       0.519953        14.1487 
  46   0.0000       0.559754        15.2317 
  47   0.0000       0.579919        15.7804 
  48   0.0000       0.588946        16.0260 
  49   0.0000       0.677934        18.4475 
  50   0.0000       0.693479        18.8705 
  51   0.0000       0.704063        19.1585 
  52   0.0000       0.742751        20.2113 
  53   0.0000       0.768397        20.9091 
  54   0.0000       0.887208        24.1421 
  55   0.0000       0.908566        24.7233 
  56   0.0000       1.043525        28.3958 
  57   0.0000       1.083280        29.4775 
  58   0.0000       1.108341        30.1595 
  59   0.0000       1.177150        32.0319 
  60   0.0000       1.195138        32.5214 
  61   0.0000       1.201435        32.6927 
  62   0.0000       1.256939        34.2031 
  63   0.0000       1.285874        34.9904 
  64   0.0000       1.322604        35.9899 
  65   0.0000       1.425006        38.7764 
  66   0.0000       1.487716        40.4828 
  67   0.0000       1.512904        41.1682 
  68   0.0000       1.536056        41.7982 
  69   0.0000       1.564133        42.5622 
  70   0.0000       1.593358        43.3575 
  71   0.0000       1.599080        43.5132 
  72   0.0000       1.608829        43.7785 
  73   0.0000       1.672694        45.5163 
  74   0.0000       1.796745        48.8919 
  75   0.0000       1.849474        50.3267 
  76   0.0000       1.874598        51.0104 
  77   0.0000       1.955257        53.2052 
  78   0.0000       2.022200        55.0269 
  79   0.0000       2.124243        57.8036 
  80   0.0000       2.146743        58.4158 
  81   0.0000       2.238578        60.9148 
  82   0.0000       2.389936        65.0335 
  83   0.0000       2.487932        67.7001 
  84   0.0000       2.532243        68.9058 
  85   0.0000       2.549423        69.3733 
  86   0.0000       2.570878        69.9571 
  87   0.0000       2.610880        71.0457 
  88   0.0000       2.620537        71.3084 
  89   0.0000       2.725676        74.1694 
  90   0.0000       2.884893        78.5019 
  91   0.0000       2.941137        80.0324 
  92   0.0000       2.973438        80.9114 
  93   0.0000       3.058998        83.2396 
  94   0.0000       3.124628        85.0254 
  95   0.0000       3.237410        88.0944 
  96   0.0000       3.241588        88.2081 
  97   0.0000       3.303695        89.8981 
  98   0.0000       3.429663        93.3259 
  99   0.0000       3.643308        99.1394 
 100   0.0000       3.708809       100.9218 
 101   0.0000       3.830087       104.2220 
 102   0.0000       3.831272       104.2542 
 103   0.0000       3.915340       106.5418 
 104   0.0000       4.089400       111.2782 
 105   0.0000       4.214246       114.6755 
 106   0.0000       5.061001       137.7168 
 107   0.0000       5.146798       140.0515 
 108   0.0000       5.274944       143.5385 
 109   0.0000       5.475945       149.0080 
 110   0.0000       5.698145       155.0544 
 111   0.0000       5.925825       161.2499 
 112   0.0000      23.894775       650.2099 
 113   0.0000      24.037461       654.0926 
 114   0.0000      49.969111      1359.7286 
 115   0.0000      50.106696      1363.4725 

                 SPIN DOWN ORBITALS
  NO   OCC          E(Eh)            E(eV) 
   0   1.0000     -19.677250      -535.4452 
   1   1.0000     -19.622100      -533.9445 
   2   1.0000     -10.685624      -290.7706 
   3   1.0000     -10.553352      -287.1713 
   4   1.0000      -1.249822       -34.0094 
   5   1.0000      -1.152041       -31.3486 
   6   1.0000      -0.862797       -23.4779 
   7   1.0000      -0.710071       -19.3220 
   8   1.0000      -0.587095       -15.9757 
   9   1.0000      -0.574750       -15.6397 
  10   1.0000      -0.560736       -15.2584 
  11   1.0000      -0.485555       -13.2126 
  12   1.0000      -0.477556       -12.9950 
  13   1.0000      -0.470007       -12.7895 
  14   1.0000      -0.405452       -11.0329 
  15   1.0000      -0.364578        -9.9207 
  16   0.0000      -0.005277        -0.1436 
  17   0.0000       0.014142         0.3848 
  18   0.0000       0.025928         0.7055 
  19   0.0000       0.037877         1.0307 
  20   0.0000       0.050420         1.3720 
  21   0.0000       0.060628         1.6498 
  22   0.0000       0.078178         2.1273 
  23   0.0000       0.080678         2.1954 
  24   0.0000       0.097402         2.6504 
  25   0.0000       0.107399         2.9225 
  26   0.0000       0.112508         3.0615 
  27   0.0000       0.127589         3.4719 
  28   0.0000       0.140551         3.8246 
  29   0.0000       0.178532         4.8581 
  30   0.0000       0.204286         5.5589 
  31   0.0000       0.209559         5.7024 
  32   0.0000       0.224195         6.1007 
  33   0.0000       0.242352         6.5947 
  34   0.0000       0.262561         7.1446 
  35   0.0000       0.275078         7.4853 
  36   0.0000       0.294721         8.0198 
  37   0.0000       0.295034         8.0283 
  38   0.0000       0.313820         8.5395 
  39   0.0000       0.333490         9.0747 
  40   0.0000       0.345109         9.3909 
  41   0.0000       0.368416        10.0251 
  42   0.0000       0.408175        11.1070 
  43   0.0000       0.468221        12.7409 
  44   0.0000       0.478510        13.0209 
  45   0.0000       0.519953        14.1487 
  46   0.0000       0.559754        15.2317 
  47   0.0000       0.579919        15.7804 
  48   0.0000       0.588946        16.0260 
  49   0.0000       0.677934        18.4475 
  50   0.0000       0.693479        18.8705 
  51   0.0000       0.704063        19.1585 
  52   0.0000       0.742751        20.2113 
  53   0.0000       0.768397        20.9091 
  54   0.0000       0.887208        24.1421 
  55   0.0000       0.908566        24.7233 
  56   0.0000       1.043525        28.3958 
  57   0.0000       1.083280        29.4775 
  58   0.0000       1.108341        30.1595 
  59   0.0000       1.177150        32.0319 
  60   0.0000       1.195138        32.5214 
  61   0.0000       1.201435        32.6927 
  62   0.0000       1.256939        34.2031 
  63   0.0000       1.285874        34.9904 
  64   0.0000       1.322604        35.9899 
  65   0.0000       1.425006        38.7764 
  66   0.0000       1.487716        40.4828 
  67   0.0000       1.512904        41.1682 
  68   0.0000       1.536056        41.7982 
  69   0.0000       1.564133        42.5622 
  70   0.0000       1.593358        43.3575 
  71   0.0000       1.599080        43.5132 
  72   0.0000       1.608829        43.7785 
  73   0.0000       1.672694        45.5163 
  74   0.0000       1.796745        48.8919 
  75   0.0000       1.849474        50.3267 
  76   0.0000       1.874598        51.0104 
  77   0.0000       1.955257        53.2052 
  78   0.0000       2.022200        55.0269 
  79   0.0000       2.124243        57.8036 
  80   0.0000       2.146743        58.4158 
  81   0.0000       2.238578        60.9148 
  82   0.0000       2.389936        65.0335 
  83   0.0000       2.487932        67.7001 
  84   0.0000       2.532243        68.9058 
  85   0.0000       2.549423        69.3733 
  86   0.0000       2.570878        69.9571 
  87   0.0000       2.610880        71.0457 
  88   0.0000       2.620537        71.3084 
  89   0.0000       2.725676        74.1694 
  90   0.0000       2.884893        78.5019 
  91   0.0000       2.941137        80.0324 
  92   0.0000       2.973438        80.9114 
  93   0.0000       3.058998        83.2396 
  94   0.0000       3.124628        85.0254 
  95   0.0000       3.237410        88.0944 
  96   0.0000       3.241588        88.2081 
  97   0.0000       3.303695        89.8981 
  98   0.0000       3.429663        93.3259 
  99   0.0000       3.643308        99.1394 
 100   0.0000       3.708809       100.9218 
 101   0.0000       3.830087       104.2220 
 102   0.0000       3.831272       104.2542 
 103   0.0000       3.915340       106.5418 
 104   0.0000       4.089400       111.2782 
 105   0.0000       4.214246       114.6755 
 106   0.0000       5.061001       137.7168 
 107   0.0000       5.146798       140.0515 
 108   0.0000       5.274944       143.5385 
 109   0.0000       5.475945       149.0080 
 110   0.0000       5.698145       155.0544 
 111   0.0000       5.925825       161.2499 
 112   0.0000      23.894775       650.2099 
 113   0.0000      24.037461       654.0926 
 114   0.0000      49.969111      1359.7286 
 115   0.0000      50.106696      1363.4725 
------------------
MOLECULAR ORBITALS
------------------
                      0         1         2         3         4         5   
                 -19.67725 -19.62210 -10.68562 -10.55335  -1.24982  -1.15204
                   1.00000   1.00000   1.00000   1.00000   1.00000   1.00000
                  --------  --------  --------  --------  --------  --------
  0C   1s        -0.000001  0.000003 -0.000883  0.564137  0.008641 -0.002620
  0C   2s         0.000011 -0.000019 -0.000686  0.463630  0.013712 -0.004116
  0C   1pz        0.000000  0.000000  0.000000  0.000000  0.000000 -0.000000
  0C   1px       -0.000013  0.000060  0.000244 -0.000114  0.003968 -0.006067
  0C   1py        0.000034 -0.000025 -0.000411  0.000395 -0.008882  0.000285
  0C   3s        -0.000099  0.000035 -0.000436  0.013339 -0.035275  0.010211
  0C   2pz       -0.000000 -0.000000 -0.000000 -0.000000  0.000000  0.000000
  0C   2px        0.000132 -0.000241 -0.000589  0.000643  0.008189 -0.008605
  0C   2py       -0.000260  0.000162  0.000919 -0.001203 -0.016895 -0.001955
  0C   4s         0.000569 -0.000807 -0.001761 -0.006521 -0.003779  0.006718
  0C   3pz       -0.000000 -0.000000 -0.000000  0.000000  0.000000 -0.000000
  0C   3px       -0.000404 -0.000473  0.000383  0.000264 -0.002333 -0.009818
  0C   3py       -0.000118 -0.000701 -0.000562 -0.000987 -0.000257 -0.004520
  0C   5s         0.004255  0.000183  0.002132 -0.020269  0.013108  0.015761
  0C   4pz        0.000000  0.000000  0.000000 -0.000000 -0.000000 -0.000000
  0C   4px       -0.000877  0.001018 -0.000044  0.000843 -0.010234  0.004815
  0C   4py        0.001051  0.000276  0.000135 -0.002476  0.004421  0.006339
  0C   1dz2       0.000036 -0.000038 -0.000441  0.000216  0.001462  0.000104
  0C   1dxz      -0.000000 -0.000000 -0.000000 -0.000000  0.000000  0.000000
  0C   1dyz      -0.000000 -0.000000  0.000000 -0.000000 -0.000000 -0.000000
  0C   1dx2y2     0.000117  0.000073 -0.000397  0.000258  0.002073  0.003478
  0C   1dxy       0.000083 -0.000200 -0.000502  0.000427  0.003741 -0.001482
  1C   1s         0.000003  0.000016 -0.564149 -0.000936  0.064621 -0.027976
  1C   2s        -0.000034 -0.000040 -0.463867 -0.000817  0.101597 -0.043138
  1C   1pz       -0.000000 -0.000000  0.000000 -0.000000  0.000000 -0.000000
  1C   1px        0.000114  0.000285 -0.000468  0.000238  0.018892 -0.106515
  1C   1py        0.000128 -0.000032 -0.000857 -0.000424 -0.040450 -0.024765
  1C   3s         0.000313 -0.000241 -0.012147  0.000450 -0.263617  0.114335
  1C   2pz        0.000000  0.000000 -0.000000  0.000000  0.000000 -0.000000
  1C   2px       -0.000041 -0.000645  0.001757 -0.000479  0.013250 -0.137423
  1C   2py       -0.000009  0.000097  0.000188  0.000749 -0.063701 -0.038257
  1C   4s         0.000159 -0.001749  0.007262 -0.000150 -0.078488  0.020555
  1C   3pz       -0.000000 -0.000000  0.000000  0.000000  0.000000 -0.000000
  1C   3px        0.001467  0.003472  0.001119  0.000873 -0.002898  0.008453
  1C   3py        0.001194 -0.000394 -0.000813 -0.001667  0.005084  0.004243
  1C   5s        -0.007321  0.001940  0.003482  0.010400 -0.070700 -0.020358
  1C   4pz        0.000000 -0.000000 -0.000000  0.000000  0.000000  0.000000
  1C   4px       -0.001807 -0.000769  0.000559  0.001170 -0.009263 -0.024264
  1C   4py        0.000767 -0.000357  0.001314 -0.003759 -0.004829 -0.005591
  1C   1dz2      -0.000050 -0.000112  0.001017  0.000128  0.016393 -0.004350
  1C   1dxz       0.000000  0.000000  0.000000  0.000000  0.000000  0.000000
  1C   1dyz      -0.000000 -0.000000 -0.000000 -0.000000 -0.000000  0.000000
  1C   1dx2y2    -0.000012  0.000526 -0.000952  0.000335 -0.004538  0.021494
  1C   1dxy      -0.000232 -0.000075  0.000238  0.000436 -0.012763 -0.017172
  2H   1s         0.000042 -0.000001  0.000072  0.000373 -0.003282 -0.000137
  2H   2s        -0.000298  0.000159  0.000597 -0.002682 -0.005272 -0.000972
  2H   3s         0.000190 -0.000250 -0.000625  0.003990  0.004953 -0.000026
  2H   4s         0.000647 -0.000575 -0.000495  0.001579  0.009959  0.001303
  2H   1pz        0.000066 -0.000058 -0.000233  0.001308  0.001043  0.000313
  2H   1px        0.000071  0.000046 -0.000119  0.000903  0.000631  0.000500
  2H   1py       -0.000062 -0.000010 -0.000064  0.000012 -0.000658 -0.000329
  3H   1s         0.000042 -0.000001  0.000072  0.000373 -0.003282 -0.000137
  3H   2s        -0.000298  0.000159  0.000597 -0.002682 -0.005272 -0.000972
  3H   3s         0.000190 -0.000250 -0.000625  0.003990  0.004953 -0.000026
  3H   4s         0.000647 -0.000575 -0.000495  0.001579  0.009959  0.001303
  3H   1pz       -0.000066  0.000058  0.000233 -0.001308 -0.001043 -0.000313
  3H   1px        0.000071  0.000046 -0.000119  0.000903  0.000631  0.000500
  3H   1py       -0.000062 -0.000010 -0.000064  0.000012 -0.000658 -0.000329
  4H   1s        -0.000012  0.000036  0.000032  0.000386 -0.003217  0.003626
  4H   2s        -0.000209 -0.000094  0.000533 -0.002895 -0.005192 -0.000249
  4H   3s        -0.000130 -0.000139 -0.000094  0.003617  0.000452 -0.001224
  4H   4s        -0.000596  0.000552  0.000030  0.000408 -0.008856 -0.002358
  4H   1pz       -0.000000  0.000000  0.000000 -0.000000 -0.000000 -0.000000
  4H   1px       -0.000061  0.000013  0.000141 -0.001132 -0.000833 -0.000207
  4H   1py       -0.000012  0.000054  0.000149 -0.001199 -0.001399  0.000497
  5O   1s        -0.000131 -0.552874  0.000136  0.000004  0.056414 -0.089801
  5O   2s        -0.000092 -0.469490  0.000132  0.000023  0.092547 -0.147561
  5O   1pz        0.000000  0.000000 -0.000000  0.000000  0.000000  0.000000
  5O   1px        0.000023 -0.001410 -0.000570  0.000035 -0.044704  0.057011
  5O   1py        0.000003  0.000059  0.000070 -0.000021 -0.000953 -0.010045
  5O   3s        -0.000137 -0.009003 -0.000434 -0.000123 -0.262441  0.418604
  5O   2pz       -0.000000 -0.000000  0.000000 -0.000000  0.000000 -0.000000
  5O   2px       -0.000124 -0.000196  0.001223 -0.000232 -0.068833  0.084520
  5O   2py       -0.000017  0.000053 -0.000157  0.000117 -0.001630 -0.015236
  5O   4s         0.000406  0.005902  0.003745 -0.000051 -0.175997  0.306697
  5O   3pz        0.000000 -0.000000 -0.000000  0.000000  0.000000  0.000000
  5O   3px        0.000100  0.000922  0.001720  0.000051 -0.023726  0.032861
  5O   3py       -0.000337 -0.000102 -0.000006  0.000134 -0.004002 -0.007009
  5O   5s         0.000887 -0.000788 -0.003808  0.001438  0.027419 -0.018203
  5O   4pz       -0.000000  0.000000  0.000000 -0.000000 -0.000000 -0.000000
  5O   4px        0.000361  0.000571 -0.001949  0.000806  0.005858  0.001543
  5O   4py       -0.000194  0.000037  0.000280  0.000308 -0.000930  0.000228
  5O   1dz2       0.000005  0.000133 -0.000442  0.000023  0.004788 -0.006339
  5O   1dxz      -0.000000  0.000000  0.000000  0.000000  0.000000 -0.000000
  5O   1dyz       0.000000  0.000000 -0.000000  0.000000 -0.000000  0.000000
  5O   1dx2y2    -0.000042 -0.000173  0.000658 -0.000067 -0.010423  0.012770
  5O   1dxy      -0.000074  0.000036 -0.000135  0.000085 -0.000212 -0.004389
  6O   1s         0.552882 -0.000134  0.000058  0.000005  0.086237  0.070762
  6O   2s         0.469479 -0.000134  0.000116  0.000018  0.141733  0.116582
  6O   1pz       -0.000000  0.000000 -0.000000 -0.000000  0.000000  0.000000
  6O   1px       -0.001403  0.000024  0.000180 -0.000035  0.041820  0.019787
  6O   1py        0.000099  0.000025  0.000228 -0.000027  0.011616 -0.002234
  6O   3s         0.008900  0.000084 -0.000710 -0.000056 -0.405663 -0.335054
  6O   2pz        0.000000 -0.000000  0.000000  0.000000  0.000000  0.000000
  6O   2px        0.000198 -0.000107 -0.000068  0.000166  0.067577  0.033332
  6O   2py       -0.000092 -0.000121 -0.000052  0.000139  0.017328 -0.003369
  6O   4s        -0.005156 -0.000040  0.001733 -0.000245 -0.286646 -0.258999
  6O   3pz       -0.000000  0.000000 -0.000000 -0.000000  0.000000  0.000000
  6O   3px        0.000224 -0.000456 -0.000661 -0.000281  0.027169  0.010997
  6O   3py        0.000895  0.000555 -0.000200  0.000009  0.010328  0.008585
  6O   5s         0.004052 -0.001021 -0.005473  0.000776  0.054789  0.023628
  6O   4pz        0.000000 -0.000000  0.000000  0.000000  0.000000 -0.000000
  6O   4px       -0.000172  0.000180  0.001170  0.000540 -0.007146 -0.000083
  6O   4py       -0.000233  0.000300  0.001054 -0.001202 -0.007840 -0.004255
  6O   1dz2      -0.000089 -0.000048 -0.000267  0.000026  0.008114  0.005461
  6O   1dxz      -0.000000 -0.000000  0.000000 -0.000000 -0.000000 -0.000000
  6O   1dyz      -0.000000 -0.000000 -0.000000 -0.000000 -0.000000 -0.000000
  6O   1dx2y2    -0.000064  0.000052 -0.000132  0.000031  0.000971  0.004021
  6O   1dxy      -0.000070  0.000055  0.000210 -0.000059 -0.002946  0.000191
  7H   1s         0.000097  0.000006  0.000049 -0.000028 -0.064186 -0.055977
  7H   2s        -0.000112 -0.000354 -0.000617  0.000067 -0.048368 -0.047935
  7H   3s        -0.000901  0.000212  0.001796  0.001206 -0.007607  0.001167
  7H   4s         0.000329 -0.000153 -0.001469  0.000747  0.007571  0.001841
  7H   1pz       -0.000000  0.000000  0.000000 -0.000000 -0.000000 -0.000000
  7H   1px       -0.000277 -0.000110 -0.000032 -0.000001 -0.006340 -0.008480
  7H   1py        0.000302  0.000028  0.000223 -0.000062  0.015939  0.012463
                      6         7         8         9        10        11   
                  -0.86280  -0.71007  -0.58710  -0.57475  -0.56074  -0.48556
                   1.00000   1.00000   1.00000   1.00000   1.00000   1.00000
                  --------  --------  --------  --------  --------  --------
  0C   1s        -0.093256 -0.044030  0.003805  0.017239 -0.000000  0.002451
  0C   2s        -0.149635 -0.071175  0.006151  0.027973 -0.000000  0.004133
  0C   1pz       -0.000000  0.000000  0.000000 -0.000000 -0.100805 -0.000000
  0C   1px       -0.006961  0.009057 -0.060113 -0.080575  0.000000  0.154979
  0C   1py        0.020898 -0.053588  0.009701  0.079737  0.000000  0.058148
  0C   3s         0.383321  0.182234 -0.013421 -0.068349  0.000000 -0.013898
  0C   2pz       -0.000000  0.000000  0.000000 -0.000000 -0.153444 -0.000000
  0C   2px       -0.015937  0.016149 -0.088078 -0.124139  0.000000  0.231569
  0C   2py        0.039336 -0.079740  0.018033  0.123553  0.000000  0.080559
  0C   4s         0.242356  0.172471 -0.008169 -0.159239  0.000000 -0.018226
  0C   3pz       -0.000000  0.000000  0.000000 -0.000000 -0.091644 -0.000000
  0C   3px        0.002794  0.001359 -0.058153 -0.045522  0.000000  0.175207
  0C   3py        0.006260 -0.031493  0.004064  0.049061 -0.000000  0.069140
  0C   5s         0.106473  0.003609 -0.031168 -0.175350  0.000001  0.040969
  0C   4pz        0.000000 -0.000000  0.000000  0.000000  0.033472 -0.000000
  0C   4px       -0.006155  0.004200 -0.012194  0.042721 -0.000000 -0.001433
  0C   4py        0.021933  0.001363 -0.020022 -0.016165  0.000000  0.010375
  0C   1dz2      -0.003616  0.004294 -0.004525 -0.011302  0.000000  0.015043
  0C   1dxz      -0.000000  0.000000  0.000000 -0.000000 -0.004743 -0.000000
  0C   1dyz      -0.000000 -0.000000  0.000000  0.000000 -0.009867 -0.000000
  0C   1dx2y2    -0.004071  0.006829 -0.001413 -0.005987  0.000000  0.009735
  0C   1dxy      -0.005599  0.006856 -0.004275 -0.013298  0.000000 -0.009137
  1C   1s        -0.042057  0.050017 -0.047816 -0.011995  0.000000 -0.003346
  1C   2s        -0.068528  0.082205 -0.078647 -0.019439  0.000000 -0.004992
  1C   1pz       -0.000000  0.000000  0.000000 -0.000000 -0.141181  0.000000
  1C   1px        0.063438 -0.063999 -0.086581  0.005186 -0.000000 -0.086856
  1C   1py       -0.060952 -0.059728 -0.020934 -0.151099  0.000000  0.001117
  1C   3s         0.190693 -0.238391  0.241468  0.053703 -0.000000  0.017872
  1C   2pz       -0.000000  0.000000  0.000000 -0.000000 -0.233885  0.000000
  1C   2px        0.092306 -0.097553 -0.133267  0.001724 -0.000000 -0.132061
  1C   2py       -0.089840 -0.099695 -0.026464 -0.233524  0.000000 -0.000390
  1C   4s         0.135369 -0.187805  0.207865  0.051526  0.000000  0.021857
  1C   3pz       -0.000000 -0.000000  0.000000 -0.000000 -0.135822  0.000000
  1C   3px        0.032571 -0.031389 -0.083888  0.046863  0.000000 -0.005070
  1C   3py       -0.026109 -0.023977  0.000240 -0.163310  0.000000  0.004157
  1C   5s        -0.068484 -0.025295  0.032270  0.139468 -0.000000 -0.009754
  1C   4pz       -0.000000  0.000000  0.000000 -0.000000 -0.032850  0.000000
  1C   4px       -0.002832 -0.004038  0.005663  0.031991 -0.000000  0.019541
  1C   4py        0.023679 -0.015196 -0.003278 -0.089932  0.000000  0.008836
  1C   1dz2      -0.005213  0.008405 -0.004084  0.004386 -0.000000 -0.000606
  1C   1dxz      -0.000000  0.000000  0.000000  0.000000  0.003140 -0.000000
  1C   1dyz       0.000000 -0.000000  0.000000 -0.000000 -0.014314  0.000000
  1C   1dx2y2    -0.000953 -0.008045 -0.012207  0.021025 -0.000000  0.034219
  1C   1dxy      -0.002344 -0.017860 -0.009140  0.014563 -0.000000 -0.019454
  2H   1s         0.068642  0.046350 -0.032506 -0.059852 -0.065754  0.076479
  2H   2s         0.077664  0.051727 -0.042180 -0.073630 -0.088482  0.103974
  2H   3s        -0.014880  0.003145 -0.005455 -0.023898 -0.027273  0.034531
  2H   4s        -0.004596 -0.001435  0.006061 -0.013403 -0.029316 -0.000393
  2H   1pz       -0.010388 -0.005329  0.004068  0.006325  0.003178 -0.008078
  2H   1px       -0.008212 -0.003476  0.000171  0.000546  0.006440  0.002156
  2H   1py        0.001818 -0.002523 -0.000660  0.003563 -0.001352  0.003820
  3H   1s         0.068642  0.046350 -0.032506 -0.059852  0.065754  0.076479
  3H   2s         0.077664  0.051727 -0.042180 -0.073630  0.088482  0.103974
  3H   3s        -0.014880  0.003145 -0.005455 -0.023898  0.027273  0.034531
  3H   4s        -0.004596 -0.001435  0.006061 -0.013403  0.029316 -0.000393
  3H   1pz        0.010388  0.005329 -0.004068 -0.006325  0.003178  0.008078
  3H   1px       -0.008212 -0.003476  0.000171  0.000546 -0.006440  0.002156
  3H   1py        0.001818 -0.002523 -0.000660  0.003563  0.001352  0.003820
  4H   1s         0.065156  0.063406  0.017754 -0.026063 -0.000000 -0.129905
  4H   2s         0.072812  0.072687  0.020323 -0.024017 -0.000000 -0.174661
  4H   3s        -0.009638  0.004346 -0.002909  0.008544 -0.000000 -0.062375
  4H   4s         0.007184  0.004257 -0.014849  0.026019 -0.000000 -0.011171
  4H   1pz        0.000000  0.000000  0.000000 -0.000000 -0.005278 -0.000000
  4H   1px        0.007922  0.006514 -0.000506 -0.005857 -0.000000 -0.004070
  4H   1py        0.010086  0.005975  0.003158  0.003284 -0.000000 -0.011352
  5O   1s         0.022847 -0.017017  0.052677  0.000421  0.000000  0.011740
  5O   2s         0.038017 -0.028429  0.087678  0.000929  0.000000  0.019689
  5O   1pz       -0.000000  0.000000  0.000000 -0.000000 -0.113739  0.000000
  5O   1px        0.002759 -0.027741  0.177310 -0.007864  0.000000  0.127650
  5O   1py       -0.017626 -0.016514 -0.027158 -0.119296  0.000000  0.003594
  5O   3s        -0.111789  0.083885 -0.257904 -0.005502 -0.000000 -0.059822
  5O   2pz       -0.000000  0.000000  0.000000 -0.000000 -0.172490  0.000000
  5O   2px        0.001719 -0.038183  0.254305 -0.014997  0.000000  0.179272
  5O   2py       -0.025885 -0.025883 -0.041261 -0.174710  0.000000  0.005894
  5O   4s        -0.099085  0.096211 -0.379294  0.013259 -0.000000 -0.105174
  5O   3pz       -0.000000  0.000000  0.000000 -0.000000 -0.129956  0.000000
  5O   3px        0.002534 -0.020490  0.138552 -0.003261  0.000000  0.124472
  5O   3py       -0.014163 -0.016329 -0.026349 -0.128492  0.000000  0.007492
  5O   5s        -0.008885  0.020910 -0.115291  0.015819  0.000000 -0.002677
  5O   4pz        0.000000  0.000000 -0.000000  0.000000  0.009905  0.000000
  5O   4px       -0.008977  0.005969 -0.012381 -0.002386  0.000000  0.016121
  5O   4py        0.003308  0.001693  0.003248  0.011824 -0.000000 -0.004679
  5O   1dz2       0.000670  0.000354 -0.009499  0.000656 -0.000000 -0.005136
  5O   1dxz      -0.000000  0.000000  0.000000 -0.000000 -0.016876  0.000000
  5O   1dyz       0.000000 -0.000000 -0.000000  0.000000  0.001312 -0.000000
  5O   1dx2y2    -0.001978 -0.002510  0.013611 -0.002926  0.000000  0.010057
  5O   1dxy      -0.003158 -0.004305 -0.005201 -0.013880  0.000000 -0.000742
  6O   1s         0.015197 -0.013908  0.022380 -0.023572  0.000000 -0.007403
  6O   2s         0.025265 -0.023068  0.037565 -0.039265  0.000000 -0.012399
  6O   1pz       -0.000000  0.000000  0.000000 -0.000000 -0.148907  0.000000
  6O   1px        0.011942  0.022482 -0.101313  0.147725 -0.000000  0.104268
  6O   1py       -0.063486  0.191574  0.077258  0.034836  0.000000  0.027080
  6O   3s        -0.074522  0.066915 -0.114118  0.115960 -0.000000  0.036608
  6O   2pz       -0.000000  0.000000  0.000000 -0.000000 -0.223717  0.000000
  6O   2px        0.018832  0.032622 -0.148568  0.218907 -0.000000  0.152686
  6O   2py       -0.093965  0.283759  0.114621  0.054207  0.000000  0.039624
  6O   4s        -0.070911  0.074919 -0.145427  0.176519 -0.000000  0.059144
  6O   3pz       -0.000000  0.000000  0.000000 -0.000000 -0.189941  0.000000
  6O   3px        0.012901  0.018066 -0.112831  0.153283 -0.000000  0.127540
  6O   3py       -0.047558  0.168027  0.080225  0.034920  0.000000  0.037157
  6O   5s        -0.022105  0.054553 -0.021322  0.072156 -0.000000 -0.014868
  6O   4pz       -0.000000 -0.000000  0.000000 -0.000000 -0.001683  0.000000
  6O   4px       -0.002663 -0.011230 -0.000031 -0.011687  0.000000  0.009226
  6O   4py        0.020286 -0.005895 -0.012520  0.024186 -0.000000  0.028204
  6O   1dz2       0.000833  0.000395 -0.003903  0.006049 -0.000000  0.003550
  6O   1dxz       0.000000 -0.000000 -0.000000  0.000000  0.013391 -0.000000
  6O   1dyz       0.000000 -0.000000 -0.000000  0.000000  0.006471 -0.000000
  6O   1dx2y2    -0.003134 -0.001444  0.007408 -0.012176  0.000000 -0.003781
  6O   1dxy       0.006495 -0.021438 -0.006043 -0.006609 -0.000000 -0.002468
  7H   1s        -0.051698  0.123571  0.070019 -0.014522  0.000000 -0.017864
  7H   2s        -0.053964  0.151615  0.093406 -0.028919  0.000000 -0.028426
  7H   3s        -0.013708  0.014585  0.040280 -0.030945  0.000000 -0.023218
  7H   4s        -0.010899  0.017267  0.003023  0.019126 -0.000000 -0.005065
  7H   1pz        0.000000  0.000000  0.000000 -0.000000 -0.014837  0.000000
  7H   1px       -0.005868  0.019089  0.001263  0.012574 -0.000000  0.006186
  7H   1py        0.008408 -0.013416 -0.012766  0.013356 -0.000000  0.008962
                     12        13        14        15        16        17   
                  -0.47756  -0.47001  -0.40545  -0.36458  -0.00528   0.01414
                   1.00000   1.00000   1.00000   1.00000   0.00000   0.00000
                  --------  --------  --------  --------  --------  --------
  0C   1s         0.003427  0.000000  0.000000 -0.012705 -0.021753 -0.011389
  0C   2s         0.005663  0.000000  0.000000 -0.020737 -0.036834 -0.019508
  0C   1pz        0.000001 -0.173354  0.022918  0.000000  0.000000  0.000000
  0C   1px       -0.036171 -0.000000  0.000000 -0.072654  0.010147  0.016193
  0C   1py       -0.145961 -0.000001  0.000000  0.063657 -0.003866 -0.031073
  0C   3s        -0.020297 -0.000000 -0.000000  0.057689  0.112865  0.067185
  0C   2pz        0.000002 -0.260512  0.030254  0.000000  0.000000  0.000000
  0C   2px       -0.055364 -0.000001  0.000000 -0.112720  0.012471  0.018306
  0C   2py       -0.225241 -0.000001  0.000000  0.084493 -0.001395 -0.043812
  0C   4s        -0.004260 -0.000000  0.000000  0.144601  0.297217  0.110033
  0C   3pz        0.000001 -0.208333  0.021125  0.000000 -0.000000 -0.000000
  0C   3px       -0.037698 -0.000001  0.000000 -0.113265  0.013487  0.070186
  0C   3py       -0.146249 -0.000001  0.000000  0.091579  0.024703 -0.051703
  0C   5s        -0.031138 -0.000001  0.000001  0.233100  5.723753  3.955957
  0C   4pz       -0.000000  0.002225 -0.026497  0.000000  0.000003  0.000001
  0C   4px        0.002273  0.000000 -0.000000 -0.039719 -0.100500  0.177648
  0C   4py       -0.005865 -0.000000  0.000000  0.037032  0.505434  0.285446
  0C   1dz2      -0.003250 -0.000000  0.000000 -0.003269 -0.001985 -0.002620
  0C   1dxz       0.000000 -0.022597  0.006671  0.000000 -0.000000  0.000000
  0C   1dyz      -0.000000  0.001720 -0.003098  0.000000  0.000000  0.000000
  0C   1dx2y2     0.006252  0.000000 -0.000000 -0.000880 -0.000405 -0.001330
  0C   1dxy       0.016458  0.000000 -0.000000  0.002096 -0.002996  0.002125
  1C   1s         0.013165  0.000000 -0.000000 -0.008775  0.004099  0.000860
  1C   2s         0.022212  0.000000 -0.000000 -0.014679  0.006575  0.001335
  1C   1pz       -0.000000  0.048841 -0.067650  0.000000  0.000000  0.000000
  1C   1px       -0.095516 -0.000000  0.000000  0.019919 -0.007476 -0.000483
  1C   1py        0.069405  0.000000 -0.000000 -0.037297 -0.004317  0.015936
  1C   3s        -0.059026 -0.000000  0.000000  0.038686 -0.004214 -0.000995
  1C   2pz       -0.000001  0.080227 -0.108744  0.000000  0.000000  0.000000
  1C   2px       -0.144106 -0.000001  0.000000  0.032783 -0.012166  0.010445
  1C   2py        0.100844  0.000001 -0.000000 -0.066021 -0.013601  0.021876
  1C   4s        -0.086560 -0.000001 -0.000000  0.088596 -0.182087 -0.021782
  1C   3pz       -0.000000  0.063871 -0.083826 -0.000000 -0.000000  0.000000
  1C   3px       -0.060287 -0.000000 -0.000000  0.070868  0.023189 -0.057131
  1C   3py        0.036831  0.000000 -0.000000  0.083659  0.041954  0.052507
  1C   5s         0.018158  0.000001 -0.000001 -0.119018 -2.071960 -1.797099
  1C   4pz       -0.000000  0.016734 -0.007918 -0.000000 -0.000001 -0.000000
  1C   4px        0.019349  0.000000 -0.000000  0.012304 -0.220658 -0.276184
  1C   4py       -0.006968 -0.000000  0.000000  0.152440  1.129365 -0.525953
  1C   1dz2      -0.003470 -0.000000  0.000000  0.002903 -0.008252 -0.001958
  1C   1dxz       0.000000 -0.009606  0.059462  0.000000  0.000000  0.000000
  1C   1dyz      -0.000000  0.029178  0.014566 -0.000000 -0.000000 -0.000000
  1C   1dx2y2     0.021331  0.000000  0.000000 -0.007838 -0.003905  0.007452
  1C   1dxy       0.013189  0.000000  0.000000 -0.071507 -0.002524  0.009371
  2H   1s        -0.013269 -0.127636  0.021264 -0.032287  0.003558  0.001142
  2H   2s        -0.018343 -0.173543  0.038537 -0.055960  0.005005  0.007604
  2H   3s        -0.008109 -0.071605  0.034047 -0.028470 -0.270496 -0.290099
  2H   4s        -0.004295 -0.024802  0.029025 -0.014229 -1.339489 -1.240676
  2H   1pz        0.001899  0.004383 -0.001340  0.004971 -0.008197 -0.006658
  2H   1px       -0.000579  0.010141 -0.002724 -0.001393 -0.004649 -0.004151
  2H   1py       -0.006847 -0.000821  0.002320  0.004219 -0.000703  0.000344
  3H   1s        -0.013271  0.127636 -0.021264 -0.032287  0.003558  0.001142
  3H   2s        -0.018346  0.173542 -0.038537 -0.055960  0.005005  0.007605
  3H   3s        -0.008110  0.071604 -0.034048 -0.028470 -0.270496 -0.290101
  3H   4s        -0.004296  0.024802 -0.029025 -0.014229 -1.339481 -1.240668
  3H   1pz       -0.001899  0.004382 -0.001340 -0.004971  0.008197  0.006658
  3H   1px       -0.000579 -0.010141  0.002724 -0.001393 -0.004649 -0.004151
  3H   1py       -0.006847  0.000820 -0.002320  0.004219 -0.000703  0.000344
  4H   1s         0.117629  0.000001 -0.000000  0.011738 -0.001778  0.010757
  4H   2s         0.163193  0.000001 -0.000000 -0.000400  0.002460  0.023574
  4H   3s         0.065707  0.000001 -0.000000 -0.003286 -0.234919 -0.119207
  4H   4s         0.015072  0.000000 -0.000000  0.013047 -0.601960 -1.111770
  4H   1pz        0.000000 -0.008468  0.000694  0.000000  0.000000  0.000000
  4H   1px        0.008983  0.000000 -0.000000 -0.002074  0.005381  0.005104
  4H   1py        0.003676  0.000000 -0.000000 -0.000839  0.005681  0.006154
  5O   1s         0.009675  0.000000  0.000000  0.001742 -0.008081  0.001266
  5O   2s         0.016091  0.000000  0.000000  0.003140 -0.013872  0.002256
  5O   1pz       -0.000000  0.063589 -0.208035 -0.000000 -0.000000 -0.000000
  5O   1px        0.108357  0.000000 -0.000000  0.017892  0.000504  0.004977
  5O   1py        0.005878  0.000000 -0.000000  0.262584  0.010808 -0.029729
  5O   3s        -0.047812 -0.000000  0.000000 -0.013335  0.046648 -0.009436
  5O   2pz       -0.000001  0.095275 -0.309994 -0.000000 -0.000000 -0.000000
  5O   2px        0.154923  0.000001 -0.000000  0.024599  0.000583  0.007215
  5O   2py        0.012475  0.000000 -0.000000  0.387716  0.014262 -0.042561
  5O   4s        -0.093132 -0.000000 -0.000000  0.006648  0.076082 -0.005529
  5O   3pz       -0.000001  0.078465 -0.282348 -0.000000 -0.000000 -0.000000
  5O   3px        0.104455  0.000000 -0.000000  0.035628  0.025292  0.004243
  5O   3py        0.007145  0.000000 -0.000000  0.361830  0.022563 -0.054883
  5O   5s        -0.034919 -0.000000  0.000000  0.045374  0.244554 -0.184419
  5O   4pz       -0.000000  0.002715 -0.035410 -0.000000  0.000000  0.000000
  5O   4px        0.001179 -0.000000  0.000000  0.008405 -0.012972 -0.093801
  5O   4py       -0.005119 -0.000000 -0.000000  0.038369 -0.060697  0.018157
  5O   1dz2      -0.005134 -0.000000  0.000000  0.000093 -0.001160 -0.000493
  5O   1dxz      -0.000000  0.007362 -0.018326 -0.000000  0.000000  0.000000
  5O   1dyz       0.000000 -0.000022  0.001652 -0.000000 -0.000000 -0.000000
  5O   1dx2y2     0.009646  0.000000 -0.000000  0.000933  0.001846 -0.000140
  5O   1dxy       0.003132  0.000000 -0.000000  0.014513 -0.000163 -0.000716
  6O   1s        -0.027680 -0.000000  0.000000  0.006494 -0.015254  0.009646
  6O   2s        -0.046515 -0.000000  0.000000  0.010806 -0.026112  0.016493
  6O   1pz       -0.000001  0.136127  0.200224 -0.000000  0.000000 -0.000000
  6O   1px        0.136232  0.000001 -0.000000  0.099769 -0.010291  0.015662
  6O   1py       -0.075386 -0.000000  0.000000  0.053154  0.024529 -0.043036
  6O   3s         0.141352  0.000001 -0.000000 -0.031464  0.086425 -0.053257
  6O   2pz       -0.000001  0.204251  0.297102 -0.000000  0.000000 -0.000000
  6O   2px        0.198790  0.000001 -0.000000  0.148214 -0.017794  0.023469
  6O   2py       -0.110674 -0.000001  0.000000  0.071240  0.038880 -0.065668
  6O   4s         0.220843  0.000001 -0.000000 -0.091354  0.151740 -0.108824
  6O   3pz       -0.000001  0.185564  0.296059 -0.000000 -0.000000 -0.000000
  6O   3px        0.162014  0.000001 -0.000000  0.158164 -0.029767  0.050972
  6O   3py       -0.086529 -0.000001  0.000000  0.079300  0.022424 -0.069119
  6O   5s         0.063657  0.000000  0.000000 -0.158790  0.152906  0.001951
  6O   4pz       -0.000000  0.018370  0.065268 -0.000000  0.000000 -0.000000
  6O   4px        0.014636  0.000000 -0.000000  0.043999 -0.013185 -0.118540
  6O   4py       -0.018839 -0.000000  0.000000  0.031218  0.259939 -0.102694
  6O   1dz2       0.006345  0.000000 -0.000000  0.001888 -0.001330  0.000514
  6O   1dxz       0.000000 -0.010604 -0.009664  0.000000 -0.000000 -0.000000
  6O   1dyz       0.000000 -0.001937  0.001065 -0.000000 -0.000000 -0.000000
  6O   1dx2y2    -0.002361 -0.000000 -0.000000 -0.007612  0.000745 -0.001422
  6O   1dxy       0.008097  0.000000 -0.000000 -0.001608  0.000130  0.001061
  7H   1s        -0.091313 -0.000001  0.000000  0.001317 -0.008001  0.004614
  7H   2s        -0.145732 -0.000001  0.000000  0.024261 -0.046251  0.069659
  7H   3s        -0.046583  0.000000 -0.000000  0.035114 -0.223659 -0.001626
  7H   4s         0.000653 -0.000000 -0.000000 -0.045504 -1.300928  1.936852
  7H   1pz       -0.000000  0.015097  0.019733 -0.000000 -0.000000 -0.000000
  7H   1px       -0.000522 -0.000000  0.000000  0.005164  0.006642 -0.006482
  7H   1py        0.016799  0.000000 -0.000000  0.004283 -0.013228  0.015034
                     18        19        20        21        22        23   
                   0.02593   0.03788   0.05042   0.06063   0.07818   0.08068
                   0.00000   0.00000   0.00000   0.00000   0.00000   0.00000
                  --------  --------  --------  --------  --------  --------
  0C   1s         0.000000  0.001840  0.000000  0.003617 -0.000420  0.000000
  0C   2s         0.000000  0.003336  0.000000  0.006117 -0.001108  0.000000
  0C   1pz        0.043621 -0.000000  0.017225 -0.000000 -0.000000  0.020097
  0C   1px       -0.000000  0.043662 -0.000000 -0.006791  0.004881  0.000000
  0C   1py        0.000000  0.023751 -0.000000 -0.015442  0.010353  0.000000
  0C   3s        -0.000001 -0.014047 -0.000000 -0.018692  0.005304 -0.000000
  0C   2pz        0.089939 -0.000000  0.040073 -0.000000 -0.000000  0.046458
  0C   2px       -0.000000  0.092166 -0.000000 -0.009357 -0.004884 -0.000000
  0C   2py        0.000000  0.047164  0.000000 -0.018166  0.022034  0.000000
  0C   4s         0.000002  0.019166  0.000001  0.037957 -0.095279  0.000001
  0C   3pz        0.028856 -0.000000 -0.110054 -0.000000 -0.000000  0.025398
  0C   3px        0.000000  0.003518  0.000000  0.006791  0.035223  0.000000
  0C   3py       -0.000001  0.015599 -0.000000  0.025287 -0.015551 -0.000000
  0C   5s         0.000187  1.130482  0.000154  9.871959 -4.273821  0.000123
  0C   4pz        1.331302  0.000001  0.491418  0.000002  0.000012 -1.352739
  0C   4px       -0.000026  1.088808 -0.000024 -2.395586 -0.155648 -0.000018
  0C   4py        0.000037  0.888922  0.000033  2.907715  0.972628  0.000043
  0C   1dz2       0.000000 -0.000459  0.000000  0.019448  0.009455  0.000000
  0C   1dxz      -0.014983 -0.000000  0.031106 -0.000000 -0.000000  0.007796
  0C   1dyz       0.013688 -0.000000 -0.025155  0.000000 -0.000000 -0.000567
  0C   1dx2y2     0.000000 -0.001996  0.000000  0.010608  0.007470  0.000000
  0C   1dxy      -0.000000  0.003554 -0.000000  0.008117  0.017375  0.000000
  1C   1s         0.000000 -0.000995  0.000000  0.009048  0.007016  0.000000
  1C   2s         0.000000 -0.001265  0.000000  0.017191  0.012142  0.000000
  1C   1pz        0.111479 -0.000000 -0.196525  0.000000  0.000000 -0.074907
  1C   1px       -0.000000 -0.002075 -0.000000 -0.027431  0.003314  0.000000
  1C   1py        0.000000  0.004521 -0.000000  0.019622  0.037548  0.000000
  1C   3s        -0.000000 -0.004356 -0.000000 -0.098688 -0.046580 -0.000000
  1C   2pz        0.181072 -0.000000 -0.317755  0.000000  0.000001 -0.102259
  1C   2px       -0.000000  0.004841 -0.000000 -0.034171 -0.002557 -0.000000
  1C   2py       -0.000000  0.012439 -0.000000  0.011191  0.051857  0.000000
  1C   4s         0.000002  0.128826  0.000002  0.512205 -0.164690 -0.000003
  1C   3pz        0.308856 -0.000000 -0.578834  0.000000  0.000002 -0.285066
  1C   3px        0.000002 -0.047265 -0.000000 -0.444333  0.385386  0.000005
  1C   3py        0.000001  0.039830  0.000001  0.208187  0.174345  0.000002
  1C   5s        -0.000153 -0.368028 -0.000130 -6.522081  1.750205 -0.000130
  1C   4pz       -0.415869 -0.000000 -0.836542  0.000006 -0.000024  2.706676
  1C   4px       -0.000023 -0.567509 -0.000024 -2.354769  3.101464  0.000008
  1C   4py        0.000060  0.254907  0.000049  3.691716 -1.919342  0.000028
  1C   1dz2      -0.000000 -0.000303 -0.000000  0.010629  0.003352 -0.000000
  1C   1dxz       0.016000 -0.000000 -0.027332  0.000000 -0.000000  0.000870
  1C   1dyz      -0.007777 -0.000000  0.012149 -0.000000  0.000000 -0.004766
  1C   1dx2y2    -0.000000  0.007888 -0.000000 -0.008563 -0.011217 -0.000000
  1C   1dxy       0.000000 -0.005957  0.000000  0.001124 -0.010341 -0.000000
  2H   1s        -0.011001  0.006783  0.057364  0.014127  0.007992  0.015789
  2H   2s        -0.063265 -0.009526  0.114214  0.014325 -0.004440 -0.021968
  2H   3s         0.027984  0.059048  0.450958 -0.003057 -0.045814  0.325680
  2H   4s        -3.119714 -2.117289 -1.122111  0.844875 -0.456299 -1.147285
  2H   1pz       -0.006373 -0.004487 -0.001544  0.009285  0.004400 -0.001380
  2H   1px       -0.007849 -0.001605  0.002459 -0.003479 -0.002048 -0.001725
  2H   1py        0.003090  0.002392 -0.005650  0.005608  0.009776  0.003491
  3H   1s         0.011001  0.006783 -0.057364  0.014127  0.007992 -0.015789
  3H   2s         0.063266 -0.009526 -0.114213  0.014326 -0.004440  0.021969
  3H   3s        -0.027997  0.059048 -0.450966 -0.003055 -0.045808 -0.325694
  3H   4s         3.119710 -2.117289  1.122114  0.844879 -0.456316  1.147266
  3H   1pz       -0.006373  0.004487 -0.001545 -0.009285 -0.004400 -0.001381
  3H   1px        0.007849 -0.001605 -0.002459 -0.003479 -0.002048  0.001725
  3H   1py       -0.003090  0.002392  0.005650  0.005608  0.009776 -0.003491
  4H   1s        -0.000000 -0.014161 -0.000000 -0.003014  0.014932  0.000000
  4H   2s         0.000001  0.027493  0.000001  0.010060  0.007703  0.000001
  4H   3s        -0.000009 -0.255577 -0.000006 -0.247233  0.226093 -0.000004
  4H   4s        -0.000002  4.077815 -0.000006 -1.368777  2.407474  0.000026
  4H   1pz        0.001712  0.000000  0.002081  0.000000  0.000000 -0.001881
  4H   1px       -0.000000 -0.006322 -0.000000 -0.004147 -0.009097 -0.000000
  4H   1py        0.000000 -0.010159  0.000000  0.009064  0.001336 -0.000000
  5O   1s         0.000000  0.005655  0.000000  0.013516 -0.007887 -0.000000
  5O   2s         0.000000  0.010052  0.000000  0.023502 -0.013874 -0.000000
  5O   1pz       -0.065283  0.000000  0.155152 -0.000000  0.000000  0.001954
  5O   1px        0.000000  0.016284  0.000000  0.006327 -0.010904 -0.000000
  5O   1py       -0.000000  0.001492 -0.000000 -0.002607  0.008627  0.000000
  5O   3s        -0.000000 -0.041119 -0.000000 -0.086568  0.052048  0.000001
  5O   2pz       -0.092932  0.000000  0.233697 -0.000001  0.000000 -0.015580
  5O   2px       -0.000000  0.026903  0.000000  0.019881 -0.027858 -0.000000
  5O   2py       -0.000000  0.003893 -0.000000 -0.007794  0.021068  0.000000
  5O   4s        -0.000000  0.003814 -0.000000 -0.112418  0.060405  0.000001
  5O   3pz       -0.150168  0.000000  0.293097 -0.000000 -0.000001  0.106174
  5O   3px       -0.000000 -0.004564 -0.000000 -0.105211  0.102724  0.000001
  5O   3py        0.000000 -0.009874  0.000000  0.013311 -0.052733 -0.000000
  5O   5s         0.000003 -0.598384 -0.000002 -2.200437  1.637057  0.000024
  5O   4pz       -0.052309 -0.000000  0.442698 -0.000002  0.000005 -0.492789
  5O   4px        0.000001  0.005399  0.000000 -0.350473 -0.113662  0.000001
  5O   4py       -0.000005  0.034276 -0.000004 -0.155932  0.289206 -0.000001
  5O   1dz2       0.000000 -0.000318  0.000000  0.001646  0.000013 -0.000000
  5O   1dxz       0.005044 -0.000000 -0.006955 -0.000000  0.000000 -0.006052
  5O   1dyz      -0.001440  0.000000  0.002204 -0.000000 -0.000000  0.001841
  5O   1dx2y2    -0.000000  0.000035 -0.000000  0.000145  0.001210  0.000000
  5O   1dxy       0.000000  0.000879  0.000000  0.000544  0.002930  0.000000
  6O   1s         0.000000  0.001337 -0.000000 -0.001210  0.007611  0.000000
  6O   2s         0.000000  0.002279 -0.000000 -0.001911  0.013403  0.000000
  6O   1pz       -0.024036  0.000000  0.097674 -0.000000  0.000000 -0.012528
  6O   1px        0.000000  0.018996  0.000000  0.005627 -0.030205 -0.000000
  6O   1py        0.000000 -0.001464  0.000000  0.007658  0.013565  0.000000
  6O   3s         0.000000 -0.005944  0.000000  0.003549 -0.052938 -0.000000
  6O   2pz       -0.028879  0.000000  0.147512 -0.000000  0.000000 -0.030793
  6O   2px        0.000000  0.027747  0.000000  0.009341 -0.053385 -0.000000
  6O   2py       -0.000000 -0.001250 -0.000000  0.015512  0.021732  0.000000
  6O   4s        -0.000001 -0.037240 -0.000001  0.020371 -0.019999 -0.000001
  6O   3pz       -0.080303  0.000000  0.178146 -0.000000 -0.000000  0.038384
  6O   3px        0.000000  0.052159  0.000000  0.033769 -0.000954  0.000000
  6O   3py        0.000000 -0.013121  0.000000 -0.024579  0.030072  0.000000
  6O   5s        -0.000001 -0.063315  0.000004  0.054277 -1.012950 -0.000004
  6O   4pz        0.043035 -0.000000  0.332801 -0.000001  0.000003 -0.317177
  6O   4px       -0.000000  0.019181 -0.000001  0.030685 -0.352728 -0.000005
  6O   4py        0.000003  0.030988  0.000002  0.241089  0.843503  0.000009
  6O   1dz2       0.000000  0.000134  0.000000  0.004877  0.000122 -0.000000
  6O   1dxz      -0.003732  0.000000  0.002861  0.000000 -0.000000  0.002899
  6O   1dyz      -0.006595  0.000000  0.012273 -0.000000 -0.000000  0.004857
  6O   1dx2y2     0.000000 -0.001826  0.000000  0.003485  0.003320  0.000000
  6O   1dxy      -0.000000 -0.000203 -0.000000  0.000024  0.003235  0.000000
  7H   1s        -0.000000  0.003664 -0.000000 -0.015174 -0.005967 -0.000000
  7H   2s         0.000001  0.035660  0.000001  0.027767  0.008461  0.000001
  7H   3s        -0.000005 -0.009253 -0.000005 -0.509039 -0.515500 -0.000009
  7H   4s        -0.000015  0.051662 -0.000012 -1.908650  0.538700 -0.000000
  7H   1pz       -0.007325  0.000000  0.016203 -0.000000 -0.000000  0.008319
  7H   1px       -0.000000  0.000409 -0.000000 -0.001869  0.003982  0.000000
  7H   1py       -0.000000  0.001678 -0.000000 -0.007110 -0.004678 -0.000000
                     24        25        26        27        28        29   
                   0.09740   0.10740   0.11251   0.12759   0.14055   0.17853
                   0.00000   0.00000   0.00000   0.00000   0.00000   0.00000
                  --------  --------  --------  --------  --------  --------
  0C   1s        -0.008568 -0.000000 -0.016628 -0.006950 -0.037147  0.000887
  0C   2s        -0.014672 -0.000001 -0.029192 -0.012210 -0.064042  0.001222
  0C   1pz        0.000000  0.008524  0.000000 -0.000001  0.000000  0.000001
  0C   1px       -0.014578  0.000000  0.005898  0.009356  0.030689  0.050729
  0C   1py        0.010289 -0.000000 -0.001243  0.018968 -0.033429 -0.000184
  0C   3s         0.040740  0.000003  0.099996  0.047073  0.176876  0.001741
  0C   2pz        0.000000  0.039942 -0.000001  0.000000  0.000000  0.000001
  0C   2px       -0.053527  0.000001  0.029307  0.024067  0.054467  0.063668
  0C   2py        0.002635  0.000000  0.018826  0.047321 -0.066670 -0.012637
  0C   4s         0.146548  0.000001  0.093494 -0.048082  0.663366 -0.187210
  0C   3pz       -0.000001 -0.039286  0.000005 -0.000005  0.000004  0.000009
  0C   3px        0.089108 -0.000001 -0.009125  0.072831  0.143399  0.479607
  0C   3py        0.085396 -0.000002 -0.101558 -0.110335 -0.127711  0.133080
  0C   5s         2.302791 -0.000980-21.374202 26.250265-21.907115-17.351508
  0C   4pz       -0.000042 -4.772686  0.000155 -0.000024  0.000007 -0.000003
  0C   4px        3.285616  0.000032  0.380231 -7.597105  0.810606  1.646941
  0C   4py        4.491767 -0.000241 -4.683829  6.893417 -2.333194 -3.511702
  0C   1dz2      -0.020721  0.000001  0.021707  0.009447 -0.007282 -0.004451
  0C   1dxz       0.000000  0.037335 -0.000001  0.000000 -0.000000 -0.000000
  0C   1dyz       0.000000  0.011854 -0.000000  0.000000 -0.000000 -0.000000
  0C   1dx2y2     0.005981  0.000000  0.005079  0.004769 -0.003141 -0.005423
  0C   1dxy       0.020769 -0.000001 -0.012195  0.004495  0.012644  0.012510
  1C   1s         0.001855 -0.000000  0.000754  0.010206  0.002054 -0.003050
  1C   2s         0.002527 -0.000000  0.000329  0.016325  0.004372 -0.004827
  1C   1pz        0.000001  0.062866 -0.000002  0.000001 -0.000000 -0.000000
  1C   1px       -0.014730 -0.000000 -0.014950 -0.005488 -0.002922  0.031881
  1C   1py        0.004100  0.000000  0.003206 -0.010018  0.003450  0.036132
  1C   3s         0.011626  0.000001  0.022422 -0.024107 -0.027752  0.005768
  1C   2pz        0.000001  0.077280 -0.000003  0.000001 -0.000001 -0.000001
  1C   2px       -0.028179  0.000001  0.009352 -0.013952 -0.015732  0.043152
  1C   2py        0.021114  0.000001  0.032711  0.000604  0.006706  0.047512
  1C   4s        -0.280128  0.000001 -0.018885 -0.619139  0.370008  0.011167
  1C   3pz        0.000003  0.280256 -0.000010  0.000003 -0.000002 -0.000002
  1C   3px       -0.075296 -0.000018 -0.419305  0.188389  0.001742  0.131894
  1C   3py       -0.143258 -0.000009 -0.297749 -0.332887 -0.025888 -0.104898
  1C   5s        -7.702060  0.000752 13.241423-33.271896 12.958752 14.496342
  1C   4pz        0.000006  0.918256 -0.000026  0.000003 -0.000000 -0.000000
  1C   4px       -3.211402  0.000104  1.439824 -4.097060  1.884283  1.426307
  1C   4py       -1.925842 -0.000340 -8.546228  9.942818  0.038863 -6.414511
  1C   1dz2      -0.018086  0.000000 -0.003576 -0.029864 -0.008446  0.001053
  1C   1dxz       0.000000  0.003016 -0.000000  0.000000 -0.000000 -0.000000
  1C   1dyz       0.000000  0.007377 -0.000000  0.000000 -0.000000 -0.000000
  1C   1dx2y2    -0.009739 -0.000000 -0.008608  0.013755  0.008826  0.028574
  1C   1dxy      -0.005272 -0.000000 -0.010140  0.007103 -0.004253 -0.010537
  2H   1s        -0.010908  0.033751  0.020994  0.008930  0.003977 -0.007332
[...]
Surface Crossing Hessian       ... off

The output will be reduced. Please look at the following files:
SCF program output             ... >acetic_acid.lastscf
Integral program output        ... >acetic_acid.lastint
Gradient program output        ... >acetic_acid.lastgrad
Dipole moment program output   ... >acetic_acid.lastmom
AutoCI program output          ... >acetic_acid.lastautoci


         <<< Energy and Gradient at the input geometry >>>

        <<< Energy and Gradient at displaced geometries >>>
             <<<Displacing   1/coordinate 3 (+)>>>
             <<<Displacing   1/coordinate 2 (+)>>>
             <<<Displacing   1/coordinate 1 (+)>>>
             <<<Displacing   2/coordinate 3 (+)>>>
             <<<Displacing   2/coordinate 2 (+)>>>
             <<<Displacing   2/coordinate 1 (+)>>>
             <<<Displacing   1/coordinate 3 (-)>>>
             <<<Displacing   2/coordinate 3 (-)>>>
             <<<Displacing   1/coordinate 2 (-)>>>
             <<<Displacing   2/coordinate 2 (-)>>>
             <<<Displacing   1/coordinate 1 (-)>>>
             <<<Displacing   2/coordinate 1 (-)>>>
             <<<Displacing   3/coordinate 1 (+)>>>
             <<<Displacing   3/coordinate 2 (+)>>>
             <<<Displacing   3/coordinate 3 (+)>>>
             <<<Displacing   4/coordinate 1 (+)>>>
             <<<Displacing   4/coordinate 2 (+)>>>
             <<<Displacing   4/coordinate 3 (+)>>>
             <<<Displacing   3/coordinate 1 (-)>>>
             <<<Displacing   3/coordinate 2 (-)>>>
             <<<Displacing   3/coordinate 3 (-)>>>
             <<<Displacing   4/coordinate 1 (-)>>>
             <<<Displacing   4/coordinate 3 (-)>>>
             <<<Displacing   4/coordinate 2 (-)>>>
             <<<Displacing   5/coordinate 1 (+)>>>
             <<<Displacing   5/coordinate 2 (+)>>>
             <<<Displacing   5/coordinate 3 (+)>>>
             <<<Displacing   6/coordinate 1 (+)>>>
             <<<Displacing   6/coordinate 2 (+)>>>
             <<<Displacing   6/coordinate 3 (+)>>>
             <<<Displacing   5/coordinate 1 (-)>>>
             <<<Displacing   5/coordinate 3 (-)>>>
             <<<Displacing   5/coordinate 2 (-)>>>
             <<<Displacing   6/coordinate 3 (-)>>>
             <<<Displacing   6/coordinate 1 (-)>>>
             <<<Displacing   6/coordinate 2 (-)>>>
             <<<Displacing   7/coordinate 1 (+)>>>
             <<<Displacing   7/coordinate 2 (+)>>>
             <<<Displacing   7/coordinate 3 (+)>>>
             <<<Displacing   8/coordinate 1 (+)>>>
             <<<Displacing   8/coordinate 2 (+)>>>
             <<<Displacing   8/coordinate 3 (+)>>>
             <<<Displacing   7/coordinate 1 (-)>>>
             <<<Displacing   7/coordinate 3 (-)>>>
             <<<Displacing   7/coordinate 2 (-)>>>
             <<<Displacing   8/coordinate 1 (-)>>>
             <<<Displacing   8/coordinate 3 (-)>>>
             <<<Displacing   8/coordinate 2 (-)>>>

-----------------------
VIBRATIONAL FREQUENCIES
-----------------------

Scaling factor for frequencies =  1.000000000 (already applied!)

   0:         0.00 cm**-1
   1:         0.00 cm**-1
   2:         0.00 cm**-1
   3:         0.00 cm**-1
   4:         0.00 cm**-1
   5:         0.00 cm**-1
   6:       105.19 cm**-1
   7:       429.31 cm**-1
   8:       539.79 cm**-1
   9:       610.50 cm**-1
  10:       664.78 cm**-1
  11:       895.43 cm**-1
  12:      1017.68 cm**-1
  13:      1074.57 cm**-1
  14:      1245.75 cm**-1
  15:      1359.50 cm**-1
  16:      1432.48 cm**-1
  17:      1477.85 cm**-1
  18:      1482.80 cm**-1
  19:      1886.84 cm**-1
  20:      3088.12 cm**-1
  21:      3159.79 cm**-1
  22:      3192.53 cm**-1
  23:      3841.96 cm**-1


------------
NORMAL MODES
------------

These modes are the cartesian displacements weighted by the diagonal matrix
M(i,i)=1/sqrt(m[i]) where m[i] is the mass of the displaced atom
Thus, these vectors are normalized but *not* orthogonal

                  0          1          2          3          4          5    
      0       0.000000   0.000000   0.000000   0.000000   0.000000   0.000000
      1       0.000000   0.000000   0.000000   0.000000   0.000000   0.000000
      2       0.000000   0.000000   0.000000   0.000000   0.000000   0.000000
      3       0.000000   0.000000   0.000000   0.000000   0.000000   0.000000
      4       0.000000   0.000000   0.000000   0.000000   0.000000   0.000000
      5       0.000000   0.000000   0.000000   0.000000   0.000000   0.000000
      6       0.000000   0.000000   0.000000   0.000000   0.000000   0.000000
      7       0.000000   0.000000   0.000000   0.000000   0.000000   0.000000
      8       0.000000   0.000000   0.000000   0.000000   0.000000   0.000000
      9       0.000000   0.000000   0.000000   0.000000   0.000000   0.000000
     10       0.000000   0.000000   0.000000   0.000000   0.000000   0.000000
     11       0.000000   0.000000   0.000000   0.000000   0.000000   0.000000
     12       0.000000   0.000000   0.000000   0.000000   0.000000   0.000000
     13       0.000000   0.000000   0.000000   0.000000   0.000000   0.000000
     14       0.000000   0.000000   0.000000   0.000000   0.000000   0.000000
     15       0.000000   0.000000   0.000000   0.000000   0.000000   0.000000
     16       0.000000   0.000000   0.000000   0.000000   0.000000   0.000000
     17       0.000000   0.000000   0.000000   0.000000   0.000000   0.000000
     18       0.000000   0.000000   0.000000   0.000000   0.000000   0.000000
     19       0.000000   0.000000   0.000000   0.000000   0.000000   0.000000
     20       0.000000   0.000000   0.000000   0.000000   0.000000   0.000000
     21       0.000000   0.000000   0.000000   0.000000   0.000000   0.000000
     22       0.000000   0.000000   0.000000   0.000000   0.000000   0.000000
     23       0.000000   0.000000   0.000000   0.000000   0.000000   0.000000
                  6          7          8          9         10         11    
      0      -0.000012   0.142006  -0.000022  -0.151543  -0.000017  -0.146581
      1      -0.000005   0.131624  -0.000027   0.213259   0.000037   0.258848
      2      -0.005120  -0.000007  -0.014168  -0.000006   0.038401  -0.000009
      3       0.000010  -0.147805   0.000021  -0.040359  -0.000008   0.135107
      4       0.000005  -0.044300   0.000009   0.132741   0.000014  -0.080419
      5      -0.010091   0.000044   0.183534  -0.000067   0.171639   0.000017
      6      -0.459580   0.193487   0.116609  -0.164941   0.149705  -0.155547
      7      -0.210809   0.442124  -0.304521   0.144700  -0.278976   0.330310
      8       0.315557  -0.010654  -0.126679  -0.000093  -0.097222   0.004185
      9       0.459549   0.193602  -0.116666  -0.164922  -0.149730  -0.155533
     10       0.210752   0.442379   0.304380   0.144473   0.279046   0.330284
     11       0.315557   0.010702  -0.126683   0.000114  -0.097214  -0.004187
     12      -0.000048   0.514213  -0.000062  -0.260248  -0.000031  -0.217534
     13       0.000025  -0.191793   0.000003   0.315558   0.000051   0.339882
     14      -0.533236  -0.000156  -0.226271   0.000065  -0.154212   0.000003
     15       0.000009  -0.133651   0.000016  -0.076667  -0.000015   0.185915
     16      -0.000013   0.108223  -0.000019  -0.308638  -0.000038   0.004940
     17       0.053145  -0.000000  -0.046531   0.000025  -0.076076  -0.000003
     18      -0.000002   0.062395  -0.000006   0.217267   0.000032  -0.115301
     19       0.000014  -0.214243   0.000039  -0.007492  -0.000010  -0.175867
     20      -0.047935  -0.000002   0.001097   0.000043  -0.112632   0.000002
     21      -0.000007   0.298773  -0.000025   0.645166   0.000082  -0.455450
     22       0.000012  -0.050477   0.000026   0.290084   0.000023  -0.413630
     23       0.000681  -0.000304  -0.817352  -0.000282   0.841061  -0.000077
                 12         13         14         15         16         17    
      0       0.152926   0.000034   0.049456  -0.061556   0.068188  -0.038528
      1       0.066790   0.000020   0.054686   0.036227  -0.179595  -0.018074
      2       0.000028  -0.168168   0.000015   0.000006  -0.000000  -0.000006
      3      -0.003502  -0.000007  -0.036476   0.036926   0.046866  -0.000905
      4       0.060860   0.000021  -0.115740   0.199005   0.203863  -0.052340
      5      -0.000031   0.208926  -0.000025  -0.000019   0.000001   0.000003
      6      -0.022707  -0.363017  -0.081779   0.244623  -0.047084   0.500182
      7      -0.484576   0.492373  -0.088496  -0.319934   0.508046   0.083015
      8       0.080332   0.150524   0.078906  -0.235246   0.139016  -0.372608
      9      -0.022846   0.362996  -0.081839   0.244615  -0.047078   0.500209
     10      -0.484434  -0.492644  -0.088349  -0.319757   0.508063   0.083028
     11      -0.080394   0.150492  -0.078933   0.235249  -0.139020   0.372614
     12      -0.388268  -0.000046  -0.161854   0.362749  -0.408618  -0.351409
     13       0.539437   0.000088   0.240254  -0.342029   0.252153   0.275609
     14      -0.000077   0.362097  -0.000011   0.000057   0.000011   0.000040
     15      -0.034383  -0.000024  -0.099054  -0.025612  -0.039317  -0.016812
     16       0.019499  -0.000002   0.005685  -0.027238  -0.022387   0.009714
     17       0.000006  -0.042908   0.000006   0.000004  -0.000000  -0.000001
     18      -0.060559   0.000013   0.155832   0.015116   0.001338   0.002672
     19      -0.092170  -0.000013   0.069615  -0.066540  -0.061198   0.012847
     20       0.000006  -0.030380   0.000005   0.000002  -0.000000   0.000001
     21       0.160252  -0.000065  -0.730371  -0.391918  -0.265357   0.045317
     22       0.061983  -0.000065  -0.531060  -0.332784  -0.230774   0.039288
     23      -0.000024   0.014464  -0.000026  -0.000000  -0.000007  -0.000012
                 18         19         20         21         22         23    
      0       0.000005   0.057832   0.034672  -0.000004   0.079378  -0.000576
      1       0.000001  -0.043735  -0.037526  -0.000004   0.051716   0.000591
      2      -0.052166   0.000003  -0.000004   0.092542   0.000006  -0.000000
      3      -0.000003  -0.705106  -0.000278  -0.000001   0.002466   0.000260
      4      -0.000010   0.131937   0.001938   0.000001   0.000073  -0.002556
      5      -0.025445   0.000002  -0.000000   0.000545  -0.000000   0.000000
      6      -0.173439   0.107204  -0.358871  -0.420491  -0.182747   0.001058
      7      -0.449341  -0.050247   0.035241   0.044185   0.026438   0.000608
      8       0.051742  -0.046333  -0.507006  -0.562918  -0.269935   0.001091
      9       0.173363   0.107178  -0.358910   0.420479  -0.182697   0.001058
     10       0.449361  -0.050240   0.035250  -0.044190   0.026432   0.000610
     11       0.051678   0.046336   0.507056  -0.562901   0.269865  -0.001090
     12      -0.000018  -0.195976   0.318489   0.000053  -0.586602   0.000823
     13       0.000020   0.145797   0.348848   0.000055  -0.658064   0.000568
     14       0.726099  -0.000021  -0.000001   0.013477   0.000002   0.000003
     15       0.000006   0.447891  -0.000564   0.000001  -0.001309   0.000783
     16      -0.000000  -0.052707   0.000190  -0.000000   0.000184   0.000313
     17       0.002263  -0.000003   0.000000   0.000286   0.000000  -0.000000
     18      -0.000005   0.058001   0.000022   0.000000  -0.000080   0.034478
     19       0.000002   0.000191   0.000040  -0.000000  -0.000980  -0.051053
     20       0.003176   0.000001   0.000000  -0.000083   0.000000  -0.000000
     21       0.000054  -0.335229  -0.001928  -0.000002  -0.001137  -0.558837
     22       0.000039  -0.262770   0.001056  -0.000001   0.000733   0.826978
     23       0.008942  -0.000009  -0.000001  -0.000082   0.000001   0.000001


-----------
IR SPECTRUM  
-----------

 Mode    freq (cm**-1)   T**2         TX         TY         TZ
-------------------------------------------------------------------
   6:       105.19    0.096608  ( -0.000124   0.000146   0.310818)
   7:       429.31    5.362261  (  1.931410   1.277464  -0.001819)
   8:       539.79   41.582746  ( -0.000362  -0.000128  -6.448469)
   9:       610.50   46.699483  (  0.146752   6.832126  -0.002189)
  10:       664.78   99.227134  (  0.000196   0.001337   9.961282)
  11:       895.43    2.807299  (  1.471195  -0.801801  -0.000408)
  12:      1017.68   43.972063  (  3.390872   5.698601  -0.000840)
  13:      1074.57   10.580442  ( -0.000158   0.000149   3.252759)
  14:      1245.75  215.908267  ( -7.443979 -12.668680  -0.000525)
  15:      1359.50   40.913508  (  3.989482   4.999754   0.000055)
  16:      1432.48  114.054059  (  2.056958  10.479646  -0.000016)
  17:      1477.85   15.485360  (  3.601504  -1.585727   0.000152)
  18:      1482.80   11.883825  ( -0.000339   0.000122   3.447292)
  19:      1886.84  391.298174  (-19.767124  -0.747663  -0.000067)
  20:      3088.12    0.486656  (  0.534951  -0.447754  -0.000054)
  21:      3159.79    2.133741  ( -0.000149  -0.000031   1.460733)
  22:      3192.53    2.827525  (  1.021748   1.335499   0.000092)
  23:      3841.96   89.400550  ( -2.891500   9.002210   0.000181)

The first frequency considered to be a vibration is 6
The total number of vibrations considered is 18


--------------------------
THERMOCHEMISTRY AT 298.15K
--------------------------

Temperature         ... 298.15 K
Pressure            ... 1.00 atm
Total Mass          ... 60.05 AMU

Throughout the following assumptions are being made:
  (1) The electronic state is orbitally nondegenerate
  (2) There are no thermally accessible electronically excited states
  (3) Hindered rotations indicated by low frequency modes are not
      treated as such but are treated as vibrations and this may
      cause some error
  (4) All equations used are the standard statistical mechanics
      equations for an ideal gas
  (5) All vibrations are strictly harmonic

freq.     105.19  E(vib)   ...       0.45 
freq.     429.31  E(vib)   ...       0.18 
freq.     539.79  E(vib)   ...       0.12 
freq.     610.50  E(vib)   ...       0.10 
freq.     664.78  E(vib)   ...       0.08 
freq.     895.43  E(vib)   ...       0.03 
freq.    1017.68  E(vib)   ...       0.02 
freq.    1074.57  E(vib)   ...       0.02 
freq.    1245.75  E(vib)   ...       0.01 
freq.    1359.50  E(vib)   ...       0.01 
freq.    1432.48  E(vib)   ...       0.00 
freq.    1477.85  E(vib)   ...       0.00 
freq.    1482.80  E(vib)   ...       0.00 
freq.    1886.84  E(vib)   ...       0.00 
freq.    3088.12  E(vib)   ...       0.00 
freq.    3159.79  E(vib)   ...       0.00 
freq.    3192.53  E(vib)   ...       0.00 
freq.    3841.96  E(vib)   ...       0.00 

------------
INNER ENERGY
------------

The inner energy is: U= E(el) + E(ZPE) + E(vib) + E(rot) + E(trans)
    E(el)   - is the total energy from the electronic structure calculation
              = E(kin-el) + E(nuc-el) + E(el-el) + E(nuc-nuc)
    E(ZPE)  - the the zero temperature vibrational energy from the frequency calculation
    E(vib)  - the the finite temperature correction to E(ZPE) due to population
              of excited vibrational states
    E(rot)  - is the rotational thermal energy
    E(trans)- is the translational thermal energy

Summary of contributions to the inner energy U:
Electronic energy                ...   -229.06415254 Eh
Zero point energy                ...      0.06266068 Eh      39.32 kcal/mol
Thermal vibrational correction   ...      0.00164270 Eh       1.03 kcal/mol
Thermal rotational correction    ...      0.00141627 Eh       0.89 kcal/mol
Thermal translational correction ...      0.00141627 Eh       0.89 kcal/mol
-----------------------------------------------------------------------
Total thermal energy                   -228.99701661 Eh


Summary of corrections to the electronic energy:
(perhaps to be used in another calculation)
Total thermal correction                  0.00447524 Eh       2.81 kcal/mol
Non-thermal (ZPE) correction              0.06266068 Eh      39.32 kcal/mol
-----------------------------------------------------------------------
Total correction                          0.06713593 Eh      42.13 kcal/mol


--------
ENTHALPY
--------

The enthalpy is H = U + kB*T
                kB is Boltzmann's constant
Total free energy                 ...   -228.99701661 Eh 
Thermal Enthalpy correction       ...      0.00094421 Eh       0.59 kcal/mol
-----------------------------------------------------------------------
Total Enthalpy                    ...   -228.99607240 Eh


Note: Only C1 symmetry has been detected, increase convergence thresholds 
      if your molecule has a higher symmetry. Symmetry factor of 1.0 is   
      used for the rotational entropy correction. 
 

Note: Rotational entropy computed according to Herzberg 
Infrared and Raman Spectra, Chapter V,1, Van Nostrand Reinhold, 1945 
Point Group:  C1, Symmetry Number:   1  
Rotational constants in cm-1:     0.386392     0.315192     0.179381 

Vibrational entropy computed according to the QRRHO of S. Grimme
Chem.Eur.J. 2012 18 9955


-------
ENTROPY
-------

The entropy contributions are T*S = T*(S(el)+S(vib)+S(rot)+S(trans))
     S(el)   - electronic entropy
     S(vib)  - vibrational entropy
     S(rot)  - rotational entropy
     S(trans)- translational entropy
The entropies will be listed as mutliplied by the temperature to get
units of energy

Electronic entropy                ...      0.00000000 Eh      0.00 kcal/mol
Vibrational entropy               ...      0.00271694 Eh      1.70 kcal/mol
Rotational entropy                ...      0.01131595 Eh      7.10 kcal/mol
Translational entropy             ...      0.01814900 Eh     11.39 kcal/mol
-----------------------------------------------------------------------
Final entropy term                ...      0.03218189 Eh     20.19 kcal/mol

In case the symmetry of your molecule has not been determined correctly
or in case you have a reason to use a different symmetry number we print 
out the resulting rotational entropy values for sn=1,12 :
 --------------------------------------------------------
|  sn= 1 | S(rot)=       0.01131595 Eh      7.10 kcal/mol|
|  sn= 2 | S(rot)=       0.01066150 Eh      6.69 kcal/mol|
|  sn= 3 | S(rot)=       0.01027866 Eh      6.45 kcal/mol|
|  sn= 4 | S(rot)=       0.01000704 Eh      6.28 kcal/mol|
|  sn= 5 | S(rot)=       0.00979635 Eh      6.15 kcal/mol|
|  sn= 6 | S(rot)=       0.00962421 Eh      6.04 kcal/mol|
|  sn= 7 | S(rot)=       0.00947866 Eh      5.95 kcal/mol|
|  sn= 8 | S(rot)=       0.00935258 Eh      5.87 kcal/mol|
|  sn= 9 | S(rot)=       0.00924137 Eh      5.80 kcal/mol|
|  sn=10 | S(rot)=       0.00914190 Eh      5.74 kcal/mol|
|  sn=11 | S(rot)=       0.00905191 Eh      5.68 kcal/mol|
|  sn=12 | S(rot)=       0.00896975 Eh      5.63 kcal/mol|
 --------------------------------------------------------


-------------------
GIBBS FREE ENERGY
-------------------

The Gibbs free energy is G = H - T*S

Total enthalpy                    ...   -228.99607240 Eh 
Total entropy correction          ...     -0.03218189 Eh    -20.19 kcal/mol
-----------------------------------------------------------------------
Final Gibbs free energy         ...   -229.02825429 Eh

For completeness - the Gibbs free energy minus the electronic energy
G-E(el)                           ...      0.03589825 Eh     22.53 kcal/mol


Total Time for Numerical Frequencies  :       547.780 sec

Timings for individual modules:

Sum of individual times         ...      114.797 sec (=   1.913 min)
GTO integral calculation        ...        5.008 sec (=   0.083 min)   4.4 %
SCF iterations                  ...       87.362 sec (=   1.456 min)  76.1 %
SCF Gradient evaluation         ...       22.279 sec (=   0.371 min)  19.4 %
Geometry relaxation             ...        0.148 sec (=   0.002 min)   0.1 %
                             ****ORCA TERMINATED NORMALLY****
TOTAL RUN TIME: 0 days 0 hours 10 minutes 53 seconds 773 msec
