
                                 *****************
                                 * O   R   C   A *
                                 *****************

           --- An Ab Initio, DFT and Semiempirical electronic structure package ---

                  #######################################################
                  #                        -***-                        #
                  #          Department of theory and spectroscopy      #
                  #               Directorship: Frank Neese             #
                  #        Max Planck Institute fuer Kohlenforschung    #
                  #                Kaiser Wilhelm Platz 1               #
                  #                 D-45470 Muelheim/Ruhr               #
                  #                      Germany                        #
                  #                                                     #
                  #                  All rights reserved                #
                  #                        -***-                        #
                  #######################################################


                         Program Version 4.2.1 -  RELEASE  -


 With contributions from (in alphabetic order):
   Daniel Aravena         : Magnetic Suceptibility
   Michael Atanasov       : Ab Initio Ligand Field Theory (pilot matlab implementation)
   Alexander A. Auer      : GIAO ZORA, VPT2
   Ute Becker             : Parallelization
   Giovanni Bistoni       : ED, misc. LED, open-shell LED, HFLD
   Martin Brehm           : Molecular dynamics
   Dmytro Bykov           : SCF Hessian
   Vijay G. Chilkuri      : MRCI spin determinant printing, contributions to CSF-ICE
   Dipayan Datta          : RHF DLPNO-CCSD density
   Achintya Kumar Dutta   : EOM-CC, STEOM-CC
   Dmitry Ganyushin       : Spin-Orbit,Spin-Spin,Magnetic field MRCI
   Miquel Garcia          : C-PCM Hessian, Gaussian charge scheme
   Yang Guo               : DLPNO-NEVPT2, CIM, IAO-localization
   Andreas Hansen         : Spin unrestricted coupled pair/coupled cluster methods
   Benjamin Helmich-Paris : CASSCF linear response (MC-RPA)
   Lee Huntington         : MR-EOM, pCC
   Robert Izsak           : Overlap fitted RIJCOSX, COSX-SCS-MP3, EOM
   Christian Kollmar      : KDIIS, OOCD, Brueckner-CCSD(T), CCSD density
   Simone Kossmann        : Meta GGA functionals, TD-DFT gradient, OOMP2, MP2 Hessian
   Martin Krupicka        : AUTO-CI
   Lucas Lang             : DCDCAS
   Dagmar Lenk            : GEPOL surface, SMD
   Dimitrios Liakos       : Extrapolation schemes; Compound Job, initial MDCI parallelization
   Dimitrios Manganas     : Further ROCIS development; embedding schemes
   Dimitrios Pantazis     : SARC Basis sets
   Taras Petrenko         : DFT Hessian,TD-DFT gradient, ASA, ECA, R-Raman, ABS, FL, XAS/XES, NRVS
   Peter Pinski           : DLPNO-MP2, DLPNO-MP2 Gradient
   Christoph Reimann      : Effective Core Potentials
   Marius Retegan         : Local ZFS, SOC
   Christoph Riplinger    : Optimizer, TS searches, QM/MM, DLPNO-CCSD(T), (RO)-DLPNO pert. Triples
   Tobias Risthaus        : Range-separated hybrids, TD-DFT gradient, RPA, STAB
   Michael Roemelt        : Original ROCIS implementation
   Masaaki Saitow         : Open-shell DLPNO-CCSD energy and density
   Barbara Sandhoefer     : DKH picture change effects
   Avijit Sen             : IP-ROCIS
   Kantharuban Sivalingam : CASSCF convergence, NEVPT2, FIC-MRCI
   Bernardo de Souza      : ESD, SOC TD-DFT
   Georgi Stoychev        : AutoAux, RI-MP2 NMR
   Willem Van den Heuvel  : Paramagnetic NMR
   Boris Wezisla          : Elementary symmetry handling
   Frank Wennmohs         : Technical directorship


 We gratefully acknowledge several colleagues who have allowed us to
 interface, adapt or use parts of their codes:
   Stefan Grimme, W. Hujo, H. Kruse,             : VdW corrections, initial TS optimization,
                  C. Bannwarth                     DFT functionals, gCP, sTDA/sTD-DF
   Ed Valeev, F. Pavosevic, A. Kumar             : LibInt (2-el integral package), F12 methods
   Garnet Chan, S. Sharma, J. Yang, R. Olivares  : DMRG
   Ulf Ekstrom                                   : XCFun DFT Library
   Mihaly Kallay                                 : mrcc  (arbitrary order and MRCC methods)
   Andreas Klamt, Michael Diedenhofen            : otool_cosmo (COSMO solvation model)
   Jiri Pittner, Ondrej Demel                    : Mk-CCSD
   Frank Weinhold                                : gennbo (NPA and NBO analysis)
   Christopher J. Cramer and Donald G. Truhlar   : smd solvation model
   Lars Goerigk                                  : TD-DFT with DH, B97 family of functionals
   V. Asgeirsson, H. Jonsson                     : NEB implementation
   FAccTs GmbH                                   : IRC, NEB, NEB-TS, Multilevel, MM, QM/MM, CI optimization
   S Lehtola, MJT Oliveira, MAL Marques          : LibXC Library


 Your calculation uses the libint2 library for the computation of 2-el integrals
 For citations please refer to: http://libint.valeyev.net

 Your ORCA version has been built with support for libXC version: 4.2.3
 For citations please refer to: https://tddft.org/programs/libxc/

 This ORCA versions uses:
   CBLAS   interface :  Fast vector & matrix operations
   LAPACKE interface :  Fast linear algebra routines
   SCALAPACK package :  Parallel linear algebra routines




***************************************
The coordinates will be read from file: acetate@water.xyz
***************************************


Your calculation utilizes the atom-pairwise dispersion correction
with the zero-damping scheme (D30)
Cite in your paper:
S.Grimme, J.Antony, S.Ehrlich and H.Krieg, J.Chem.Phys., 132, (2010), 154104 
   

Your calculation utilizes the SMD solvation module
Please cite in your paper:
A.V. Marenich, C.J. Cramer, D.G. Truhlar J. Phys. Chem. B, 113, (2009), 6378 

XCFun DFT library Copyright 2009-2010 Ulf Ekstrom and contributors.
See http://admol.org/xcfun for more information. This is free soft-
ware; see the source code for copying conditions. There is ABSOLUTELY
NO WARRANTY; not even for MERCHANTABILITY or FITNESS FOR A PARTICULAR
PURPOSE. For details see the documentation. Scientific users of this 
library should cite U. Ekstrom, L. Visscher, R. Bast, A. J. Thorvald-
sen and K. Ruud; J.Chem.Theor.Comp. 2010, DOI: 10.1021/ct100117s
XCFun Version 0.99 
----- Orbital basis set information -----
Your calculation utilizes the basis: 6-311++G(d,p)
   H, Li - Ne  : R. Krishnan, J. S. Binkley, R. Seeger and J. A. Pople, J. Chem. Phys. 72, 650 (1980).
   Na - Ar     : A. D. McLean and G. S. Chandler J. Chem. Phys. 72, 5639, (1980).
   K  - Ca     : J.-P. Blaudeau, M. P. McGrath, L. A. Curtiss and L. Radom, J. Chem. Phys. 107, 5016 (1997).
   Ga - Kr     : L. A. Curtiss, M. P. McGrath, J.-P. Blandeau, N. E. Davis, R. C. Binning and L. Radom, J. Chem. Phys. 103, 6104 (1995).
   Pol./Diff.
   H, Li - Cl  : T. Clark, J. Chandrasekhar and P. v. R. Schleyer, J. Comp. Chem. 4, 294 (1983).
   H - Ne      : M. J. Frisch, J. A. Pople and J. S. Binkley, J. Chem. Phys. 80, 3265 (1984).

================================================================================
                                        WARNINGS
                       Please study these warnings very carefully!
================================================================================


WARNING: The environment variable RSH_COMMAND is not set!
  ===> : All Displacements for the Numerical Hessian calculation
         will be started on localhost

WARNING: Geometry Optimization
  ===> : Switching off AutoStart
         For restart on a previous wavefunction, please use MOREAD

INFO   : the flag for use of LIBINT has been found!

================================================================================
                                       INPUT FILE
================================================================================
NAME = acetate@water.inp
|  1> ! UHF M062X D3Zero 6-311++G(d,p) Opt NumFreq TightOpt TightSCF Grid6 NoFinalGrid PrintBasis PrintMOs NBO
|  2> 
|  3> %pal
|  4>  nprocs 6
|  5> end
|  6> 
|  7> %cpcm
|  8>  smd true
|  9>  smdsolvent "water"
| 10> end
| 11> 
| 12> *xyzfile -1 1 acetate@water.xyz
| 13> 
| 14>                          ****END OF INPUT****
================================================================================

                       *****************************
                       * Geometry Optimization Run *
                       *****************************

Geometry optimization settings:
Update method            Update   .... BFGS
Choice of coordinates    CoordSys .... Z-matrix Internals
Initial Hessian          InHess   .... Almoef's Model

Convergence Tolerances:
Energy Change            TolE     ....  1.0000e-06 Eh
Max. Gradient            TolMAXG  ....  1.0000e-04 Eh/bohr
RMS Gradient             TolRMSG  ....  3.0000e-05 Eh/bohr
Max. Displacement        TolMAXD  ....  1.0000e-03 bohr
RMS Displacement         TolRMSD  ....  6.0000e-04 bohr
Strict Convergence                ....  False
------------------------------------------------------------------------------
                        ORCA OPTIMIZATION COORDINATE SETUP
------------------------------------------------------------------------------

The optimization will be done in new redundant internal coordinates
Making redundant internal coordinates   ...  (new redundants) done
Evaluating the initial hessian          ...  (Almloef) done
Evaluating the coordinates              ...  done
Calculating the B-matrix                .... done
Calculating the G-matrix                .... done
Diagonalizing the G-matrix              .... done
The first mode is                       ....    6
The number of degrees of freedom        ....   15

    -----------------------------------------------------------------
                    Redundant Internal Coordinates


    -----------------------------------------------------------------
         Definition                    Initial Value    Approx d2E/dq
    -----------------------------------------------------------------
      1. B(C   1,C   0)                  1.5269         0.377865   
      2. B(H   2,C   0)                  1.0923         0.357093   
      3. B(H   3,C   0)                  1.0923         0.357006   
      4. B(H   4,C   0)                  1.0890         0.361474   
      5. B(O   5,C   1)                  1.2503         0.934807   
      6. B(O   6,C   1)                  1.2532         0.924884   
      7. A(C   1,C   0,H   3)          110.2783         0.324468   
      8. A(C   1,C   0,H   4)          113.0382         0.325131   
      9. A(C   1,C   0,H   2)          110.3338         0.324481   
     10. A(H   2,C   0,H   4)          108.2573         0.290630   
     11. A(H   3,C   0,H   4)          108.2461         0.290619   
     12. A(H   2,C   0,H   3)          106.4398         0.290064   
     13. A(C   0,C   1,O   5)          118.1699         0.424739   
     14. A(O   5,C   1,O   6)          125.4013         0.496758   
     15. A(C   0,C   1,O   6)          116.4287         0.423929   
     16. D(O   5,C   1,C   0,H   3)    120.8827         0.010662   
     17. D(O   5,C   1,C   0,H   4)     -0.4389         0.010662   
     18. D(O   6,C   1,C   0,H   2)     58.2828         0.010662   
     19. D(O   6,C   1,C   0,H   3)    -59.0193         0.010662   
     20. D(O   6,C   1,C   0,H   4)    179.6590         0.010662   
     21. D(O   5,C   1,C   0,H   2)   -121.8152         0.010662   
    -----------------------------------------------------------------

Number of atoms                         .... 7
Number of degrees of freedom            .... 21

         *************************************************************
         *                GEOMETRY OPTIMIZATION CYCLE   1            *
         *************************************************************
---------------------------------
CARTESIAN COORDINATES (ANGSTROEM)
---------------------------------
  C      0.622676   -1.306929    0.000342
  C     -0.071824    0.052875    0.000506
  H      1.272518   -1.401332    0.873196
  H      1.266940   -1.402880   -0.876552
  H     -0.075935   -2.142259    0.003195
  O     -1.321899    0.077209   -0.004686
  O      0.673906    1.060076    0.003998

----------------------------
CARTESIAN COORDINATES (A.U.)
----------------------------
  NO LB      ZA    FRAG     MASS         X           Y           Z
   0 C     6.0000    0    12.011    1.176687   -2.469738    0.000646
   1 C     6.0000    0    12.011   -0.135728    0.099919    0.000956
   2 H     1.0000    0     1.008    2.404711   -2.648134    1.650101
   3 H     1.0000    0     1.008    2.394170   -2.651059   -1.656443
   4 H     1.0000    0     1.008   -0.143496   -4.048283    0.006038
   5 O     8.0000    0    15.999   -2.498027    0.145904   -0.008855
   6 O     8.0000    0    15.999    1.273498    2.003253    0.007555

--------------------------------
INTERNAL COORDINATES (ANGSTROEM)
--------------------------------
 C      0   0   0     0.000000000000     0.00000000     0.00000000
 C      1   0   0     1.526891350199     0.00000000     0.00000000
 H      1   2   0     1.092282315470   110.33383670     0.00000000
 H      1   2   3     1.092348746204   110.27826280   242.69790971
 H      1   2   3     1.088963579662   113.03816122   121.37626242
 O      2   1   3     1.250322600789   118.16989531   238.18481299
 O      2   1   3     1.253227545725   116.42871237    58.28277679

---------------------------
INTERNAL COORDINATES (A.U.)
---------------------------
 C      0   0   0     0.000000000000     0.00000000     0.00000000
 C      1   0   0     2.885406488129     0.00000000     0.00000000
 H      1   2   0     2.064114437164   110.33383670     0.00000000
 H      1   2   3     2.064239973057   110.27826280   242.69790971
 H      1   2   3     2.057842935375   113.03816122   121.37626242
 O      2   1   3     2.362767294544   118.16989531   238.18481299
 O      2   1   3     2.368256844907   116.42871237    58.28277679

---------------------
BASIS SET INFORMATION
---------------------
There are 3 groups of distinct atoms

 Group   1 Type C   : 12s6p1d contracted to 5s4p1d pattern {63111/3111/1}
 Group   2 Type H   : 6s1p contracted to 4s1p pattern {3111/1}
 Group   3 Type O   : 12s6p1d contracted to 5s4p1d pattern {63111/3111/1}

Atom   0C    basis set group =>   1
Atom   1C    basis set group =>   1
Atom   2H    basis set group =>   2
Atom   3H    basis set group =>   2
Atom   4H    basis set group =>   2
Atom   5O    basis set group =>   3
Atom   6O    basis set group =>   3

-------------------------
BASIS SET IN INPUT FORMAT
-------------------------

 # Basis set for element : H 
 NewGTO H 
 S 3 
   1      33.8650000000      0.0254938145
   2       5.0947900000      0.1903731086
   3       1.1587900000      0.8521614860
 S 1 
   1       0.3258400000      1.0000000000
 S 1 
   1       0.1027410000      1.0000000000
 S 1 
   1       0.0360000000      1.0000000000
 P 1 
   1       0.7500000000      1.0000000000
  end;

 # Basis set for element : C 
 NewGTO C 
 S 6 
   1    4563.2400000000      0.0019666502
   2     682.0240000000      0.0152306019
   3     154.9730000000      0.0761269097
   4      44.4553000000      0.2608010331
   5      13.0290000000      0.6164620782
   6       1.8277300000      0.2210060280
 S 3 
   1      20.9642000000      0.1146600807
   2       4.8033100000      0.9199996477
   3       1.4593300000     -0.0030306821
 P 3 
   1      20.9642000000      0.0402486927
   2       4.8033100000      0.2375939567
   3       1.4593300000      0.8158538515
 S 1 
   1       0.4834560000      1.0000000000
 P 1 
   1       0.4834560000      1.0000000000
 S 1 
   1       0.1455850000      1.0000000000
 P 1 
   1       0.1455850000      1.0000000000
 S 1 
   1       0.0438000000      1.0000000000
 P 1 
   1       0.0438000000      1.0000000000
 D 1 
   1       0.6260000000      1.0000000000
  end;

 # Basis set for element : O 
 NewGTO O 
 S 6 
   1    8588.5000000000      0.0018951501
   2    1297.2300000000      0.0143859006
   3     299.2960000000      0.0707320031
   4      87.3771000000      0.2400010105
   5      25.6789000000      0.5947970261
   6       3.7400400000      0.2808020123
 S 3 
   1      42.1175000000      0.1138890124
   2       9.6283700000      0.9208111006
   3       2.8533200000     -0.0032744704
 P 3 
   1      42.1175000000      0.0365113974
   2       9.6283700000      0.2371529830
   3       2.8533200000      0.8197019412
 S 1 
   1       0.9056610000      1.0000000000
 P 1 
   1       0.9056610000      1.0000000000
 S 1 
   1       0.2556110000      1.0000000000
 P 1 
   1       0.2556110000      1.0000000000
 S 1 
   1       0.0845000000      1.0000000000
 P 1 
   1       0.0845000000      1.0000000000
 D 1 
   1       1.2920000000      1.0000000000
  end;



           ************************************************************
           *        Program running with 6 parallel MPI-processes     *
           *              working on a common directory               *
           ************************************************************
------------------------------------------------------------------------------
                           ORCA GTO INTEGRAL CALCULATION
------------------------------------------------------------------------------

                         BASIS SET STATISTICS AND STARTUP INFO

 # of primitive gaussian shells          ...   97
 # of primitive gaussian functions       ...  167
 # of contracted shells                  ...   55
 # of contracted basis functions         ...  109
 Highest angular momentum                ...    2
 Maximum contraction depth               ...    6
 Integral package used                   ... LIBINT
 Integral threshhold            Thresh   ...  2.500e-11
 Primitive cut-off              TCut     ...  2.500e-12


------------------------------ INTEGRAL EVALUATION ----------------------------


 * One electron integrals 
 Pre-screening matrix                    ... done
 Shell pair data                         ... done (   0.001 sec)



           ************************************************************
           *        Program running with 6 parallel MPI-processes     *
           *              working on a common directory               *
           ************************************************************
-------------------------------------------------------------------------------
                                 ORCA SCF
-------------------------------------------------------------------------------

------------
SCF SETTINGS
------------
Hamiltonian:
 Density Functional     Method          .... DFT(GTOs)
 Exchange Functional    Exchange        .... M062X
 Correlation Functional Correlation     .... M062X
 Gradients option       PostSCFGGA      .... off
 Hybrid DFT is turned on
   Fraction HF Exchange ScalHFX         ....  0.540000
   Scaling of DF-GGA-X  ScalDFX         ....  0.460000
   Scaling of DF-GGA-C  ScalDFC         ....  1.000000
   Scaling of DF-LDA-C  ScalLDAC        ....  1.000000
   Perturbative correction              ....  0.000000
   Density functional embedding theory  .... OFF


General Settings:
 Integral files         IntName         .... acetate@water
 Hartree-Fock type      HFTyp           .... UHF
 Total Charge           Charge          ....   -1
 Multiplicity           Mult            ....    1
 Number of Electrons    NEL             ....   32
 Basis Dimension        Dim             ....  109
 Nuclear Repulsion      ENuc            ....    112.4970022290 Eh

Convergence Acceleration:
 DIIS                   CNVDIIS         .... on
   Start iteration      DIISMaxIt       ....    12
   Startup error        DIISStart       ....  0.200000
   # of expansion vecs  DIISMaxEq       ....     5
   Bias factor          DIISBfac        ....   1.050
   Max. coefficient     DIISMaxC        ....  10.000
 Newton-Raphson         CNVNR           .... off
 SOSCF                  CNVSOSCF        .... off
 Level Shifting         CNVShift        .... on
   Level shift para.    LevelShift      ....    0.2500
   Turn off err/grad.   ShiftErr        ....    0.0010
 Zerner damping         CNVZerner       .... off
 Static damping         CNVDamp         .... on
   Fraction old density DampFac         ....    0.7000
   Max. Damping (<1)    DampMax         ....    0.9800
   Min. Damping (>=0)   DampMin         ....    0.0000
   Turn off err/grad.   DampErr         ....    0.1000
 Fernandez-Rico         CNVRico         .... off

SCF Procedure:
 Maximum # iterations   MaxIter         ....   125
 SCF integral mode      SCFMode         .... Direct
   Integral package                     .... LIBINT
 Reset frequency        DirectResetFreq ....    20
 Integral Threshold     Thresh          ....  2.500e-11 Eh
 Primitive CutOff       TCut            ....  2.500e-12 Eh

Convergence Tolerance:
 Convergence Check Mode ConvCheckMode   .... Total+1el-Energy
 Convergence forced     ConvForced      .... 0
 Energy Change          TolE            ....  1.000e-08 Eh
 1-El. energy change                    ....  1.000e-05 Eh
 DIIS Error             TolErr          ....  5.000e-07


Diagonalization of the overlap matrix:
Smallest eigenvalue                        ... 1.656e-04
Time for diagonalization                   ...    0.005 sec
Threshold for overlap eigenvalues          ... 1.000e-08
Number of eigenvalues below threshold      ... 0
Time for construction of square roots      ...    0.002 sec
Total time needed                          ...    0.007 sec

-------------------
DFT GRID GENERATION
-------------------

General Integration Accuracy     IntAcc      ...  5.340
Radial Grid Type                 RadialGrid  ... Gauss-Chebyshev
Angular Grid (max. acc.)         AngularGrid ... Lebedev-590
Angular grid pruning method      GridPruning ... 3 (G Style)
Weight generation scheme         WeightScheme... Becke
Basis function cutoff            BFCut       ...    1.0000e-11
Integration weight cutoff        WCut        ...    1.0000e-14
Grids for H and He will be reduced by one unit

# of grid points (after initial pruning)     ...  99358 (   0.0 sec)
# of grid points (after weights+screening)   ...  95062 (   0.0 sec)
nearest neighbour list constructed           ...    0.0 sec
Grid point re-assignment to atoms done       ...    0.0 sec
Grid point division into batches done        ...    1.2 sec
Reduced shell lists constructed in    1.3 sec

Total number of grid points                  ...    95062
Total number of batches                      ...     1489
Average number of points per batch           ...       63
Average number of grid points per atom       ...    13580
Average number of shells per batch           ...    50.85 (92.45%)
Average number of basis functions per batch  ...   102.16 (93.72%)
Average number of large shells per batch     ...    45.19 (88.87%)
Average number of large basis fcns per batch ...    91.20 (89.28%)
Maximum spatial batch extension              ...   1.86,  2.54,  4.36 au
Average spatial batch extension              ...   0.13,  0.13,  0.14 au

Time for grid setup =    1.357 sec

------------------------------
INITIAL GUESS: MODEL POTENTIAL
------------------------------
Loading Hartree-Fock densities                     ... done
Calculating cut-offs                               ... done
Setting up the integral package                    ... done
Initializing the effective Hamiltonian             ... done
Starting the Coulomb interaction                   ... done (   0.0 sec)
Reading the grid                                   ... done
Mapping shells                                     ... done
Starting the XC term evaluation                    ... done (   0.1 sec)
  promolecular density results
     # of electrons  =     30.998533199
     EX              =    -27.352709221
     EC              =     -1.019796512
     EX+EC           =    -28.372505733
Transforming the Hamiltonian                       ... done (   0.0 sec)
Diagonalizing the Hamiltonian                      ... done (   0.0 sec)
Back transforming the eigenvectors                 ... done (   0.0 sec)
Now organizing SCF variables                       ... done
                      ------------------
                      INITIAL GUESS DONE (   1.6 sec)
                      ------------------

--------------------
CPCM SOLVATION MODEL
--------------------
CPCM parameters:
  Epsilon                                         ...      78.3550
  Refrac                                          ...       1.0000
  Rsolv                                           ...       1.3000
  Surface type                                    ...    GEPOL SES
  Epsilon function type                           ...         CPCM
Solvent:                                     ... WATER
SMD-CDS solvent descriptors:
  Soln                                       ...    1.3328
  Soln25                                     ...    1.3323
  Sola                                       ...    0.0000
  Solb                                       ...    0.0000
  Solg                                       ...    0.0000
  Solc                                       ...    0.0000
  Solh                                       ...    0.0000
Radii:
 Radius for C  used is    3.4960 Bohr (=   1.8500 Ang.)
 Radius for H  used is    2.2677 Bohr (=   1.2000 Ang.)
 Radius for O  used is    2.8724 Bohr (=   1.5200 Ang.)
Calculating surface                               ...        done! (  0.0s)
GEPOL surface points                              ...          263
GEPOL Volume                                      ...     386.4417
GEPOL Surface-area                                ...     285.5315
Calculating surface distance matrix               ...        done! (  0.0s)
Performing Cholesky decomposition & store         ...        done! (  0.0s)
Overall time for CPCM initialization              ...                 0.0s
--------------
SCF ITERATIONS
--------------
ITER       Energy         Delta-E        Max-DP      RMS-DP      [F,P]     Damp
               ***  Starting incremental Fock matrix formation  ***
  0   -228.3775091802   0.000000000000 0.03627732  0.00122776  0.3598407 0.7000
  1   -228.4875042150  -0.109995034809 0.01931468  0.00081671  0.1758183 0.7000
                               ***Turning on DIIS***
  2   -228.5347255530  -0.047221338009 0.03256234  0.00138781  0.0674883 0.0000
  3   -228.6077529474  -0.073027394408 0.01569366  0.00058293  0.0883056 0.0000
  4   -228.6225890387  -0.014836091252 0.00435784  0.00015785  0.0151398 0.0000
  5   -228.6230935343  -0.000504495685 0.00184864  0.00008493  0.0033706 0.0000
  6   -228.6231297591  -0.000036224734 0.00221738  0.00008385  0.0005592 0.0000
  7   -228.6231343778  -0.000004618729 0.00027489  0.00000957  0.0001239 0.0000
  8   -228.6231344929  -0.000000115081 0.00003607  0.00000143  0.0000794 0.0000
  9   -228.6231345145  -0.000000021649 0.00000838  0.00000038  0.0000318 0.0000
 10   -228.6231345150  -0.000000000429 0.00000403  0.00000016  0.0000185 0.0000
 11   -228.6231345153  -0.000000000376 0.00000151  0.00000007  0.0000078 0.0000
                 **** Energy Check signals convergence ****

               *****************************************************
               *                     SUCCESS                       *
               *           SCF CONVERGED AFTER  12 CYCLES          *
               *****************************************************


SMD CDS free energy correction energy :                 3.89734     Kcal/mol
Total Energy after SMD CDS correction =              -228.616923706 Eh

----------------
TOTAL SCF ENERGY
----------------

Total Energy       :         -228.61692371 Eh           -6220.98276 eV

Components:
Nuclear Repulsion  :          112.49700223 Eh            3061.19906 eV
Electronic Energy  :         -341.11392594 Eh           -9282.18182 eV
One Electron Energy:         -542.68231612 Eh          -14767.13657 eV
Two Electron Energy:          201.56839018 Eh            5484.95475 eV
CPCM Dielectric    :           -0.13241935 Eh              -3.60331 eV
SMD CDS (Gcds)     :            0.00621081 Eh               0.16900 eV

Virial components:
Potential Energy   :         -456.49142483 Eh          -12421.76318 eV
Kinetic Energy     :          227.87450112 Eh            6200.78042 eV
Virial Ratio       :            2.00325803


DFT components:
N(Alpha)           :       16.000000554127 electrons
N(Beta)            :       16.000000554127 electrons
N(Total)           :       32.000001108254 electrons
E(XC)              :      -14.151418038776 Eh       
DFET-embed. en.    :        0.000000000000 Eh       
CPCM Solvation Model Properties:
Surface-charge          :            0.94559887
Charge-correction       :           -0.01029182 Eh              -0.28005 eV
Free-energy (cav+disp)  :            0.00296701 Eh               0.08074 eV
Corrected G(solv)       :         -228.62424852 Eh           -6221.18208 eV

---------------
SCF CONVERGENCE
---------------

  Last Energy change         ...    2.7117e-10  Tolerance :   1.0000e-08
  Last MAX-Density change    ...    2.2291e-06  Tolerance :   1.0000e-07
  Last RMS-Density change    ...    6.5317e-08  Tolerance :   5.0000e-09
  Last DIIS Error            ...    1.5520e-06  Tolerance :   5.0000e-07

             **** THE GBW FILE WAS UPDATED (acetate@water.gbw) ****
             **** DENSITY FILE WAS UPDATED (acetate@water.scfp) ****
             **** ENERGY FILE WAS UPDATED (acetate@water.en.tmp) ****
----------------------
UHF SPIN CONTAMINATION
----------------------

Warning: in a DFT calculation there is little theoretical justification to 
         calculate <S**2> as in Hartree-Fock theory. We will do it anyways
         but you should keep in mind that the values have only limited relevance

Expectation value of <S**2>     :     0.000000
Ideal value S*(S+1) for S=0.0   :     0.000000
Deviation                       :     0.000000

             **** THE GBW FILE WAS UPDATED (acetate@water.gbw) ****
             **** DENSITY FILE WAS UPDATED (acetate@water.scfp) ****
----------------
ORBITAL ENERGIES
----------------
                 SPIN UP ORBITALS
  NO   OCC          E(Eh)            E(eV) 
   0   1.0000     -19.570164      -532.5312 
   1   1.0000     -19.568126      -532.4758 
   2   1.0000     -10.632144      -289.3153 
   3   1.0000     -10.513900      -286.0978 
   4   1.0000      -1.161820       -31.6147 
   5   1.0000      -1.063403       -28.9367 
   6   1.0000      -0.803311       -21.8592 
   7   1.0000      -0.590379       -16.0650 
   8   1.0000      -0.516479       -14.0541 
   9   1.0000      -0.511900       -13.9295 
  10   1.0000      -0.508325       -13.8322 
  11   1.0000      -0.444888       -12.1060 
  12   1.0000      -0.423743       -11.5306 
  13   1.0000      -0.333781        -9.0826 
  14   1.0000      -0.322993        -8.7891 
  15   1.0000      -0.322400        -8.7730 
  16   0.0000       0.012110         0.3295 
  17   0.0000       0.041077         1.1178 
  18   0.0000       0.043927         1.1953 
  19   0.0000       0.050874         1.3844 
  20   0.0000       0.082076         2.2334 
  21   0.0000       0.089045         2.4230 
  22   0.0000       0.091696         2.4952 
  23   0.0000       0.095542         2.5998 
  24   0.0000       0.115698         3.1483 
  25   0.0000       0.122317         3.3284 
  26   0.0000       0.139845         3.8054 
  27   0.0000       0.152678         4.1546 
  28   0.0000       0.212776         5.7899 
  29   0.0000       0.231167         6.2904 
  30   0.0000       0.232191         6.3182 
  31   0.0000       0.247448         6.7334 
  32   0.0000       0.257956         7.0193 
  33   0.0000       0.275857         7.5064 
  34   0.0000       0.285992         7.7822 
  35   0.0000       0.301655         8.2085 
  36   0.0000       0.308444         8.3932 
  37   0.0000       0.333615         9.0781 
  38   0.0000       0.344851         9.3839 
  39   0.0000       0.367343         9.9959 
  40   0.0000       0.490860        13.3570 
  41   0.0000       0.493900        13.4397 
  42   0.0000       0.504714        13.7340 
  43   0.0000       0.557520        15.1709 
  44   0.0000       0.605614        16.4796 
  45   0.0000       0.615980        16.7617 
  46   0.0000       0.708692        19.2845 
  47   0.0000       0.721431        19.6311 
  48   0.0000       0.737943        20.0804 
  49   0.0000       0.772163        21.0116 
  50   0.0000       0.792524        21.5657 
  51   0.0000       0.886926        24.1345 
  52   0.0000       0.914451        24.8835 
  53   0.0000       1.076078        29.2816 
  54   0.0000       1.139847        31.0168 
  55   0.0000       1.154726        31.4217 
  56   0.0000       1.210118        32.9290 
  57   0.0000       1.215327        33.0707 
  58   0.0000       1.232791        33.5460 
  59   0.0000       1.261952        34.3395 
  60   0.0000       1.329644        36.1815 
  61   0.0000       1.420334        38.6493 
  62   0.0000       1.508967        41.0611 
  63   0.0000       1.524657        41.4880 
  64   0.0000       1.557933        42.3935 
  65   0.0000       1.618747        44.0483 
  66   0.0000       1.634237        44.4699 
  67   0.0000       1.636821        44.5402 
  68   0.0000       1.660566        45.1863 
  69   0.0000       1.788071        48.6559 
  70   0.0000       1.893816        51.5334 
  71   0.0000       1.919119        52.2219 
  72   0.0000       1.937678        52.7269 
  73   0.0000       2.059448        56.0404 
  74   0.0000       2.175318        59.1934 
  75   0.0000       2.267099        61.6909 
  76   0.0000       2.368608        64.4531 
  77   0.0000       2.510924        68.3257 
  78   0.0000       2.556086        69.5546 
  79   0.0000       2.585817        70.3636 
  80   0.0000       2.599222        70.7284 
  81   0.0000       2.636599        71.7455 
  82   0.0000       2.763685        75.2037 
  83   0.0000       2.884229        78.4839 
  84   0.0000       2.931304        79.7648 
  85   0.0000       2.948850        80.2423 
  86   0.0000       3.008573        81.8674 
  87   0.0000       3.016581        82.0854 
  88   0.0000       3.142987        85.5250 
  89   0.0000       3.336510        90.7911 
  90   0.0000       3.386865        92.1613 
  91   0.0000       3.392150        92.3051 
  92   0.0000       3.443603        93.7052 
  93   0.0000       3.650641        99.3390 
  94   0.0000       3.748376       101.9985 
  95   0.0000       3.855498       104.9134 
  96   0.0000       3.894804       105.9830 
  97   0.0000       4.127387       112.3119 
  98   0.0000       4.258950       115.8919 
  99   0.0000       5.154793       140.2691 
 100   0.0000       5.199385       141.4825 
 101   0.0000       5.236836       142.5016 
 102   0.0000       5.329408       145.0206 
 103   0.0000       5.674057       154.3989 
 104   0.0000       5.969832       162.4474 
 105   0.0000      23.922812       650.9728 
 106   0.0000      24.068627       654.9406 
 107   0.0000      50.051082      1361.9592 
 108   0.0000      50.147430      1364.5809 

                 SPIN DOWN ORBITALS
  NO   OCC          E(Eh)            E(eV) 
   0   1.0000     -19.570164      -532.5312 
   1   1.0000     -19.568126      -532.4758 
   2   1.0000     -10.632144      -289.3153 
   3   1.0000     -10.513900      -286.0978 
   4   1.0000      -1.161820       -31.6147 
   5   1.0000      -1.063403       -28.9367 
   6   1.0000      -0.803311       -21.8592 
   7   1.0000      -0.590379       -16.0650 
   8   1.0000      -0.516479       -14.0541 
   9   1.0000      -0.511900       -13.9295 
  10   1.0000      -0.508325       -13.8322 
  11   1.0000      -0.444888       -12.1060 
  12   1.0000      -0.423743       -11.5306 
  13   1.0000      -0.333781        -9.0826 
  14   1.0000      -0.322993        -8.7891 
  15   1.0000      -0.322400        -8.7730 
  16   0.0000       0.012110         0.3295 
  17   0.0000       0.041077         1.1178 
  18   0.0000       0.043927         1.1953 
  19   0.0000       0.050874         1.3844 
  20   0.0000       0.082076         2.2334 
  21   0.0000       0.089045         2.4230 
  22   0.0000       0.091696         2.4952 
  23   0.0000       0.095542         2.5998 
  24   0.0000       0.115698         3.1483 
  25   0.0000       0.122317         3.3284 
  26   0.0000       0.139845         3.8054 
  27   0.0000       0.152678         4.1546 
  28   0.0000       0.212776         5.7899 
  29   0.0000       0.231167         6.2904 
  30   0.0000       0.232191         6.3182 
  31   0.0000       0.247448         6.7334 
  32   0.0000       0.257956         7.0193 
  33   0.0000       0.275857         7.5064 
  34   0.0000       0.285992         7.7822 
  35   0.0000       0.301655         8.2085 
  36   0.0000       0.308444         8.3932 
  37   0.0000       0.333615         9.0781 
  38   0.0000       0.344851         9.3839 
  39   0.0000       0.367343         9.9959 
  40   0.0000       0.490860        13.3570 
  41   0.0000       0.493900        13.4397 
  42   0.0000       0.504714        13.7340 
  43   0.0000       0.557520        15.1709 
  44   0.0000       0.605614        16.4796 
  45   0.0000       0.615980        16.7617 
  46   0.0000       0.708692        19.2845 
  47   0.0000       0.721431        19.6311 
  48   0.0000       0.737943        20.0804 
  49   0.0000       0.772163        21.0116 
  50   0.0000       0.792524        21.5657 
  51   0.0000       0.886926        24.1345 
  52   0.0000       0.914451        24.8835 
  53   0.0000       1.076078        29.2816 
  54   0.0000       1.139847        31.0168 
  55   0.0000       1.154726        31.4217 
  56   0.0000       1.210118        32.9290 
  57   0.0000       1.215327        33.0707 
  58   0.0000       1.232791        33.5460 
  59   0.0000       1.261952        34.3395 
  60   0.0000       1.329644        36.1815 
  61   0.0000       1.420334        38.6493 
  62   0.0000       1.508967        41.0611 
  63   0.0000       1.524657        41.4880 
  64   0.0000       1.557933        42.3935 
  65   0.0000       1.618747        44.0483 
  66   0.0000       1.634237        44.4699 
  67   0.0000       1.636821        44.5402 
  68   0.0000       1.660566        45.1863 
  69   0.0000       1.788071        48.6559 
  70   0.0000       1.893816        51.5334 
  71   0.0000       1.919119        52.2219 
  72   0.0000       1.937678        52.7269 
  73   0.0000       2.059448        56.0404 
  74   0.0000       2.175318        59.1934 
  75   0.0000       2.267099        61.6909 
  76   0.0000       2.368608        64.4531 
  77   0.0000       2.510924        68.3257 
  78   0.0000       2.556086        69.5546 
  79   0.0000       2.585817        70.3636 
  80   0.0000       2.599222        70.7284 
  81   0.0000       2.636599        71.7455 
  82   0.0000       2.763685        75.2037 
  83   0.0000       2.884229        78.4839 
  84   0.0000       2.931304        79.7648 
  85   0.0000       2.948850        80.2423 
  86   0.0000       3.008573        81.8674 
  87   0.0000       3.016581        82.0854 
  88   0.0000       3.142987        85.5250 
  89   0.0000       3.336510        90.7911 
  90   0.0000       3.386865        92.1613 
  91   0.0000       3.392150        92.3051 
  92   0.0000       3.443603        93.7052 
  93   0.0000       3.650641        99.3390 
  94   0.0000       3.748376       101.9985 
  95   0.0000       3.855498       104.9134 
  96   0.0000       3.894804       105.9830 
  97   0.0000       4.127387       112.3119 
  98   0.0000       4.258950       115.8919 
  99   0.0000       5.154793       140.2691 
 100   0.0000       5.199385       141.4825 
 101   0.0000       5.236836       142.5016 
 102   0.0000       5.329408       145.0206 
 103   0.0000       5.674057       154.3989 
 104   0.0000       5.969832       162.4474 
 105   0.0000      23.922812       650.9728 
 106   0.0000      24.068627       654.9406 
 107   0.0000      50.051082      1361.9592 
 108   0.0000      50.147430      1364.5809 
------------------
MOLECULAR ORBITALS
------------------
                      0         1         2         3         4         5   
                 -19.57016 -19.56813 -10.63214 -10.51390  -1.16182  -1.06340
                   1.00000   1.00000   1.00000   1.00000   1.00000   1.00000
                  --------  --------  --------  --------  --------  --------
  0C   1s        -0.000003 -0.000001 -0.000885  0.564135 -0.011013 -0.000609
  0C   2s         0.000020  0.000011 -0.000664  0.463656 -0.017532 -0.000947
  0C   1pz       -0.000000  0.000000 -0.000000 -0.000001 -0.000002  0.000025
  0C   1px       -0.000047  0.000000  0.000203 -0.000017 -0.005244  0.005641
  0C   1py        0.000037  0.000063 -0.000350  0.000174  0.010480  0.003443
  0C   3s        -0.000053 -0.000071 -0.000430  0.013169  0.045251  0.002417
  0C   2pz        0.000001 -0.000000  0.000002 -0.000001 -0.000012  0.000041
  0C   2px        0.000214  0.000067 -0.000435  0.000714 -0.009972  0.008426
  0C   2py       -0.000223 -0.000362  0.000616 -0.001286  0.020411  0.005344
  0C   4s         0.000260  0.000884 -0.002070 -0.005807  0.003517 -0.000443
  0C   3pz        0.000003 -0.000002 -0.000004  0.000001 -0.000022  0.000031
  0C   3px        0.000635 -0.000698  0.000584  0.000183  0.001581  0.009715
  0C   3py        0.000533 -0.000140 -0.000466 -0.000871 -0.002490  0.005334
  0C   5s         0.000998  0.002261  0.000707 -0.012420 -0.008320 -0.005826
  0C   4pz        0.000003  0.000010 -0.000011  0.000005 -0.000117 -0.000036
  0C   4px       -0.001250 -0.000388  0.000673 -0.000063  0.011394 -0.005803
  0C   4py        0.000053  0.000793  0.000151 -0.000627 -0.001668 -0.004872
  0C   1dz2       0.000027  0.000031 -0.000348  0.000249 -0.001873  0.000016
  0C   1dxz       0.000001  0.000000  0.000001  0.000001 -0.000007 -0.000004
  0C   1dyz       0.000001 -0.000000  0.000000 -0.000001 -0.000003  0.000015
  0C   1dx2y2    -0.000015  0.000183 -0.000309  0.000262 -0.002696 -0.003151
  0C   1dxy       0.000181  0.000090 -0.000354  0.000437 -0.004082  0.001880
  1C   1s        -0.000008 -0.000007 -0.564189 -0.000927 -0.074120 -0.000753
  1C   2s         0.000010  0.000005 -0.463873 -0.000819 -0.116529 -0.001218
  1C   1pz       -0.000001  0.000001 -0.000001  0.000000 -0.000083  0.000475
  1C   1px       -0.000264  0.000145  0.000094  0.000198 -0.021428  0.108864
  1C   1py        0.000008  0.000209 -0.000190 -0.000391  0.040400  0.053504
  1C   3s         0.000262  0.000306 -0.011843  0.000452  0.305458  0.003069
  1C   2pz        0.000002 -0.000001  0.000003 -0.000001 -0.000104  0.000620
  1C   2px        0.000457 -0.000234  0.000365 -0.000313 -0.028560  0.143063
  1C   2py       -0.000009 -0.000347 -0.000729  0.000633  0.054379  0.070438
  1C   4s         0.001130  0.000725  0.007027 -0.000738  0.084521  0.003332
  1C   3pz       -0.000012  0.000008 -0.000001  0.000004  0.000021 -0.000015
  1C   3px       -0.002882  0.001743  0.000345  0.001177  0.006946 -0.005023
  1C   3py       -0.000348  0.002026 -0.001318 -0.001342 -0.009975 -0.002610
  1C   5s        -0.003539 -0.004735  0.003357  0.003794  0.048177  0.008224
  1C   4pz        0.000005 -0.000004  0.000002  0.000004 -0.000015  0.000082
  1C   4px        0.000652 -0.001284  0.000296  0.000226  0.001929  0.018996
  1C   4py        0.001007  0.000485 -0.001013 -0.001091 -0.006459  0.006107
  1C   1dz2       0.000045  0.000045  0.000967  0.000115 -0.016276 -0.000267
  1C   1dxz      -0.000002 -0.000000 -0.000009  0.000001  0.000163 -0.000077
  1C   1dyz       0.000001 -0.000002 -0.000004  0.000000  0.000065  0.000073
  1C   1dx2y2    -0.000436  0.000103 -0.000487  0.000262  0.010595 -0.019929
  1C   1dxy       0.000000 -0.000418 -0.000592  0.000410  0.013076  0.015612
  2H   1s         0.000013  0.000033  0.000039  0.000375  0.004265  0.001905
  2H   2s        -0.000208 -0.000230  0.000629 -0.002769  0.006925  0.001552
  2H   3s         0.000277  0.000226 -0.000714  0.003735 -0.006104 -0.000506
  2H   4s         0.000667  0.000473 -0.000695  0.001347 -0.008747 -0.000311
  2H   1pz        0.000068  0.000052 -0.000194  0.001329 -0.001323 -0.000307
  2H   1px       -0.000042  0.000078 -0.000133  0.000932 -0.000801 -0.000490
  2H   1py       -0.000001 -0.000034 -0.000026 -0.000025  0.000610  0.000447
  3H   1s         0.000014  0.000033  0.000040  0.000375  0.004262  0.001868
  3H   2s        -0.000206 -0.000233  0.000629 -0.002766  0.006916  0.001534
  3H   3s         0.000279  0.000230 -0.000726  0.003739 -0.006166 -0.000506
  3H   4s         0.000677  0.000488 -0.000708  0.001356 -0.008977 -0.000318
  3H   1pz       -0.000067 -0.000053  0.000196 -0.001334  0.001321  0.000306
  3H   1px       -0.000042  0.000078 -0.000132  0.000923 -0.000790 -0.000481
  3H   1py       -0.000001 -0.000033 -0.000026 -0.000027  0.000607  0.000441
  4H   1s        -0.000046  0.000002  0.000010  0.000382  0.004574 -0.002905
  4H   2s         0.000118 -0.000411  0.000573 -0.002888  0.006868 -0.000234
  4H   3s         0.000154 -0.000082  0.000103  0.003316 -0.001486  0.001182
  4H   4s        -0.000549 -0.000221  0.000085  0.000772  0.007572 -0.000381
  4H   1pz       -0.000000  0.000001 -0.000000  0.000004 -0.000008  0.000001
  4H   1px       -0.000005 -0.000079  0.000117 -0.001154  0.000881  0.000075
  4H   1py       -0.000067 -0.000058  0.000136 -0.001187  0.001949 -0.000674
  5O   1s         0.552883  0.003514  0.000095  0.000005 -0.071422  0.080743
  5O   2s         0.469478  0.003007  0.000119  0.000023 -0.117138  0.132775
  5O   1pz        0.000005  0.000000 -0.000002  0.000000  0.000196 -0.000154
  5O   1px        0.001138  0.000040 -0.000474  0.000036  0.048548 -0.039435
  5O   1py        0.000018  0.000002  0.000028 -0.000009  0.002387  0.007053
  5O   3s         0.008853 -0.000088 -0.000564 -0.000136  0.331134 -0.375983
  5O   2pz        0.000001 -0.000001  0.000003 -0.000001  0.000301 -0.000239
  5O   2px        0.000146 -0.000164  0.000777 -0.000214  0.074200 -0.061000
  5O   2py       -0.000032 -0.000006 -0.000081  0.000061  0.004130  0.010985
  5O   4s        -0.005580  0.000386  0.002370  0.000208  0.239642 -0.301325
  5O   3pz       -0.000003  0.000001  0.000005  0.000003  0.000081 -0.000072
  5O   3px       -0.000844  0.000105  0.001102  0.000260  0.025922 -0.023727
  5O   3py        0.000105 -0.000439  0.000083  0.000127  0.003546  0.007566
  5O   5s         0.001701  0.000944 -0.003557  0.001893 -0.019615  0.005268
  5O   4pz       -0.000002  0.000001 -0.000006 -0.000001  0.000005 -0.000014
  5O   4px       -0.000273  0.000389 -0.001724  0.000902 -0.003975 -0.002393
  5O   4py       -0.000125 -0.000148  0.000637 -0.000057  0.002410 -0.000620
  5O   1dz2      -0.000099  0.000015 -0.000373  0.000013 -0.004971  0.004849
  5O   1dxz       0.000001 -0.000000  0.000005 -0.000000  0.000077 -0.000074
  5O   1dyz       0.000000 -0.000000 -0.000000  0.000000  0.000004  0.000013
  5O   1dx2y2     0.000127 -0.000054  0.000542 -0.000061  0.010451 -0.009887
  5O   1dxy      -0.000000 -0.000096 -0.000074  0.000043  0.001277  0.002896
  6O   1s        -0.003511  0.552886  0.000094  0.000004 -0.069640 -0.082026
  6O   2s        -0.002959  0.469477  0.000121  0.000018 -0.114210 -0.134866
  6O   1pz       -0.000000 -0.000003  0.000001 -0.000000 -0.000145 -0.000095
  6O   1px       -0.000019 -0.000703  0.000265 -0.000032 -0.030829 -0.018913
  6O   1py       -0.000019 -0.000896  0.000386 -0.000031 -0.036132 -0.036208
  6O   3s        -0.000199  0.008843 -0.000609 -0.000075  0.322820  0.381692
  6O   2pz        0.000000 -0.000000 -0.000002  0.000000 -0.000223 -0.000145
  6O   2px        0.000113 -0.000046 -0.000401  0.000155 -0.047631 -0.029260
  6O   2py        0.000130 -0.000127 -0.000633  0.000196 -0.055002 -0.055992
  6O   4s         0.000465 -0.005509  0.002578 -0.000215  0.232905  0.306105
  6O   3pz        0.000001  0.000002 -0.000003  0.000000 -0.000087 -0.000049
  6O   3px        0.000275  0.000387 -0.000740 -0.000351 -0.017896 -0.008340
  6O   3py       -0.000351  0.000706 -0.000949  0.000035 -0.017776 -0.024076
  6O   5s         0.001084  0.002175 -0.003220  0.001378 -0.023675 -0.008487
  6O   4pz       -0.000002  0.000000  0.000003 -0.000004  0.000021 -0.000008
  6O   4px       -0.000125  0.000279  0.000400  0.000171  0.000087 -0.002211
  6O   4py       -0.000447 -0.000085  0.001760 -0.000455  0.006697  0.000402
  6O   1dz2       0.000017 -0.000094 -0.000371  0.000016 -0.004916 -0.004994
  6O   1dxz      -0.000000  0.000001  0.000002 -0.000000  0.000032  0.000015
  6O   1dyz      -0.000000  0.000001  0.000002 -0.000000  0.000047  0.000043
  6O   1dx2y2    -0.000077 -0.000034 -0.000217  0.000058 -0.001332 -0.005343
  6O   1dxy      -0.000082  0.000120  0.000501 -0.000064  0.010145  0.008893
                      6         7         8         9        10        11   
                  -0.80331  -0.59038  -0.51648  -0.51190  -0.50832  -0.44489
                   1.00000   1.00000   1.00000   1.00000   1.00000   1.00000
                  --------  --------  --------  --------  --------  --------
  0C   1s         0.099888  0.024563  0.011892 -0.000291  0.000023 -0.000811
  0C   2s         0.160394  0.039743  0.019298 -0.000503  0.000039 -0.001368
  0C   1pz        0.000039  0.000012  0.000073 -0.000034 -0.117125 -0.000600
  0C   1px        0.002161 -0.042675 -0.049458 -0.079886  0.000185 -0.154680
  0C   1py       -0.008693  0.082973  0.102028 -0.038155  0.000200 -0.083578
  0C   3s        -0.410178 -0.097756 -0.046479  0.001518 -0.000115  0.004239
  0C   2pz        0.000047  0.000024  0.000122 -0.000039 -0.176825 -0.000891
  0C   2px        0.007469 -0.065862 -0.077045 -0.117820  0.000286 -0.229176
  0C   2py       -0.019894  0.127335  0.156568 -0.054979  0.000287 -0.122415
  0C   4s        -0.282876 -0.139397 -0.093084  0.003479 -0.000106  0.004434
  0C   3pz        0.000032  0.000044  0.000039 -0.000029 -0.120828 -0.000652
  0C   3px       -0.001201 -0.029628 -0.036491 -0.081031  0.000301 -0.179421
  0C   3py       -0.001466  0.052404  0.088461 -0.038329  0.000086 -0.094930
  0C   5s        -0.054445 -0.067617 -0.094757  0.009405  0.000926 -0.006833
  0C   4pz        0.000066 -0.000035 -0.000170 -0.000032  0.024167  0.000104
  0C   4px       -0.000046  0.007772  0.018626 -0.006967 -0.000000 -0.003208
  0C   4py       -0.008810 -0.014110 -0.010151  0.000095 -0.000039  0.003573
  0C   1dz2       0.001966 -0.006769 -0.008347 -0.006196  0.000125 -0.014636
  0C   1dxz       0.000004 -0.000009  0.000010 -0.000057 -0.008178 -0.000207
  0C   1dyz       0.000003  0.000001  0.000009 -0.000020 -0.007789 -0.000042
  0C   1dx2y2     0.002515 -0.008044 -0.008084  0.001579 -0.000038 -0.009095
  0C   1dxy       0.003034 -0.011398 -0.010778  0.001634 -0.000033  0.014814
  1C   1s         0.027907 -0.074244  0.002415 -0.000070  0.000038 -0.000882
  1C   2s         0.045471 -0.121757  0.003949 -0.000115  0.000064 -0.001507
  1C   1pz       -0.000010 -0.000006  0.000095 -0.000215 -0.138816  0.000224
  1C   1px       -0.036899  0.006812  0.077213 -0.128121  0.000171  0.069379
  1C   1py        0.074468 -0.015308 -0.140167 -0.071609 -0.000007  0.035241
  1C   3s        -0.125086  0.355416 -0.020820  0.000772 -0.000201  0.005854
  1C   2pz       -0.000009 -0.000015  0.000154 -0.000293 -0.226612  0.000326
  1C   2px       -0.055581  0.007380  0.116776 -0.194150  0.000338  0.103527
  1C   2py        0.111576 -0.016679 -0.212926 -0.109072  0.000020  0.051742
  1C   4s        -0.096701  0.302051  0.010866 -0.009435 -0.000018 -0.014925
  1C   3pz        0.000009  0.000007  0.000027 -0.000052 -0.130697  0.000023
  1C   3px       -0.015366  0.016229  0.058381 -0.090214  0.000352  0.025636
  1C   3py        0.028729 -0.026957 -0.113336 -0.049779 -0.000078  0.013608
  1C   5s         0.029929  0.080750  0.076797 -0.019546  0.000145 -0.027979
  1C   4pz       -0.000004  0.000017  0.000015  0.000067 -0.026878 -0.000056
  1C   4px       -0.000168  0.011920  0.014816 -0.001316  0.000198 -0.009009
  1C   4py       -0.001573 -0.023372 -0.038210  0.006366 -0.000079  0.007378
  1C   1dz2       0.002860 -0.007102  0.003180  0.000052  0.000055 -0.000797
  1C   1dxz       0.000018  0.000068  0.000033  0.000006  0.002655 -0.000090
  1C   1dyz      -0.000004  0.000035  0.000048  0.000026 -0.007979  0.000078
  1C   1dx2y2     0.004750  0.004604  0.011513  0.000850 -0.000035 -0.025605
  1C   1dxy       0.007328  0.005565  0.015218  0.001026  0.000008  0.020758
  2H   1s        -0.077699 -0.049468 -0.043907 -0.035384 -0.078075 -0.076781
  2H   2s        -0.086058 -0.056963 -0.055298 -0.046143 -0.101529 -0.104933
  2H   3s         0.010344 -0.011326 -0.017636 -0.013084 -0.033655 -0.038153
  2H   4s         0.002684 -0.001984 -0.003967 -0.000701 -0.025909 -0.004078
  2H   1pz        0.011126  0.005301  0.004394  0.004236  0.003388  0.008302
  2H   1px        0.008474  0.001924  0.000771 -0.000487  0.006996 -0.001962
  2H   1py       -0.001589  0.003251  0.004960 -0.002695 -0.001559 -0.005153
  3H   1s        -0.077733 -0.049409 -0.043952 -0.034983  0.078551 -0.075072
  3H   2s        -0.086142 -0.056860 -0.055380 -0.045631  0.102152 -0.102600
  3H   3s         0.010401 -0.011339 -0.017858 -0.012893  0.033354 -0.037059
  3H   4s         0.002760 -0.002008 -0.004207 -0.000697  0.025621 -0.003702
  3H   1pz       -0.011184 -0.005320 -0.004408 -0.004211  0.003474 -0.008217
  3H   1px        0.008414  0.001884  0.000746 -0.000560 -0.006962 -0.002156
  3H   1py       -0.001607  0.003258  0.004946 -0.002694  0.001601 -0.005142
  4H   1s        -0.076147 -0.052321 -0.048842  0.064952 -0.000512  0.149854
  4H   2s        -0.082647 -0.062523 -0.059387  0.083893 -0.000655  0.204006
  4H   3s         0.005593 -0.012696 -0.006487  0.024668 -0.000391  0.087696
  4H   4s        -0.002668 -0.001559  0.010574  0.005159 -0.000295  0.024660
  4H   1pz        0.000036  0.000020  0.000019 -0.000025 -0.005857 -0.000086
  4H   1px       -0.008697 -0.006151 -0.007465  0.002403 -0.000041  0.005188
  4H   1py       -0.010514 -0.001801  0.000715  0.006188 -0.000050  0.011058
  5O   1s        -0.019785  0.040383 -0.017643  0.027773  0.000072 -0.005704
  5O   2s        -0.032842  0.067262 -0.029127  0.046103  0.000120 -0.009455
  5O   1pz        0.000010  0.000480 -0.000546  0.000840 -0.114641 -0.000486
  5O   1px       -0.006811  0.117043 -0.093053  0.141714  0.000857 -0.092053
  5O   1py        0.020238 -0.012373 -0.104629 -0.058490  0.000033 -0.014731
  5O   3s         0.095682 -0.196381  0.082291 -0.133774 -0.000351  0.026250
  5O   2pz        0.000024  0.000673 -0.000803  0.001220 -0.171128 -0.000699
  5O   2px       -0.008161  0.164608 -0.136133  0.202794  0.001266 -0.130293
  5O   2py        0.029980 -0.017978 -0.153073 -0.085982  0.000044 -0.020314
  5O   4s         0.093738 -0.258025  0.134734 -0.211326 -0.000513  0.060543
  5O   3pz        0.000006  0.000472 -0.000578  0.000918 -0.145157 -0.000555
  5O   3px       -0.006004  0.110878 -0.091707  0.143568  0.001004 -0.100015
  5O   3py        0.018122 -0.012370 -0.125557 -0.071525  0.000068 -0.020803
  5O   5s         0.016484 -0.075587  0.046237 -0.085246 -0.000253  0.028087
  5O   4pz        0.000009  0.000004 -0.000051  0.000046 -0.003692 -0.000056
  5O   4px        0.008193 -0.000580 -0.014504  0.007250  0.000026 -0.017857
  5O   4py       -0.004041  0.005760 -0.009024 -0.009575  0.000055 -0.007351
  5O   1dz2      -0.000009 -0.004595  0.004602 -0.006993 -0.000120  0.003078
  5O   1dxz       0.000012  0.000064 -0.000085  0.000126 -0.014611 -0.000061
  5O   1dyz       0.000015 -0.000006 -0.000043 -0.000026  0.000409  0.000003
  5O   1dx2y2     0.000805  0.008036 -0.007840  0.010231  0.000093 -0.006833
  5O   1dxy       0.004058 -0.001544 -0.011044 -0.006649  0.000001  0.000648
  6O   1s        -0.021052  0.040057 -0.014834 -0.029228 -0.000081  0.006709
  6O   2s        -0.034929  0.066702 -0.024460 -0.048483 -0.000136  0.011192
  6O   1pz       -0.000008 -0.000301  0.000432  0.000584 -0.115981 -0.000403
  6O   1px       -0.012043 -0.060746  0.132889  0.054383  0.000530 -0.068855
  6O   1py        0.018230 -0.098310 -0.003956  0.145266  0.000518 -0.069939
  6O   3s         0.101570 -0.194414  0.068561  0.140035  0.000401 -0.032435
  6O   2pz       -0.000018 -0.000424  0.000631  0.000847 -0.172442 -0.000569
  6O   2px       -0.018892 -0.085024  0.194690  0.076608  0.000771 -0.096795
  6O   2py        0.025371 -0.138655 -0.005504  0.209481  0.000741 -0.098560
  6O   4s         0.100995 -0.257521  0.115308  0.224261  0.000601 -0.061281
  6O   3pz       -0.000004 -0.000280  0.000456  0.000632 -0.147500 -0.000492
  6O   3px       -0.011345 -0.056923  0.149173  0.046116  0.000638 -0.081038
  6O   3py        0.015816 -0.092631 -0.019174  0.150527  0.000611 -0.079960
  6O   5s         0.016877 -0.078736  0.038862  0.100989  0.000034 -0.007213
  6O   4pz       -0.000022 -0.000008  0.000083 -0.000008 -0.005340 -0.000120
  6O   4px        0.001324 -0.003152  0.015055  0.000127 -0.000036 -0.014792
  6O   4py       -0.008024  0.004785  0.006670  0.006835  0.000125 -0.019729
  6O   1dz2       0.000009 -0.004498  0.003766  0.007234  0.000089 -0.003459
  6O   1dxz       0.000012  0.000022 -0.000060 -0.000043  0.008426  0.000021
  6O   1dyz      -0.000000  0.000036 -0.000025 -0.000076  0.011879  0.000039
  6O   1dx2y2     0.003726 -0.003465 -0.009378  0.007959  0.000003 -0.002603
  6O   1dxy       0.001855  0.007242 -0.009472 -0.009055 -0.000072  0.006691
                     12        13        14        15        16        17   
                  -0.42374  -0.33378  -0.32299  -0.32240   0.01211   0.04108
                   1.00000   1.00000   1.00000   1.00000   0.00000   0.00000
                  --------  --------  --------  --------  --------  --------
  0C   1s        -0.000014  0.000011  0.018489  0.008332 -0.021908 -0.000001
  0C   2s        -0.000023  0.000018  0.030640  0.013747 -0.037327 -0.000002
  0C   1pz        0.162604  0.007793 -0.000226  0.000133 -0.000075  0.042110
  0C   1px       -0.000398 -0.000007  0.042455  0.064888  0.011961 -0.000178
  0C   1py       -0.000343 -0.000084 -0.111044 -0.025261 -0.017301 -0.000309
  0C   3s         0.000064 -0.000057 -0.089937 -0.039123  0.125152 -0.000002
  0C   2pz        0.242408  0.013282 -0.000364  0.000233 -0.000102  0.093643
  0C   2px       -0.000599 -0.000009  0.060661  0.104086  0.012084 -0.000436
  0C   2py       -0.000500 -0.000145 -0.167501 -0.033158 -0.019405 -0.000565
  0C   4s         0.000129 -0.000103 -0.127131 -0.069816  0.175406  0.000536
  0C   3pz        0.199370  0.028557 -0.000541  0.000057 -0.000434 -0.036373
  0C   3px       -0.000516  0.000387  0.077169  0.085416  0.029015  0.000270
  0C   3py       -0.000403  0.000117 -0.141088 -0.038331 -0.011524 -0.000228
  0C   5s         0.000733  0.000202 -0.028101 -0.051686  5.031156  0.045440
  0C   4pz        0.002260  0.033220 -0.000247 -0.000068 -0.002990  1.506984
  0C   4px       -0.000170  0.000590  0.015500  0.010654  0.245868 -0.014952
  0C   4py        0.000129  0.000407 -0.004899 -0.005665 -0.103218 -0.001316
  0C   1dz2      -0.000214 -0.000037 -0.001849  0.005594 -0.004227  0.000038
  0C   1dxz       0.023117 -0.000767 -0.000025  0.000089  0.000026 -0.005332
  0C   1dyz      -0.005828 -0.001375  0.000005  0.000024 -0.000012  0.006032
  0C   1dx2y2     0.000020  0.000010  0.002736  0.003165 -0.002359  0.000027
  0C   1dxy       0.000098  0.000021  0.006418 -0.003214 -0.003019 -0.000039
  1C   1s         0.000000  0.000002  0.005860  0.002667  0.003517  0.000005
  1C   2s         0.000000  0.000003  0.010001  0.004555  0.005161  0.000010
  1C   1pz       -0.079214 -0.000765 -0.000096  0.000014 -0.000165  0.060431
  1C   1px        0.000239 -0.000048 -0.038954 -0.002156 -0.000893 -0.000209
  1C   1py        0.000113  0.000029  0.065115  0.036162  0.001710 -0.000038
  1C   3s         0.000039  0.000002 -0.024982 -0.011942  0.007128 -0.000106
  1C   2pz       -0.127866 -0.000947 -0.000146  0.000021 -0.000220  0.096018
  1C   2px        0.000423 -0.000136 -0.062159 -0.002577  0.002093 -0.000297
  1C   2py        0.000174  0.000040  0.101815  0.058516 -0.000404 -0.000173
  1C   4s        -0.000762  0.000034 -0.083543 -0.025839 -0.260827  0.000365
  1C   3pz       -0.093663 -0.007495  0.000006 -0.000160 -0.000451  0.178673
  1C   3px        0.000534 -0.000288 -0.014566 -0.042396  0.016382 -0.000560
  1C   3py        0.000060 -0.000180  0.033216 -0.006433 -0.005097  0.000635
  1C   5s        -0.000989 -0.000370 -0.019401  0.013796 -1.125896 -0.030915
  1C   4pz       -0.021620 -0.010332  0.000128 -0.000068 -0.000431 -0.655376
  1C   4px        0.000038 -0.000283  0.015255 -0.021755  0.143702 -0.001236
  1C   4py        0.000299 -0.000045 -0.018533 -0.027248 -0.151819  0.016714
  1C   1dz2       0.000046 -0.000440 -0.006535 -0.002425 -0.007637  0.000050
  1C   1dxz       0.015853 -0.056829  0.000369 -0.000075  0.000041  0.004488
  1C   1dyz      -0.024466 -0.028654  0.000130  0.000173  0.000048 -0.005148
  1C   1dx2y2    -0.000071  0.000305  0.055638 -0.018442  0.000664  0.000013
  1C   1dxy       0.000065  0.000127  0.039012  0.050442  0.001601  0.000125
  2H   1s         0.122027  0.004001  0.012499  0.032518  0.002555  0.004994
  2H   2s         0.169195 -0.001087  0.020528  0.050562  0.020867 -0.033432
  2H   3s         0.076220 -0.020171  0.001068  0.036545 -0.346992  0.189685
  2H   4s         0.024365 -0.024202  0.000549  0.009977 -1.702588 -3.402381
  2H   1pz       -0.004176  0.000395 -0.002032 -0.003878 -0.010649 -0.005308
  2H   1px       -0.009609  0.000756  0.001190  0.002026 -0.005942 -0.006373
  2H   1py        0.001054 -0.002018 -0.004916 -0.002675 -0.001092  0.001557
  3H   1s        -0.122956 -0.004085  0.012761  0.031963  0.002485 -0.005053
  3H   2s        -0.170539  0.000823  0.020719  0.049705  0.020651  0.033808
  3H   3s        -0.076828  0.019702  0.001117  0.035825 -0.348351 -0.193716
  3H   4s        -0.024468  0.023759  0.000351  0.009820 -1.709963  3.438219
  3H   1pz       -0.004334  0.000386  0.002040  0.003859  0.010703 -0.005432
  3H   1px        0.009570 -0.000737  0.001198  0.002083 -0.005885  0.006363
  3H   1py       -0.001117  0.001997 -0.004985 -0.002637 -0.001084 -0.001625
  4H   1s         0.000896  0.000121  0.039917 -0.033093  0.004016  0.000100
  4H   2s         0.001255  0.000299  0.072128 -0.041649  0.021323 -0.000148
  4H   3s         0.000416  0.000614  0.051628 -0.032188 -0.250103  0.000234
  4H   4s         0.000160  0.000510  0.016605 -0.000818 -1.391733 -0.048472
  4H   1pz        0.008142  0.000803 -0.000035  0.000011 -0.000039  0.002415
  4H   1px        0.000059  0.000004  0.005541 -0.001758  0.008228  0.000073
  4H   1py        0.000066  0.000024 -0.001680 -0.000012  0.007834  0.000091
  5O   1s         0.000016 -0.000010 -0.004620  0.000151 -0.009200 -0.000007
  5O   2s         0.000028 -0.000018 -0.007626  0.000082 -0.015747 -0.000014
  5O   1pz       -0.111773  0.201693  0.000061 -0.000052  0.000092 -0.016891
  5O   1px        0.000619 -0.000724  0.087091 -0.021052 -0.001111  0.000013
  5O   1py        0.000139  0.000080 -0.068732 -0.252592 -0.004107 -0.000160
  5O   3s        -0.000112  0.000074  0.022950  0.001765  0.052206  0.000084
  5O   2pz       -0.165360  0.295061  0.000057 -0.000055  0.000144 -0.020045
  5O   2px        0.000892 -0.001068  0.119467 -0.026949 -0.002876 -0.000031
  5O   2py        0.000204  0.000114 -0.097032 -0.369443 -0.004079 -0.000320
  5O   4s         0.000083 -0.000104  0.026066 -0.009015  0.081603 -0.000326
  5O   3pz       -0.152730  0.306026  0.000019 -0.000089  0.000230 -0.059059
  5O   3px        0.000990 -0.001229  0.116338 -0.033117  0.027793  0.000260
  5O   3py        0.000183  0.000154 -0.104855 -0.378014 -0.014900  0.000134
  5O   5s         0.000542 -0.000368  0.013074 -0.028880  0.325525  0.002521
  5O   4pz       -0.019622  0.090491 -0.000037 -0.000027  0.000877  0.037015
  5O   4px        0.000291 -0.000459  0.028198 -0.008400 -0.038335 -0.000145
  5O   4py       -0.000030 -0.000071 -0.035064 -0.108318  0.075935 -0.002664
  5O   1dz2      -0.000085  0.000073 -0.001465 -0.000039 -0.001185  0.000041
  5O   1dxz      -0.010916  0.011337  0.000016  0.000002  0.000006  0.003686
  5O   1dyz      -0.000326 -0.000905  0.000002 -0.000042  0.000004 -0.000653
  5O   1dx2y2     0.000057 -0.000044  0.004657 -0.000483  0.001159 -0.000021
  5O   1dxy       0.000013  0.000010  0.000297 -0.011329 -0.000425 -0.000012
  6O   1s         0.000006 -0.000000 -0.002673 -0.003486 -0.009039  0.000025
  6O   2s         0.000010  0.000000 -0.004470 -0.005652 -0.015470  0.000042
  6O   1pz       -0.100763 -0.208530  0.000709 -0.000830  0.000112 -0.006228
  6O   1px        0.000374  0.001143  0.157174 -0.143935  0.003220  0.000080
  6O   1py        0.000039 -0.000086 -0.176704  0.012268 -0.000311 -0.000111
  6O   3s        -0.000041 -0.000010  0.013629  0.015905  0.051582 -0.000121
  6O   2pz       -0.149808 -0.305077  0.001043 -0.001201  0.000167  0.000530
  6O   2px        0.000558  0.001670  0.229407 -0.207214  0.002355  0.000148
  6O   2py        0.000063 -0.000124 -0.254554  0.025910  0.001021 -0.000224
  6O   4s         0.000048  0.000153  0.021957  0.026135  0.076553 -0.000420
  6O   3pz       -0.136758 -0.315019  0.001058 -0.001211  0.000147 -0.060363
  6O   3px        0.000471  0.001692  0.241399 -0.209446  0.004231  0.000110
  6O   3py        0.000005 -0.000216 -0.263557  0.025823 -0.019847  0.000239
  6O   5s         0.000107  0.000331  0.004369  0.034189  0.236586 -0.001527
  6O   4pz       -0.013011 -0.089985  0.000337 -0.000347  0.000450  0.140917
  6O   4px        0.000068  0.000371  0.071796 -0.054728 -0.109818  0.001287
  6O   4py       -0.000062 -0.000006 -0.073811  0.006755  0.080442 -0.001765
  6O   1dz2       0.000048  0.000051 -0.001192 -0.000899 -0.001146 -0.000006
  6O   1dxz       0.006766  0.006507 -0.000031  0.000044  0.000007 -0.002725
  6O   1dyz       0.007746  0.009853  0.000001  0.000031  0.000011 -0.003463
  6O   1dx2y2    -0.000020 -0.000039 -0.008734  0.006753 -0.000529  0.000003
  6O   1dxy      -0.000035 -0.000048  0.000542  0.005706  0.000581  0.000012
                     18        19        20        21        22        23   
                   0.04393   0.05087   0.08208   0.08904   0.09170   0.09554
                   0.00000   0.00000   0.00000   0.00000   0.00000   0.00000
                  --------  --------  --------  --------  --------  --------
  0C   1s        -0.000068 -0.000442  0.000360 -0.000043 -0.000123  0.000101
  0C   2s        -0.000102 -0.000716  0.000796 -0.000062 -0.001116  0.000186
  0C   1pz        0.000324 -0.000096  0.000082 -0.012502 -0.000227 -0.012880
  0C   1px        0.034094  0.019455  0.018372 -0.000040 -0.002469  0.000203
  0C   1py        0.024747 -0.024268  0.012098  0.000185 -0.000549 -0.000186
  0C   3s         0.000707  0.003225 -0.010309 -0.000066  0.017847 -0.000782
  0C   2pz        0.000747 -0.000205  0.000134 -0.022795 -0.000568 -0.044991
  0C   2px        0.077835  0.036860  0.030593  0.000077 -0.019108  0.000527
  0C   2py        0.052009 -0.039583  0.019157  0.000068  0.019005 -0.000382
  0C   4s        -0.022449  0.087182  0.092777  0.003601 -0.157040  0.001092
  0C   3pz       -0.000391  0.000025 -0.000513 -0.092208 -0.000375  0.101909
  0C   3px       -0.028736  0.016664 -0.077976 -0.000531  0.067335 -0.000396
  0C   3py       -0.008505 -0.020985 -0.035619  0.001661 -0.069979 -0.000439
  0C   5s        -2.094671  8.564641  1.828244  0.057356 -3.522643  0.008638
  0C   4pz        0.010580  0.001115 -0.002442  0.422512  0.018954  1.439080
  0C   4px        1.787780 -0.813629 -0.590769  0.003367 -0.725624  0.013550
  0C   4py        0.463334  1.829208  0.089344 -0.001495  1.369389 -0.041994
  0C   1dz2      -0.000911  0.005490 -0.004351 -0.000319  0.017768  0.000077
  0C   1dxz      -0.000020 -0.000010 -0.000035  0.020750 -0.000197 -0.034557
  0C   1dyz       0.000018  0.000001 -0.000030 -0.016915  0.000016  0.018594
  0C   1dx2y2    -0.001139  0.005011 -0.000690 -0.000147  0.013021 -0.000159
  0C   1dxy       0.000656  0.006049  0.003309 -0.000024  0.016801 -0.000436
  1C   1s        -0.000716  0.001135 -0.001141 -0.000106  0.010905 -0.000184
  1C   2s        -0.001327  0.004016 -0.001940 -0.000182  0.018901 -0.000319
  1C   1pz        0.000174 -0.000099  0.000017 -0.083755  0.001272  0.194029
  1C   1px       -0.007843 -0.013386  0.025802  0.000440 -0.017222 -0.000475
  1C   1py       -0.006268  0.021949  0.012168 -0.000247  0.039000 -0.000752
  1C   3s         0.008779 -0.063585  0.006816  0.000683 -0.070585  0.001187
  1C   2pz        0.000317 -0.000071 -0.000106 -0.146302  0.001802  0.293476
  1C   2px       -0.003953 -0.002976  0.013569  0.000727 -0.023162 -0.000742
  1C   2py        0.000882  0.008488  0.004059 -0.000303  0.051244 -0.001020
  1C   4s        -0.032734  0.706173 -0.006416  0.000050  0.009910 -0.000164
  1C   3pz        0.000260 -0.000918  0.002853 -0.231119  0.004760  0.667051
  1C   3px       -0.079775 -0.213118  0.698734  0.000297 -0.021752 -0.001569
  1C   3py       -0.092789  0.329996  0.372632 -0.000137  0.102580 -0.002413
  1C   5s         1.651177 -4.381095 -1.392684 -0.050495  1.645090  0.055485
  1C   4pz       -0.006277 -0.001008  0.012753 -2.420038 -0.040269 -1.378926
  1C   4px       -0.568625 -1.696554  2.905901 -0.014897  1.450883  0.000922
  1C   4py       -1.232272  3.022757  2.114195  0.037089 -2.327919  0.010104
  1C   1dz2      -0.001335  0.001584 -0.001533 -0.000238  0.006651  0.000148
  1C   1dxz       0.000059  0.000034  0.000000 -0.009249 -0.000121  0.006053
  1C   1dyz      -0.000042  0.000025  0.000019  0.018604 -0.000043 -0.014138
  1C   1dx2y2     0.004441  0.009414  0.000286  0.000176 -0.011486  0.000085
  1C   1dxy      -0.009547  0.010383  0.000876  0.000086 -0.013754  0.000218
  2H   1s         0.007392  0.007982 -0.002021  0.029720  0.013332 -0.056181
  2H   2s        -0.005685  0.000146 -0.014812  0.081805  0.002028 -0.049940
  2H   3s         0.140973 -0.102300 -0.035462  0.197880  0.027363 -0.779009
  2H   4s        -2.023730 -0.867672 -1.313131  1.318350  0.479395  0.419224
  2H   1pz       -0.004818 -0.000324 -0.002524  0.001809  0.007224 -0.000369
  2H   1px       -0.001205 -0.002133  0.001428  0.005745 -0.003971 -0.004398
  2H   1py        0.001895  0.002487  0.002840 -0.005581  0.010675  0.001156
  3H   1s         0.007132  0.008040 -0.002046 -0.030205  0.014057  0.056272
  3H   2s        -0.005207 -0.000047 -0.014703 -0.082579  0.001890  0.050637
  3H   3s         0.135276 -0.100621 -0.038005 -0.201286  0.037401  0.778413
  3H   4s        -1.950112 -0.872351 -1.284552 -1.331661  0.439790 -0.453460
  3H   1pz        0.004710  0.000331  0.002472  0.001941 -0.007223 -0.000266
  3H   1px       -0.001043 -0.002132  0.001527 -0.005656 -0.003980  0.004489
  3H   1py        0.001869  0.002503  0.002810  0.005482  0.010746 -0.001553
  4H   1s        -0.017443  0.002732  0.004774  0.000213  0.008661 -0.000627
  4H   2s         0.007295  0.012471  0.026729  0.000609 -0.006855 -0.000042
  4H   3s        -0.190991 -0.201893 -0.238203  0.001567  0.132243 -0.011564
  4H   4s         4.310294 -0.248838  2.371541  0.008505  0.751501 -0.014862
  4H   1pz        0.000052  0.000006  0.000036 -0.000183  0.000081  0.003025
  4H   1px       -0.004975 -0.000962 -0.002619  0.000051 -0.009287  0.000164
  4H   1py       -0.007833  0.002265 -0.009516 -0.000154  0.009130 -0.000099
  5O   1s         0.004308  0.012900 -0.011131  0.000024  0.000510 -0.000002
  5O   2s         0.007674  0.022510 -0.019432  0.000042  0.000733  0.000001
  5O   1pz       -0.000069 -0.000009 -0.000061  0.097615  0.000000 -0.093889
  5O   1px        0.016663  0.019072 -0.014820 -0.000230 -0.002859  0.000263
  5O   1py        0.017051 -0.026271 -0.010954 -0.000263  0.020175 -0.000224
  5O   3s        -0.032086 -0.082848  0.072640 -0.000144 -0.001491 -0.000087
  5O   2pz       -0.000108 -0.000028 -0.000139  0.156954  0.000294 -0.126472
  5O   2px        0.029161  0.031125 -0.036660 -0.000390 -0.006355  0.000380
  5O   2py        0.029005 -0.044364 -0.018570 -0.000551  0.041930 -0.000453
  5O   4s         0.024695 -0.080207  0.074339 -0.000217 -0.014461  0.000827
  5O   3pz       -0.000158 -0.000211  0.000342  0.128880 -0.001470 -0.253635
  5O   3px        0.003043 -0.043400  0.103003 -0.000580  0.020185  0.000729
  5O   3py        0.011752 -0.027707 -0.028181  0.000361 -0.029771  0.000320
  5O   5s        -0.624783 -1.490596  2.590777 -0.001375 -0.056697 -0.002455
  5O   4pz       -0.000766 -0.001852  0.002036  0.635006  0.006550 -0.040677
  5O   4px       -0.002342 -0.257888  0.361533 -0.000136 -0.254936  0.002894
  5O   4py        0.178898 -0.328509 -0.306096 -0.006665  0.478126 -0.004151
  5O   1dz2      -0.000742  0.000996  0.000188 -0.000044  0.000711  0.000090
  5O   1dxz       0.000017 -0.000018 -0.000021 -0.001980  0.000105  0.010840
  5O   1dyz      -0.000005 -0.000001  0.000003  0.000713 -0.000016 -0.002923
  5O   1dx2y2     0.001084 -0.000727 -0.002072 -0.000003  0.000995 -0.000048
  5O   1dxy       0.001190 -0.000246  0.000294 -0.000032  0.003729 -0.000053
  6O   1s        -0.005969  0.010643  0.012924 -0.000008  0.001850 -0.000008
  6O   2s        -0.010399  0.018531  0.022522 -0.000014  0.003102 -0.000009
  6O   1pz        0.000166 -0.000019  0.000051  0.082827 -0.000072 -0.080121
  6O   1px        0.015077  0.016975 -0.020278 -0.000271 -0.014567  0.000630
  6O   1py        0.011955 -0.029030 -0.008447 -0.000243  0.011227 -0.000021
  6O   3s         0.038421 -0.066950 -0.083066  0.000059 -0.010946 -0.000034
  6O   2pz        0.000339 -0.000046  0.000033  0.136420  0.000150 -0.107807
  6O   2px        0.021695  0.028744 -0.038422 -0.000320 -0.031008  0.000952
  6O   2py        0.022544 -0.047821 -0.022716 -0.000435  0.024152 -0.000138
  6O   4s         0.020689 -0.077266 -0.089994 -0.000058 -0.010549  0.000717
  6O   3pz       -0.000192  0.000233  0.000442  0.093714 -0.001480 -0.218463
  6O   3px        0.017652  0.055926  0.028241 -0.000851  0.020083  0.001001
  6O   3py       -0.016617  0.013206  0.095701  0.000094 -0.028292  0.000535
  6O   5s         0.629067 -1.144823 -2.608330  0.004706 -0.369317 -0.002190
  6O   4pz        0.001683  0.001005  0.000477  0.656207  0.006400 -0.075969
  6O   4px       -0.057559  0.388989  0.043898  0.001146 -0.254505  0.002251
  6O   4py        0.044570 -0.068920  0.415851 -0.006465  0.520431 -0.004486
  6O   1dz2      -0.000408  0.001204 -0.001209 -0.000015  0.000850 -0.000035
  6O   1dxz      -0.000020 -0.000007  0.000000  0.002034 -0.000030 -0.005545
  6O   1dyz      -0.000016  0.000000  0.000009  0.002185 -0.000088 -0.009935
  6O   1dx2y2    -0.000493 -0.000230 -0.000738 -0.000026  0.003026 -0.000039
  6O   1dxy      -0.000873 -0.001475  0.001765 -0.000035  0.002148  0.000023
                     24        25        26        27        28        29   
                   0.11570   0.12232   0.13985   0.15268   0.21278   0.23117
                   0.00000   0.00000   0.00000   0.00000   0.00000   0.00000
                  --------  --------  --------  --------  --------  --------
  0C   1s        -0.006110 -0.000041  0.012002  0.038369  0.000020 -0.002192
  0C   2s        -0.010263 -0.000065  0.020848  0.065920  0.000946 -0.003036
  0C   1pz       -0.000001  0.014409  0.000240  0.000044 -0.000467 -0.018148
  0C   1px       -0.015567 -0.000004 -0.012772 -0.024955  0.047921 -0.115938
  0C   1py        0.007140  0.000111 -0.013011  0.039017  0.043595 -0.088577
  0C   3s         0.023265  0.000090 -0.072694 -0.175618 -0.032033  0.000168
  0C   2pz       -0.000108  0.042579  0.000546  0.000124 -0.000592 -0.019149
  0C   2px       -0.056431  0.000167 -0.031259 -0.053946  0.059755 -0.112607
  0C   2py       -0.010099  0.000240 -0.037433  0.077889  0.043420 -0.102347
  0C   4s         0.188404  0.002286 -0.004662 -0.657497  0.597405  0.155773
  0C   3pz        0.000627  0.055797  0.000010 -0.000381 -0.002986 -0.147641
  0C   3px        0.006831  0.000067 -0.113692 -0.083740  0.337067 -1.062634
  0C   3py        0.049029  0.000053  0.152430  0.103293  0.518770 -0.929547
  0C   5s         7.231040  0.099014-21.207595 30.160105  4.242971  5.578958
  0C   4pz        0.003599 -4.750991 -0.036281 -0.000433  0.028262  0.298787
  0C   4px        3.003702 -0.038311  6.653452 -1.730123 -1.988388 -0.225223
  0C   4py        5.325141  0.024120 -6.560744  4.113802 -0.891697  1.519575
  0C   1dz2      -0.027934 -0.000122 -0.012705  0.000023 -0.001604  0.024304
  0C   1dxz      -0.000418  0.030037  0.000118  0.000011 -0.000092  0.002798
  0C   1dyz      -0.000019  0.013734 -0.000105 -0.000039  0.000019  0.000606
  0C   1dx2y2     0.003611  0.000163 -0.006194  0.000101 -0.003091  0.013544
  0C   1dxy       0.026265  0.000059 -0.001193 -0.004712  0.000201 -0.034415
  1C   1s        -0.000765 -0.000052 -0.007369  0.001267 -0.019418 -0.015150
  1C   2s        -0.000891 -0.000080 -0.011518  0.001275 -0.030120 -0.023263
  1C   1pz        0.001095  0.102604 -0.000244 -0.000369  0.000033  0.004609
  1C   1px       -0.006179 -0.000457 -0.001311  0.003200  0.000902 -0.004264
  1C   1py        0.009807 -0.000018  0.003143 -0.007512  0.029286 -0.012316
  1C   3s        -0.008031 -0.000015  0.011981  0.008166  0.012361 -0.002601
  1C   2pz        0.001513  0.136095 -0.000417 -0.000455  0.000084  0.006075
  1C   2px       -0.028008 -0.000401 -0.001950  0.010202  0.017962 -0.030638
  1C   2py        0.005578  0.000093 -0.020870 -0.015563  0.000726 -0.029662
  1C   4s         0.109017  0.003332  0.476525 -0.377423  1.526878  1.583579
  1C   3pz        0.005050  0.433874 -0.000531 -0.001459 -0.000005  0.039701
  1C   3px        0.177851 -0.004335 -0.044721  0.075473 -0.337886  0.467750
  1C   3py        0.154867 -0.000900  0.413863  0.085658  0.619379  0.199918
  1C   5s       -10.062379 -0.115212 30.126509-19.068059 -2.054163 -4.282924
  1C   4pz        0.000624  1.141036  0.004057 -0.001947 -0.004922 -0.003402
  1C   4px       -2.566345 -0.008643  3.713975 -2.248084 -0.078320 -0.060487
  1C   4py        1.862921  0.030001 -8.445218  4.623756  0.190032  0.850343
  1C   1dz2      -0.018322 -0.000192  0.028389  0.005722 -0.018844 -0.007022
  1C   1dxz       0.000160 -0.000932 -0.000249 -0.000063  0.000169 -0.000189
  1C   1dyz      -0.000010 -0.001754 -0.000015  0.000037 -0.000032  0.000697
  1C   1dx2y2    -0.004998  0.000013 -0.009762 -0.003608  0.010702 -0.021077
  1C   1dxy       0.001301 -0.000051 -0.004996  0.003927 -0.003803  0.024696
  2H   1s        -0.018484  0.022156 -0.013097 -0.013323 -0.003678  0.022156
  2H   2s         0.045599 -0.127165  0.027505  0.205547 -0.065118  0.097026
  2H   3s        -0.698131  0.974641 -0.429644 -1.632471 -0.383935  0.873791
  2H   4s        -1.849965  4.710541 -3.567355 -2.908370  1.074348 -1.919340
  2H   1pz       -0.011297  0.004864 -0.003168  0.006229  0.000722  0.015825
  2H   1px        0.009138  0.012167  0.004759  0.005219  0.000728  0.004254
  2H   1py        0.008087  0.005489 -0.003739 -0.001010 -0.004579 -0.007074
  3H   1s        -0.017783 -0.022011 -0.013610 -0.013453 -0.003370  0.017893
  3H   2s         0.045895  0.127354  0.028129  0.204921 -0.065083  0.073623
  3H   3s        -0.685303 -0.976767 -0.444678 -1.633439 -0.380461  0.533361
  3H   4s        -1.821157 -4.697578 -3.618883 -2.907519  1.124809 -0.893963
  3H   1pz        0.011195  0.004888  0.003135 -0.006278 -0.000653 -0.011371
  3H   1px        0.009317 -0.012125  0.004718  0.005192  0.000749  0.000650
  3H   1py        0.008077 -0.005466 -0.003691 -0.000996 -0.004646 -0.008213
[...]
                            *     ORCA property calculations      *
                            ***************************************

                                    ---------------------
                                    Active property flags
                                    ---------------------
   (+) Dipole Moment


------------------------------------------------------------------------------
                       ORCA ELECTRIC PROPERTIES CALCULATION
------------------------------------------------------------------------------

Dipole Moment Calculation                       ... on
Quadrupole Moment Calculation                   ... off
Polarizability Calculation                      ... off
GBWName                                         ... acetate@water.gbw
Electron density file                           ... acetate@water.scfp
The origin for moment calculation is the CENTER OF MASS  = (-0.033286, -0.073370  0.000001)

-------------
DIPOLE MOMENT
-------------
                                X             Y             Z
Electronic contribution:     -1.33028       2.49073       0.00131
Nuclear contribution   :      2.33405      -4.47976      -0.00042
                        -----------------------------------------
Total Dipole Moment    :      1.00377      -1.98903       0.00089
                        -----------------------------------------
Magnitude (a.u.)       :      2.22796
Magnitude (Debye)      :      5.66302



--------------------
Rotational spectrum 
--------------------
 
Rotational constants in cm-1:     0.394495     0.332909     0.186812 
Rotational constants in MHz : 11826.677421  9980.349480  5600.473434 

 Dipole components along the rotational axes: 
x,y,z [a.u.] :     2.224496    -0.124134    -0.000444 
x,y,z [Debye]:     5.654220    -0.315523    -0.001128 

 

----------------------------------------------------------------------------
                           ORCA NUMERICAL FREQUENCIES
                              (6-process run)
----------------------------------------------------------------------------

Number of atoms                ... 7
Central differences            ... used
Number of displacements        ... 42
Numerical increment            ... 5.000e-03 bohr
IR-spectrum generation         ... on
Raman-spectrum generation      ... off
Surface Crossing Hessian       ... off

The output will be reduced. Please look at the following files:
SCF program output             ... >acetate@water.lastscf
Integral program output        ... >acetate@water.lastint
Gradient program output        ... >acetate@water.lastgrad
Dipole moment program output   ... >acetate@water.lastmom
AutoCI program output          ... >acetate@water.lastautoci


         <<< Energy and Gradient at the input geometry >>>

        <<< Energy and Gradient at displaced geometries >>>
             <<<Displacing   1/coordinate 3 (+)>>>
             <<<Displacing   1/coordinate 1 (+)>>>
             <<<Displacing   2/coordinate 1 (+)>>>
             <<<Displacing   2/coordinate 3 (+)>>>
             <<<Displacing   2/coordinate 2 (+)>>>
             <<<Displacing   1/coordinate 2 (+)>>>
             <<<Displacing   1/coordinate 3 (-)>>>
             <<<Displacing   2/coordinate 3 (-)>>>
             <<<Displacing   1/coordinate 1 (-)>>>
             <<<Displacing   1/coordinate 2 (-)>>>
             <<<Displacing   2/coordinate 2 (-)>>>
             <<<Displacing   2/coordinate 1 (-)>>>
             <<<Displacing   3/coordinate 1 (+)>>>
             <<<Displacing   3/coordinate 2 (+)>>>
             <<<Displacing   3/coordinate 3 (+)>>>
             <<<Displacing   4/coordinate 1 (+)>>>
             <<<Displacing   4/coordinate 2 (+)>>>
             <<<Displacing   4/coordinate 3 (+)>>>
             <<<Displacing   3/coordinate 1 (-)>>>
             <<<Displacing   3/coordinate 2 (-)>>>
             <<<Displacing   3/coordinate 3 (-)>>>
             <<<Displacing   4/coordinate 1 (-)>>>
             <<<Displacing   4/coordinate 2 (-)>>>
             <<<Displacing   4/coordinate 3 (-)>>>
             <<<Displacing   5/coordinate 1 (+)>>>
             <<<Displacing   5/coordinate 2 (+)>>>
             <<<Displacing   5/coordinate 3 (+)>>>
             <<<Displacing   6/coordinate 1 (+)>>>
             <<<Displacing   6/coordinate 2 (+)>>>
             <<<Displacing   6/coordinate 3 (+)>>>
             <<<Displacing   5/coordinate 3 (-)>>>
             <<<Displacing   5/coordinate 2 (-)>>>
             <<<Displacing   5/coordinate 1 (-)>>>
             <<<Displacing   6/coordinate 1 (-)>>>
             <<<Displacing   6/coordinate 3 (-)>>>
             <<<Displacing   6/coordinate 2 (-)>>>
             <<<Displacing   7/coordinate 1 (+)>>>
             <<<Displacing   7/coordinate 2 (+)>>>
             <<<Displacing   7/coordinate 3 (+)>>>
             <<<Displacing   7/coordinate 1 (-)>>>
             <<<Displacing   7/coordinate 2 (-)>>>
             <<<Displacing   7/coordinate 3 (-)>>>

-----------------------
VIBRATIONAL FREQUENCIES
-----------------------

Scaling factor for frequencies =  1.000000000 (already applied!)

   0:         0.00 cm**-1
   1:         0.00 cm**-1
   2:         0.00 cm**-1
   3:         0.00 cm**-1
   4:         0.00 cm**-1
   5:         0.00 cm**-1
   6:        79.10 cm**-1
   7:       463.10 cm**-1
   8:       627.82 cm**-1
   9:       657.28 cm**-1
  10:       942.28 cm**-1
  11:      1033.50 cm**-1
  12:      1063.83 cm**-1
  13:      1362.86 cm**-1
  14:      1436.28 cm**-1
  15:      1464.39 cm**-1
  16:      1467.81 cm**-1
  17:      1556.76 cm**-1
  18:      3074.15 cm**-1
  19:      3146.37 cm**-1
  20:      3173.54 cm**-1


------------
NORMAL MODES
------------

These modes are the cartesian displacements weighted by the diagonal matrix
M(i,i)=1/sqrt(m[i]) where m[i] is the mass of the displaced atom
Thus, these vectors are normalized but *not* orthogonal

                  0          1          2          3          4          5    
      0       0.000000   0.000000   0.000000   0.000000   0.000000   0.000000
      1       0.000000   0.000000   0.000000   0.000000   0.000000   0.000000
      2       0.000000   0.000000   0.000000   0.000000   0.000000   0.000000
      3       0.000000   0.000000   0.000000   0.000000   0.000000   0.000000
      4       0.000000   0.000000   0.000000   0.000000   0.000000   0.000000
      5       0.000000   0.000000   0.000000   0.000000   0.000000   0.000000
      6       0.000000   0.000000   0.000000   0.000000   0.000000   0.000000
      7       0.000000   0.000000   0.000000   0.000000   0.000000   0.000000
      8       0.000000   0.000000   0.000000   0.000000   0.000000   0.000000
      9       0.000000   0.000000   0.000000   0.000000   0.000000   0.000000
     10       0.000000   0.000000   0.000000   0.000000   0.000000   0.000000
     11       0.000000   0.000000   0.000000   0.000000   0.000000   0.000000
     12       0.000000   0.000000   0.000000   0.000000   0.000000   0.000000
     13       0.000000   0.000000   0.000000   0.000000   0.000000   0.000000
     14       0.000000   0.000000   0.000000   0.000000   0.000000   0.000000
     15       0.000000   0.000000   0.000000   0.000000   0.000000   0.000000
     16       0.000000   0.000000   0.000000   0.000000   0.000000   0.000000
     17       0.000000   0.000000   0.000000   0.000000   0.000000   0.000000
     18       0.000000   0.000000   0.000000   0.000000   0.000000   0.000000
     19       0.000000   0.000000   0.000000   0.000000   0.000000   0.000000
     20       0.000000   0.000000   0.000000   0.000000   0.000000   0.000000
                  6          7          8          9         10         11    
      0       0.000300   0.168243   0.000735   0.203361   0.176824   0.140102
      1       0.000229   0.097358  -0.009747  -0.354805  -0.266663   0.096170
      2      -0.007676   0.001150  -0.029071   0.001652   0.001749   0.020564
      3      -0.000150  -0.136753   0.006454   0.055275  -0.130228   0.003492
      4       0.000067  -0.065895  -0.000766  -0.133550   0.254952  -0.009704
      5      -0.018741  -0.005337  -0.306183   0.016526  -0.002904  -0.027722
      6      -0.465193   0.214883  -0.216488   0.214317   0.180268   0.002689
      7      -0.184155   0.441387   0.526346  -0.425376  -0.493941  -0.477838
      8       0.326372  -0.003483   0.182168  -0.005712  -0.005816   0.069753
      9       0.472694   0.227219   0.218454   0.191424   0.171798  -0.087517
     10       0.184055   0.399853  -0.548004  -0.369735  -0.478895  -0.345199
     11       0.317607   0.015773   0.179119  -0.012191   0.003290  -0.101332
     12      -0.003222   0.571161  -0.008301   0.212249   0.158855  -0.455189
     13      -0.001708  -0.253627   0.002135  -0.374835  -0.275449   0.618084
     14      -0.528643   0.012908   0.383163  -0.017731   0.001072  -0.038109
     15      -0.000901  -0.140499   0.002526   0.078552  -0.302356  -0.046090
     16       0.000027   0.158444   0.003932   0.331955  -0.075847   0.021779
     17       0.056313   0.000347   0.095275  -0.002843  -0.002985   0.005126
     18       0.000518   0.053019  -0.007525  -0.311655   0.235185  -0.027688
     19      -0.000136  -0.219086   0.005190   0.108382   0.163285  -0.073779
     20      -0.043747   0.001209   0.109508  -0.008559   0.003944   0.004638
                 12         13         14         15         16         17    
      0       0.023649  -0.071990   0.062836   0.011542   0.007319   0.037797
      1       0.011849   0.107718  -0.000042  -0.090709  -0.066322  -0.006179
      2      -0.167927  -0.004164  -0.002046   0.041376  -0.045450   0.000866
      3      -0.001467  -0.022986  -0.102350  -0.034710  -0.019159  -0.563082
      4      -0.001098   0.076081   0.115721   0.187868   0.117366  -0.216209
      5       0.218045   0.000273  -0.002114   0.020351  -0.023013  -0.006440
      6      -0.360384   0.239873  -0.502781   0.360463  -0.006860   0.314155
      7       0.417742  -0.492221  -0.108102   0.557460  -0.246004  -0.052842
      8       0.163118  -0.269372   0.399965  -0.168562  -0.033446  -0.211525
      9       0.342042   0.269468  -0.499436   0.081502   0.308348   0.313647
     10      -0.543161  -0.465794  -0.082653  -0.159264   0.576856  -0.051440
     11       0.122174   0.275703  -0.387038   0.080237   0.122606   0.204740
     12      -0.082417   0.377535   0.283525  -0.287382  -0.205404  -0.364862
     13       0.110431  -0.298236  -0.219860   0.171357   0.132229   0.333579
     14       0.378552   0.037470   0.019820  -0.563610   0.639210  -0.000749
     15      -0.007383   0.047107   0.098035   0.061691   0.036428   0.249122
     16       0.002550  -0.006254  -0.014035  -0.014493  -0.008849   0.002564
     17      -0.041861   0.000403   0.001242  -0.001338   0.002683   0.002757
     18      -0.002922  -0.031682  -0.023090  -0.054037  -0.033593   0.128661
     19      -0.009677  -0.052582  -0.046940  -0.094332  -0.058648   0.149943
     20      -0.037589  -0.000241  -0.000182  -0.003928   0.002824   0.001903
                  18         19         20    
      0       0.033566  -0.000155  -0.080065
      1      -0.038483  -0.001055  -0.051155
      2      -0.001098   0.092727  -0.000778
      3      -0.001081  -0.000045  -0.002281
      4       0.002467   0.000085   0.000453
      5      -0.000010   0.000476  -0.000029
      6      -0.357226  -0.425878   0.199237
      7       0.032763   0.044055  -0.027822
      8      -0.493491  -0.559227   0.286034
      9      -0.356227   0.414940   0.179705
     10       0.036424  -0.047433  -0.027774
     11       0.510421  -0.566007  -0.270008
     12       0.327972   0.013318   0.580529
     13       0.358933   0.014934   0.652421
     14      -0.003850   0.012765  -0.006579
     15       0.000016   0.000010   0.001090
     16       0.000095   0.000012  -0.000120
     17       0.000003   0.000228   0.000001
     18      -0.000117  -0.000010   0.000280
     19      -0.000030  -0.000011   0.000582
     20       0.000004  -0.000109   0.000009


-----------
IR SPECTRUM  
-----------

 Mode    freq (cm**-1)   T**2         TX         TY         TZ
-------------------------------------------------------------------
   6:        79.10    0.153539  ( -0.019424   0.018866   0.390903)
   7:       463.10    1.586684  (  0.789817   0.980523   0.038039)
   8:       627.82   18.874522  (  0.222272  -0.213735  -4.333524)
   9:       657.28   60.391508  (  3.704614  -6.830347   0.117034)
  10:       942.28   20.175079  ( -1.541632   4.218794  -0.014950)
  11:      1033.50   27.665453  (  4.594411   2.465630  -0.691019)
  12:      1063.83   22.500804  (  0.566170   0.468569   4.686224)
  13:      1362.86   17.149735  (  2.683643   3.152594   0.094579)
  14:      1436.28  269.550660  (-14.664813   7.381958   0.024871)
  15:      1464.39  277.316685  (  0.861585  16.488101  -2.171836)
  16:      1467.81  158.211575  (  0.696086  12.146618   3.191663)
  17:      1556.76  1456.622935  (-35.057028 -15.080327  -0.459801)
  18:      3074.15    4.867862  (  1.173567  -1.868252   0.015472)
  19:      3146.37   10.768801  (  0.043603  -0.096063   3.279889)
  20:      3173.54   25.048314  ( -3.558375  -3.518890  -0.060779)

The first frequency considered to be a vibration is 6
The total number of vibrations considered is 15


--------------------------
THERMOCHEMISTRY AT 298.15K
--------------------------

Temperature         ... 298.15 K
Pressure            ... 1.00 atm
Total Mass          ... 59.04 AMU

Throughout the following assumptions are being made:
  (1) The electronic state is orbitally nondegenerate
  (2) There are no thermally accessible electronically excited states
  (3) Hindered rotations indicated by low frequency modes are not
      treated as such but are treated as vibrations and this may
      cause some error
  (4) All equations used are the standard statistical mechanics
      equations for an ideal gas
  (5) All vibrations are strictly harmonic

freq.      79.10  E(vib)   ...       0.49 
freq.     463.10  E(vib)   ...       0.16 
freq.     627.82  E(vib)   ...       0.09 
freq.     657.28  E(vib)   ...       0.08 
freq.     942.28  E(vib)   ...       0.03 
freq.    1033.50  E(vib)   ...       0.02 
freq.    1063.83  E(vib)   ...       0.02 
freq.    1362.86  E(vib)   ...       0.01 
freq.    1436.28  E(vib)   ...       0.00 
freq.    1464.39  E(vib)   ...       0.00 
freq.    1467.81  E(vib)   ...       0.00 
freq.    1556.76  E(vib)   ...       0.00 
freq.    3074.15  E(vib)   ...       0.00 
freq.    3146.37  E(vib)   ...       0.00 
freq.    3173.54  E(vib)   ...       0.00 

------------
INNER ENERGY
------------

The inner energy is: U= E(el) + E(ZPE) + E(vib) + E(rot) + E(trans)
    E(el)   - is the total energy from the electronic structure calculation
              = E(kin-el) + E(nuc-el) + E(el-el) + E(nuc-nuc)
    E(ZPE)  - the the zero temperature vibrational energy from the frequency calculation
    E(vib)  - the the finite temperature correction to E(ZPE) due to population
              of excited vibrational states
    E(rot)  - is the rotational thermal energy
    E(trans)- is the translational thermal energy

Summary of contributions to the inner energy U:
Electronic energy                ...   -228.61727432 Eh
Zero point energy                ...      0.04909234 Eh      30.81 kcal/mol
Thermal vibrational correction   ...      0.00144206 Eh       0.90 kcal/mol
Thermal rotational correction    ...      0.00141627 Eh       0.89 kcal/mol
Thermal translational correction ...      0.00141627 Eh       0.89 kcal/mol
-----------------------------------------------------------------------
Total thermal energy                   -228.56390737 Eh


Summary of corrections to the electronic energy:
(perhaps to be used in another calculation)
Total thermal correction                  0.00427460 Eh       2.68 kcal/mol
Non-thermal (ZPE) correction              0.04909234 Eh      30.81 kcal/mol
-----------------------------------------------------------------------
Total correction                          0.05336695 Eh      33.49 kcal/mol


--------
ENTHALPY
--------

The enthalpy is H = U + kB*T
                kB is Boltzmann's constant
Total free energy                 ...   -228.56390737 Eh 
Thermal Enthalpy correction       ...      0.00094421 Eh       0.59 kcal/mol
-----------------------------------------------------------------------
Total Enthalpy                    ...   -228.56296317 Eh


Note: Only C1 symmetry has been detected, increase convergence thresholds 
      if your molecule has a higher symmetry. Symmetry factor of 1.0 is   
      used for the rotational entropy correction. 
 

Note: Rotational entropy computed according to Herzberg 
Infrared and Raman Spectra, Chapter V,1, Van Nostrand Reinhold, 1945 
Point Group:  C1, Symmetry Number:   1  
Rotational constants in cm-1:     0.394495     0.332909     0.186812 

Vibrational entropy computed according to the QRRHO of S. Grimme
Chem.Eur.J. 2012 18 9955


-------
ENTROPY
-------

The entropy contributions are T*S = T*(S(el)+S(vib)+S(rot)+S(trans))
     S(el)   - electronic entropy
     S(vib)  - vibrational entropy
     S(rot)  - rotational entropy
     S(trans)- translational entropy
The entropies will be listed as mutliplied by the temperature to get
units of energy

Electronic entropy                ...      0.00000000 Eh      0.00 kcal/mol
Vibrational entropy               ...      0.00246574 Eh      1.55 kcal/mol
Rotational entropy                ...      0.01126117 Eh      7.07 kcal/mol
Translational entropy             ...      0.01812503 Eh     11.37 kcal/mol
-----------------------------------------------------------------------
Final entropy term                ...      0.03185194 Eh     19.99 kcal/mol

In case the symmetry of your molecule has not been determined correctly
or in case you have a reason to use a different symmetry number we print 
out the resulting rotational entropy values for sn=1,12 :
 --------------------------------------------------------
|  sn= 1 | S(rot)=       0.01126117 Eh      7.07 kcal/mol|
|  sn= 2 | S(rot)=       0.01060672 Eh      6.66 kcal/mol|
|  sn= 3 | S(rot)=       0.01022389 Eh      6.42 kcal/mol|
|  sn= 4 | S(rot)=       0.00995226 Eh      6.25 kcal/mol|
|  sn= 5 | S(rot)=       0.00974157 Eh      6.11 kcal/mol|
|  sn= 6 | S(rot)=       0.00956943 Eh      6.00 kcal/mol|
|  sn= 7 | S(rot)=       0.00942388 Eh      5.91 kcal/mol|
|  sn= 8 | S(rot)=       0.00929781 Eh      5.83 kcal/mol|
|  sn= 9 | S(rot)=       0.00918660 Eh      5.76 kcal/mol|
|  sn=10 | S(rot)=       0.00908712 Eh      5.70 kcal/mol|
|  sn=11 | S(rot)=       0.00899713 Eh      5.65 kcal/mol|
|  sn=12 | S(rot)=       0.00891497 Eh      5.59 kcal/mol|
 --------------------------------------------------------


-------------------
GIBBS FREE ENERGY
-------------------

The Gibbs free energy is G = H - T*S

Total enthalpy                    ...   -228.56296317 Eh 
Total entropy correction          ...     -0.03185194 Eh    -19.99 kcal/mol
-----------------------------------------------------------------------
Final Gibbs free energy         ...   -228.59481510 Eh

For completeness - the Gibbs free energy minus the electronic energy
G-E(el)                           ...      0.02245922 Eh     14.09 kcal/mol


Total Time for Numerical Frequencies  :       456.850 sec

Timings for individual modules:

Sum of individual times         ...      190.298 sec (=   3.172 min)
GTO integral calculation        ...        7.910 sec (=   0.132 min)   4.2 %
SCF iterations                  ...      145.607 sec (=   2.427 min)  76.5 %
SCF Gradient evaluation         ...       36.539 sec (=   0.609 min)  19.2 %
Geometry relaxation             ...        0.241 sec (=   0.004 min)   0.1 %
                             ****ORCA TERMINATED NORMALLY****
TOTAL RUN TIME: 0 days 0 hours 10 minutes 38 seconds 748 msec
