SLURM_JOB_ID=84

                                 *****************
                                 * O   R   C   A *
                                 *****************

           --- An Ab Initio, DFT and Semiempirical electronic structure package ---

                  #######################################################
                  #                        -***-                        #
                  #          Department of theory and spectroscopy      #
                  #               Directorship: Frank Neese             #
                  #        Max Planck Institute fuer Kohlenforschung    #
                  #                Kaiser Wilhelm Platz 1               #
                  #                 D-45470 Muelheim/Ruhr               #
                  #                      Germany                        #
                  #                                                     #
                  #                  All rights reserved                #
                  #                        -***-                        #
                  #######################################################


                         Program Version 4.2.1 -  RELEASE  -


 With contributions from (in alphabetic order):
   Daniel Aravena         : Magnetic Suceptibility
   Michael Atanasov       : Ab Initio Ligand Field Theory (pilot matlab implementation)
   Alexander A. Auer      : GIAO ZORA, VPT2
   Ute Becker             : Parallelization
   Giovanni Bistoni       : ED, misc. LED, open-shell LED, HFLD
   Martin Brehm           : Molecular dynamics
   Dmytro Bykov           : SCF Hessian
   Vijay G. Chilkuri      : MRCI spin determinant printing, contributions to CSF-ICE
   Dipayan Datta          : RHF DLPNO-CCSD density
   Achintya Kumar Dutta   : EOM-CC, STEOM-CC
   Dmitry Ganyushin       : Spin-Orbit,Spin-Spin,Magnetic field MRCI
   Miquel Garcia          : C-PCM Hessian, Gaussian charge scheme
   Yang Guo               : DLPNO-NEVPT2, CIM, IAO-localization
   Andreas Hansen         : Spin unrestricted coupled pair/coupled cluster methods
   Benjamin Helmich-Paris : CASSCF linear response (MC-RPA)
   Lee Huntington         : MR-EOM, pCC
   Robert Izsak           : Overlap fitted RIJCOSX, COSX-SCS-MP3, EOM
   Christian Kollmar      : KDIIS, OOCD, Brueckner-CCSD(T), CCSD density
   Simone Kossmann        : Meta GGA functionals, TD-DFT gradient, OOMP2, MP2 Hessian
   Martin Krupicka        : AUTO-CI
   Lucas Lang             : DCDCAS
   Dagmar Lenk            : GEPOL surface, SMD
   Dimitrios Liakos       : Extrapolation schemes; Compound Job, initial MDCI parallelization
   Dimitrios Manganas     : Further ROCIS development; embedding schemes
   Dimitrios Pantazis     : SARC Basis sets
   Taras Petrenko         : DFT Hessian,TD-DFT gradient, ASA, ECA, R-Raman, ABS, FL, XAS/XES, NRVS
   Peter Pinski           : DLPNO-MP2, DLPNO-MP2 Gradient
   Christoph Reimann      : Effective Core Potentials
   Marius Retegan         : Local ZFS, SOC
   Christoph Riplinger    : Optimizer, TS searches, QM/MM, DLPNO-CCSD(T), (RO)-DLPNO pert. Triples
   Tobias Risthaus        : Range-separated hybrids, TD-DFT gradient, RPA, STAB
   Michael Roemelt        : Original ROCIS implementation
   Masaaki Saitow         : Open-shell DLPNO-CCSD energy and density
   Barbara Sandhoefer     : DKH picture change effects
   Avijit Sen             : IP-ROCIS
   Kantharuban Sivalingam : CASSCF convergence, NEVPT2, FIC-MRCI
   Bernardo de Souza      : ESD, SOC TD-DFT
   Georgi Stoychev        : AutoAux, RI-MP2 NMR
   Willem Van den Heuvel  : Paramagnetic NMR
   Boris Wezisla          : Elementary symmetry handling
   Frank Wennmohs         : Technical directorship


 We gratefully acknowledge several colleagues who have allowed us to
 interface, adapt or use parts of their codes:
   Stefan Grimme, W. Hujo, H. Kruse,             : VdW corrections, initial TS optimization,
                  C. Bannwarth                     DFT functionals, gCP, sTDA/sTD-DF
   Ed Valeev, F. Pavosevic, A. Kumar             : LibInt (2-el integral package), F12 methods
   Garnet Chan, S. Sharma, J. Yang, R. Olivares  : DMRG
   Ulf Ekstrom                                   : XCFun DFT Library
   Mihaly Kallay                                 : mrcc  (arbitrary order and MRCC methods)
   Andreas Klamt, Michael Diedenhofen            : otool_cosmo (COSMO solvation model)
   Jiri Pittner, Ondrej Demel                    : Mk-CCSD
   Frank Weinhold                                : gennbo (NPA and NBO analysis)
   Christopher J. Cramer and Donald G. Truhlar   : smd solvation model
   Lars Goerigk                                  : TD-DFT with DH, B97 family of functionals
   V. Asgeirsson, H. Jonsson                     : NEB implementation
   FAccTs GmbH                                   : IRC, NEB, NEB-TS, Multilevel, MM, QM/MM, CI optimization
   S Lehtola, MJT Oliveira, MAL Marques          : LibXC Library


 Your calculation uses the libint2 library for the computation of 2-el integrals
 For citations please refer to: http://libint.valeyev.net

 Your ORCA version has been built with support for libXC version: 4.2.3
 For citations please refer to: https://tddft.org/programs/libxc/

 This ORCA versions uses:
   CBLAS   interface :  Fast vector & matrix operations
   LAPACKE interface :  Fast linear algebra routines
   SCALAPACK package :  Parallel linear algebra routines




***************************************
The coordinates will be read from file: init.xyz
***************************************


Your calculation utilizes the SMD solvation module
Please cite in your paper:
A.V. Marenich, C.J. Cramer, D.G. Truhlar J. Phys. Chem. B, 113, (2009), 6378 

Your calculation utilizes the semiempirical GFN2-xTB method
Please cite in your paper:
C. Bannwarth, Ehlert S., S. Grimme,  J. Chem. Theory Comput., 15, (2019), 1652.
   

----- Orbital basis set information -----
Your calculation utilizes the basis: def2-SVP
   F. Weigend and R. Ahlrichs, Phys. Chem. Chem. Phys. 7, 3297 (2005).

================================================================================
                                        WARNINGS
                       Please study these warnings very carefully!
================================================================================

WARNING: Gradients needed for Numerical Frequencies
  ===> : Setting RunTyp to EnGrad

WARNING: The environment variable RSH_COMMAND is not set!
  ===> : All Displacements for the Numerical Hessian calculation
         will be started on localhost

WARNING: Found dipole moment calculation with XTB calculation
  ===> : Switching off dipole moment calculation


INFO   : the flag for use of LIBINT has been found!

================================================================================
                                       INPUT FILE
================================================================================
NAME = /tmp/slurm-scratch/freq.84/freq.inp
|  1> ! XTB2 NumFreq
|  2> %maxcore 2000
|  3> 
|  4> * xyzfile 0 1 init.xyz
|  5> 
|  6> %cpcm
|  7>  smd true
|  8>  smdsolvent "ch2cl2"
|  9> end
| 10> %pal nprocs 11 end
| 11> 
| 12>                          ****END OF INPUT****
================================================================================

                     *******************************
                     * Energy+Gradient Calculation *
                     *******************************

      -----------------------------------------------------------      
     |                   =====================                   |     
     |                           x T B                           |     
     |                   =====================                   |     
     |                         S. Grimme                         |     
     |          Mulliken Center for Theoretical Chemistry        |     
     |                    University of Bonn                     |     
      -----------------------------------------------------------      

   * xtb version 6.3.1 (461a024) compiled by 'schneider@apollo14' on 2020-06-26

   xtb is free software: you can redistribute it and/or modify it under
   the terms of the GNU Lesser General Public License as published by
   the Free Software Foundation, either version 3 of the License, or
   (at your option) any later version.
   
   xtb is distributed in the hope that it will be useful,
   but WITHOUT ANY WARRANTY; without even the implied warranty of
   MERCHANTABILITY or FITNESS FOR A PARTICULAR PURPOSE.  See the
   GNU Lesser General Public License for more details.
   
   Cite this work as:
   * S. Grimme, C. Bannwarth, P. Shushkov, J. Chem. Theory Comput., 2017,
     13, 1989-2009. DOI: 10.1021/acs.jctc.7b00118
   * C. Bannwarth, S. Ehlert and S. Grimme., J. Chem. Theory Comput., 2019,
     15, 1652-1671. DOI: 10.1021/acs.jctc.8b01176
   * P. Pracht, E. Caldeweyher, S. Ehlert, S. Grimme, ChemRxiv, 2019, preprint.
     DOI: 10.26434/chemrxiv.8326202.v1
   
   for GFN-FF:
   * S. Spicher and S. Grimme, Angew. Chem. Int. Ed., 2020,
     DOI: 10.1002/anie.202004239
   
   for DFT-D4:
   * E. Caldeweyher, C. Bannwarth and S. Grimme, J. Chem. Phys., 2017,
     147, 034112. DOI: 10.1063/1.4993215
   * E. Caldeweyher, S. Ehlert, A. Hansen, H. Neugebauer, S. Spicher,
     C. Bannwarth and S. Grimme, J. Chem. Phys., 2019, 150, 154122.
     DOI: 10.1063/1.5090222
   
   for sTDA-xTB:
   * S. Grimme and C. Bannwarth, J. Chem. Phys., 2016, 145, 054103.
     DOI: 10.1063/1.4959605
   
   in the mass-spec context:
   * V. Asgeirsson, C. Bauer and S. Grimme, Chem. Sci., 2017, 8, 4879.
     DOI: 10.1039/c7sc00601b
   * J. Koopman and S. Grimme, ACS Omega 2019, 4, 12, 15120-15133.
     DOI: 10.1021/acsomega.9b02011
   
   for metadynamics refer to:
   * S. Grimme, J. Chem. Theory Comput., 2019, 155, 2847-2862
     DOI: 10.1021/acs.jctc.9b00143
   
   with help from (in alphabetical order)
   C. Bannwarth, F. Bohle, G. Brandenburg, E. Caldeweyher, M. Checinski,
   S. Dohm, S. Ehlert, S. Ehrlich, F. März, H. Neugebauer, J. Pisarek,
   P. Pracht, P. Shushkov, and S. Spicher.
   
 * started run on 2020/08/05 at 11:49:47.065     

           -------------------------------------------------
          |                Calculation Setup                |
           -------------------------------------------------

          program call               : /opt/orca/otool_xtb /tmp/slurm-scratch/freq.84/freq_XTB.xyz --grad -c 0 -u 0 -P 11 --namespace /tmp/slurm-scratch/freq.84/freq --gbsa CH2Cl2
          hostname                   : apollo14
          calculation namespace      : /tmp/slurm-scratch/freq.84/freq
          coordinate file            : /tmp/slurm-scratch/freq.84/freq_XTB.xyz
          omp threads                :                    11
          number of atoms            :                    27
          number of electrons        :                    64
          charge                     :                     0
          spin                       :                   0.0
          first test random number   :      0.19241629611380

   ID    Z sym.   atoms
    1    6 C      1-6, 10, 13, 14, 19, 24
    2    1 H      7-9, 11, 15-18, 20-23, 25-27
    3    7 N      12
########################################################################
[WARNING] Please study the warnings concerning your input carefully
-1- prog_main_parseArguments: Process number higher than OMP_NUM_THREADS, I hope you know what you are doing.
########################################################################

           -------------------------------------------------
          |                 G F N 2 - x T B                 |
           -------------------------------------------------

        Reference                      10.1021/acs.jctc.8b01176
      * Hamiltonian:
        H0-scaling (s, p, d)           1.850000    2.230000    2.230000
        zeta-weighting                 0.500000
      * Dispersion:
        s8                             2.700000
        a1                             0.520000
        a2                             5.000000
        s9                             5.000000
      * Repulsion:
        kExp                           1.500000    1.000000
        rExp                           1.000000
      * Coulomb:
        alpha                          2.000000
        third order                    shell-resolved
        anisotropic                    true
        a3                             3.000000
        a5                             4.000000
        cn-shift                       1.200000
        cn-exp                         4.000000
        max-rad                        5.000000

      * Solvation model:               GBSA
        Solvent                        CH2Cl2
        Parameter file                 internal GFN2-xTB/GBSA
        Dielectric constant                8.9300E+00
        Reference state                gsolv [1 M gas/solution]
        Free energy shift                  4.4408E-03 Eh       2.7867E+00 kcal/mol
        Temperature                        2.9815E+02 K
        Density                            1.3300E+00 kg/L
        Solvent mass                       8.4930E+01 g/mol
        Interaction kernel             Still
        Born radius scaling (c1)           1.4917E+00
        Born radii integrator          GBOBC
        Born offset                        0.0000E+00 a0       0.0000E+00 AA
        H-bond correction              false
        Ion screening                  false
        Surface tension                    1.0000E-05 Eh       1.5569E+01 dyn/cm
        Grid points                               230 per atom

          ...................................................
          :                      SETUP                      :
          :.................................................:
          :  # basis functions                  63          :
          :  # atomic orbitals                  63          :
          :  # shells                           39          :
          :  # electrons                        64          :
          :  max. iterations                   250          :
          :  Hamiltonian                  GFN2-xTB          :
          :  restarted?                      false          :
          :  GBSA solvation                   true          :
          :  PC potential                    false          :
          :  electronic temp.          300.0000000     K    :
          :  accuracy                    1.0000000          :
          :  -> integral cutoff          0.2500000E+02      :
          :  -> integral neglect         0.1000000E-07      :
          :  -> SCF convergence          0.1000000E-05 Eh   :
          :  -> wf. convergence          0.1000000E-03 e    :
          :  Broyden damping             0.4000000          :
          ...................................................

 iter      E             dE          RMSdq      gap      omega  full diag
   1    -34.6391830 -0.346392E+02  0.376E+00    3.29       0.0  T
   2    -34.6736544 -0.344714E-01  0.224E+00    3.17       1.0  T
   3    -34.6708812  0.277314E-02  0.753E-01    2.86       1.0  T
   4    -34.6752423 -0.436105E-02  0.339E-01    2.96       1.0  T
   5    -34.6771535 -0.191122E-02  0.653E-02    2.89       1.0  T
   6    -34.6771651 -0.116327E-04  0.332E-02    2.90       1.0  T
   7    -34.6771719 -0.677083E-05  0.140E-02    2.90       1.4  T
   8    -34.6771728 -0.895116E-06  0.341E-03    2.90       5.6  T
   9    -34.6771729 -0.103664E-06  0.137E-03    2.90      14.0  T
  10    -34.6771729 -0.354789E-08  0.832E-04    2.90      23.1  T
  11    -34.6771729 -0.421414E-08  0.212E-04    2.90      91.0  T

   *** convergence criteria satisfied after 11 iterations ***

         #    Occupation            Energy/Eh            Energy/eV
      -------------------------------------------------------------
         1        2.0000           -0.6498062             -17.6821
       ...           ...                  ...                  ...
        26        2.0000           -0.4376369             -11.9087
        27        2.0000           -0.4282302             -11.6527
        28        2.0000           -0.4250401             -11.5659
        29        2.0000           -0.4225973             -11.4995
        30        2.0000           -0.4087160             -11.1217
        31        2.0000           -0.3984857             -10.8433
        32        2.0000           -0.3765041             -10.2452 (HOMO)
        33                         -0.2699249              -7.3450 (LUMO)
        34                         -0.2283933              -6.2149
        35                         -0.1887992              -5.1375
        36                         -0.0879046              -2.3920
        37                          0.0340175               0.9257
       ...                                ...                  ...
        63                          0.6475163              17.6198
      -------------------------------------------------------------
                  HL-Gap            0.1065792 Eh            2.9002 eV
             Fermi-level           -0.3232145 Eh           -8.7951 eV

 SCC (total)                   0 d,  0 h,  0 min,  0.076 sec
 SCC setup                      ...        0 min,  0.006 sec (  7.771%)
 Dispersion                     ...        0 min,  0.004 sec (  4.966%)
 classical contributions        ...        0 min,  0.005 sec (  6.220%)
 integral evaluation            ...        0 min,  0.006 sec (  8.118%)
 iterations                     ...        0 min,  0.024 sec ( 31.853%)
 molecular gradient             ...        0 min,  0.031 sec ( 40.779%)
 printout                       ...        0 min,  0.000 sec (  0.266%)

         :::::::::::::::::::::::::::::::::::::::::::::::::::::
         ::                     SUMMARY                     ::
         :::::::::::::::::::::::::::::::::::::::::::::::::::::
         :: total energy             -34.111874962799 Eh    ::
         :: total w/o Gsasa/hb       -34.096514272137 Eh    ::
         :: gradient norm              0.024118102241 Eh/a0 ::
         :: HOMO-LUMO gap              2.900167499135 eV    ::
         ::.................................................::
         :: SCC energy               -34.677172894351 Eh    ::
         :: -> isotropic ES            0.011430800172 Eh    ::
         :: -> anisotropic ES          0.005743729565 Eh    ::
         :: -> anisotropic XC          0.028323959262 Eh    ::
         :: -> dispersion             -0.020205892232 Eh    ::
         :: -> Gsolv                  -0.016870358939 Eh    ::
         ::    -> Gborn               -0.001509668277 Eh    ::
         ::    -> Gsasa               -0.019801519835 Eh    ::
         ::    -> Ghb                  0.000000000000 Eh    ::
         ::    -> Gshift               0.004440829173 Eh    ::
         :: repulsion energy           0.565447997040 Eh    ::
         :: add. restraining           0.000000000000 Eh    ::
         :::::::::::::::::::::::::::::::::::::::::::::::::::::

           -------------------------------------------------
          |                Property Printout                |
           -------------------------------------------------

    * Orbital Energies and Occupations

         #    Occupation            Energy/Eh            Energy/eV
      -------------------------------------------------------------
         1        2.0000           -0.6498062             -17.6821
       ...           ...                  ...                  ...
        20        2.0000           -0.4798677             -13.0579
        21        2.0000           -0.4747717             -12.9192
        22        2.0000           -0.4722034             -12.8493
        23        2.0000           -0.4604042             -12.5282
        24        2.0000           -0.4453152             -12.1176
        25        2.0000           -0.4383842             -11.9290
        26        2.0000           -0.4376369             -11.9087
        27        2.0000           -0.4282302             -11.6527
        28        2.0000           -0.4250401             -11.5659
        29        2.0000           -0.4225973             -11.4995
        30        2.0000           -0.4087160             -11.1217
        31        2.0000           -0.3984857             -10.8433
        32        2.0000           -0.3765041             -10.2452 (HOMO)
        33                         -0.2699249              -7.3450 (LUMO)
        34                         -0.2283933              -6.2149
        35                         -0.1887992              -5.1375
        36                         -0.0879046              -2.3920
        37                          0.0340175               0.9257
        38                          0.0977866               2.6609
        39                          0.1026798               2.7941
        40                          0.1158439               3.1523
        41                          0.1193969               3.2490
        42                          0.1328495               3.6150
        43                          0.1475509               4.0151
       ...                                ...                  ...
        63                          0.6475163              17.6198
      -------------------------------------------------------------
                  HL-Gap            0.1065792 Eh            2.9002 eV
             Fermi-level           -0.3232145 Eh           -8.7951 eV

     #   Z        covCN         q      C6AA      α(0)
     1   6 C      2.916    -0.026    28.647     8.777
     2   6 C      2.913    -0.029    28.733     8.790
     3   6 C      2.922    -0.031    28.765     8.795
     4   6 C      2.970     0.005    27.906     8.665
     5   6 C      2.918    -0.025    28.620     8.773
     6   6 C      2.914    -0.028    28.698     8.784
     7   1 H      0.925     0.042     2.428     2.437
     8   1 H      0.925     0.035     2.520     2.482
     9   1 H      0.926     0.053     2.282     2.362
    10   6 C      2.859     0.077    26.274     8.402
    11   1 H      0.924    -0.004     3.121     2.763
    12   7 N      1.825    -0.256    27.512     7.772
    13   6 C      3.768     0.023    20.225     6.409
    14   6 C      3.802    -0.056    21.583     6.614
    15   1 H      0.924     0.032     2.564     2.504
    16   1 H      0.924     0.044     2.390     2.418
    17   1 H      0.924     0.041     2.440     2.443
    18   1 H      0.923     0.005     2.969     2.695
    19   6 C      3.800    -0.052    21.511     6.604
    20   1 H      0.924     0.032     2.556     2.500
    21   1 H      0.924     0.030     2.590     2.517
    22   1 H      0.925     0.042     2.421     2.433
    23   1 H      0.925     0.040     2.454     2.450
    24   6 C      3.750    -0.102    22.504     6.766
    25   1 H      0.924     0.036     2.498     2.472
    26   1 H      0.924     0.037     2.487     2.466
    27   1 H      0.924     0.035     2.522     2.483

 Mol. C6AA /au·bohr⁶  :       7188.428359
 Mol. C8AA /au·bohr⁸  :     165612.381415
 Mol. α(0) /au        :        132.575452


Wiberg/Mayer (AO) data.
largest (>0.10) Wiberg bond orders for each atom
          total WBO             WBO to atom ...
     1  C   3.988        C    2 1.438    C    6 1.422    H    7 0.971    C    4 0.100
     2  C   3.991        C    3 1.449    C    1 1.438    H   23 0.971    C    5 0.107
     3  C   3.987        C    2 1.449    C    4 1.383    H    8 0.969    C    6 0.105
     4  C   3.989        C    3 1.383    C    5 1.367    C   10 1.080    C    1 0.100
     5  C   3.990        C    6 1.466    C    4 1.367    H    9 0.968    C    2 0.107
     6  C   3.991        C    5 1.466    C    1 1.422    H   22 0.970    C    3 0.105
     7  H   0.998        C    1 0.971
     8  H   0.999        C    3 0.969
     9  H   0.997        C    5 0.968
    10  C   3.970        N   12 1.848    C    4 1.080    H   11 0.939
    11  H   1.000        C   10 0.939
    12  N   3.064        C   10 1.848    C   13 1.024
    13  C   3.985        N   12 1.024    C   14 0.988    H   18 0.964    H   17 0.958
    14  C   3.991        C   19 1.006    C   13 0.988    H   15 0.978    H   16 0.976
    15  H   0.999        C   14 0.978
    16  H   0.998        C   14 0.976
    17  H   0.995        C   13 0.958
    18  H   1.000        C   13 0.964
    19  C   3.996        C   24 1.019    C   14 1.006    H   21 0.978    H   20 0.978
    20  H   0.999        C   19 0.978
    21  H   0.999        C   19 0.978
    22  H   0.998        C    6 0.970
    23  H   0.998        C    2 0.971
    24  C   3.995        C   19 1.019    H   27 0.988    H   25 0.988    H   26 0.987
    25  H   0.999        C   24 0.988
    26  H   0.998        C   24 0.987
    27  H   0.999        C   24 0.988
Topologies differ in total number of bonds
Writing topology from bond orders to xtbtopo.mol

molecular dipole:
                 x           y           z       tot (Debye)
 q only:       -0.151      -0.255       0.099
   full:       -0.453       0.021       0.231       1.293
molecular quadrupole (traceless):
                xx          xy          yy          xz          yz          zz
 q only:        6.767       6.870      -4.108      -2.754       0.798      -2.659
  q+dip:       11.793      -3.987      -1.126     -10.765       6.166     -10.667
   full:       10.394      -3.803      -2.372      -8.709       5.200      -8.022


           -------------------------------------------------
          | TOTAL ENERGY              -34.111874962799 Eh   |
          | GRADIENT NORM               0.024118102241 Eh/α |
          | HOMO-LUMO GAP               2.900167499135 eV   |
           -------------------------------------------------

------------------------------------------------------------------------
 * finished run on 2020/08/05 at 11:49:47.224     
------------------------------------------------------------------------
 total:
 * wall-time:     0 d,  0 h,  0 min,  0.160 sec
 *  cpu-time:     0 d,  0 h,  0 min,  1.867 sec
 * ratio c/w:    11.705 speedup
 SCF:
 * wall-time:     0 d,  0 h,  0 min,  0.081 sec
 *  cpu-time:     0 d,  0 h,  0 min,  0.945 sec
 * ratio c/w:    11.617 speedup


-------------------------   --------------------
FINAL SINGLE POINT ENERGY       -34.111874962800
-------------------------   --------------------


----------------------------------------------------------------------------
                           ORCA NUMERICAL FREQUENCIES
                              (11-process run)
----------------------------------------------------------------------------

Number of atoms                ... 27
Central differences            ... used
Number of displacements        ... 162
Numerical increment            ... 5.000e-03 bohr
IR-spectrum generation         ... on
Raman-spectrum generation      ... off
Surface Crossing Hessian       ... off
List of participating nodes    ...  /tmp/slurm-scratch/freq.84/freq.hostnames

The output will be reduced. Please look at the following files:
SCF program output             ... >/tmp/slurm-scratch/freq.84/freq.lastscf
Integral program output        ... >/tmp/slurm-scratch/freq.84/freq.lastint
Gradient program output        ... >/tmp/slurm-scratch/freq.84/freq.lastgrad
Dipole moment program output   ... >/tmp/slurm-scratch/freq.84/freq.lastmom
AutoCI program output          ... >/tmp/slurm-scratch/freq.84/freq.lastautoci


         <<< Energy and Gradient at the input geometry >>>

        <<< Energy and Gradient at displaced geometries >>>
             <<<Displacing   1/coordinate 2 (+)>>>
             <<<Displacing   1/coordinate 3 (+)>>>
             <<<Displacing   3/coordinate 2 (+)>>>
             <<<Displacing   1/coordinate 2 (-)>>>
             <<<Displacing   1/coordinate 3 (-)>>>
             <<<Displacing   4/coordinate 2 (+)>>>
             <<<Displacing   3/coordinate 3 (+)>>>
             <<<Displacing   4/coordinate 1 (+)>>>
             <<<Displacing   2/coordinate 1 (+)>>>
             <<<Displacing   3/coordinate 2 (-)>>>
             <<<Displacing   4/coordinate 2 (-)>>>
             <<<Displacing   2/coordinate 1 (-)>>>
             <<<Displacing   2/coordinate 2 (+)>>>
             <<<Displacing   3/coordinate 1 (+)>>>
             <<<Displacing   3/coordinate 3 (-)>>>
             <<<Displacing   2/coordinate 3 (+)>>>
             <<<Displacing   4/coordinate 1 (-)>>>
             <<<Displacing   1/coordinate 1 (+)>>>
             <<<Displacing   3/coordinate 1 (-)>>>
             <<<Displacing   2/coordinate 3 (-)>>>
             <<<Displacing   2/coordinate 2 (-)>>>
             <<<Displacing   1/coordinate 1 (-)>>>
             <<<Displacing   4/coordinate 3 (+)>>>
             <<<Displacing   6/coordinate 3 (+)>>>
             <<<Displacing   5/coordinate 2 (+)>>>
             <<<Displacing   5/coordinate 3 (+)>>>
             <<<Displacing   4/coordinate 3 (-)>>>
             <<<Displacing   5/coordinate 1 (+)>>>
             <<<Displacing   6/coordinate 3 (-)>>>
             <<<Displacing   5/coordinate 2 (-)>>>
             <<<Displacing   8/coordinate 1 (+)>>>
             <<<Displacing   5/coordinate 3 (-)>>>
             <<<Displacing   5/coordinate 1 (-)>>>
             <<<Displacing   6/coordinate 2 (+)>>>
             <<<Displacing   8/coordinate 1 (-)>>>
             <<<Displacing   6/coordinate 1 (+)>>>
             <<<Displacing   6/coordinate 2 (-)>>>
             <<<Displacing   6/coordinate 1 (-)>>>
             <<<Displacing   7/coordinate 2 (+)>>>
             <<<Displacing   7/coordinate 1 (+)>>>
             <<<Displacing   7/coordinate 3 (+)>>>
             <<<Displacing   7/coordinate 2 (-)>>>
             <<<Displacing   7/coordinate 1 (-)>>>
             <<<Displacing   7/coordinate 3 (-)>>>
             <<<Displacing   8/coordinate 3 (+)>>>
             <<<Displacing  11/coordinate 2 (+)>>>
             <<<Displacing   8/coordinate 2 (+)>>>
             <<<Displacing   9/coordinate 2 (+)>>>
             <<<Displacing   8/coordinate 3 (-)>>>
             <<<Displacing  11/coordinate 2 (-)>>>
             <<<Displacing   9/coordinate 1 (+)>>>
             <<<Displacing   8/coordinate 2 (-)>>>
             <<<Displacing   9/coordinate 2 (-)>>>
             <<<Displacing   9/coordinate 1 (-)>>>
             <<<Displacing   9/coordinate 3 (+)>>>
             <<<Displacing  10/coordinate 3 (+)>>>
             <<<Displacing  10/coordinate 1 (+)>>>
             <<<Displacing   9/coordinate 3 (-)>>>
             <<<Displacing  10/coordinate 3 (-)>>>
             <<<Displacing  11/coordinate 1 (+)>>>
             <<<Displacing  10/coordinate 2 (+)>>>
             <<<Displacing  10/coordinate 1 (-)>>>
             <<<Displacing  11/coordinate 1 (-)>>>
             <<<Displacing  10/coordinate 2 (-)>>>
             <<<Displacing  11/coordinate 3 (+)>>>
             <<<Displacing  11/coordinate 3 (-)>>>
             <<<Displacing  12/coordinate 1 (+)>>>
             <<<Displacing  13/coordinate 1 (+)>>>
             <<<Displacing  13/coordinate 1 (-)>>>
             <<<Displacing  12/coordinate 1 (-)>>>
             <<<Displacing  12/coordinate 2 (+)>>>
             <<<Displacing  12/coordinate 3 (+)>>>
             <<<Displacing  15/coordinate 1 (+)>>>
             <<<Displacing  13/coordinate 3 (+)>>>
             <<<Displacing  13/coordinate 2 (+)>>>
             <<<Displacing  12/coordinate 2 (-)>>>
             <<<Displacing  12/coordinate 3 (-)>>>
             <<<Displacing  15/coordinate 1 (-)>>>
             <<<Displacing  13/coordinate 2 (-)>>>
             <<<Displacing  13/coordinate 3 (-)>>>
             <<<Displacing  14/coordinate 3 (+)>>>
             <<<Displacing  14/coordinate 1 (+)>>>
             <<<Displacing  14/coordinate 2 (+)>>>
             <<<Displacing  14/coordinate 3 (-)>>>
             <<<Displacing  14/coordinate 1 (-)>>>
             <<<Displacing  14/coordinate 2 (-)>>>
             <<<Displacing  15/coordinate 2 (+)>>>
             <<<Displacing  15/coordinate 2 (-)>>>
             <<<Displacing  15/coordinate 3 (+)>>>
             <<<Displacing  16/coordinate 3 (+)>>>
             <<<Displacing  18/coordinate 3 (+)>>>
             <<<Displacing  17/coordinate 1 (+)>>>
             <<<Displacing  15/coordinate 3 (-)>>>
             <<<Displacing  16/coordinate 3 (-)>>>
             <<<Displacing  16/coordinate 2 (+)>>>
             <<<Displacing  18/coordinate 3 (-)>>>
             <<<Displacing  18/coordinate 2 (+)>>>
             <<<Displacing  18/coordinate 1 (+)>>>
             <<<Displacing  17/coordinate 1 (-)>>>
             <<<Displacing  16/coordinate 1 (+)>>>
             <<<Displacing  17/coordinate 2 (+)>>>
             <<<Displacing  16/coordinate 2 (-)>>>
             <<<Displacing  18/coordinate 2 (-)>>>
             <<<Displacing  18/coordinate 1 (-)>>>
             <<<Displacing  16/coordinate 1 (-)>>>
             <<<Displacing  17/coordinate 2 (-)>>>
             <<<Displacing  17/coordinate 3 (+)>>>
             <<<Displacing  17/coordinate 3 (-)>>>
             <<<Displacing  19/coordinate 1 (+)>>>
             <<<Displacing  19/coordinate 1 (-)>>>
             <<<Displacing  19/coordinate 2 (+)>>>
             <<<Displacing  19/coordinate 2 (-)>>>
             <<<Displacing  20/coordinate 2 (+)>>>
             <<<Displacing  19/coordinate 3 (+)>>>
             <<<Displacing  20/coordinate 2 (-)>>>
             <<<Displacing  19/coordinate 3 (-)>>>
             <<<Displacing  20/coordinate 3 (+)>>>
             <<<Displacing  20/coordinate 1 (+)>>>
             <<<Displacing  21/coordinate 2 (+)>>>
             <<<Displacing  20/coordinate 3 (-)>>>
             <<<Displacing  21/coordinate 1 (+)>>>
             <<<Displacing  20/coordinate 1 (-)>>>
             <<<Displacing  21/coordinate 3 (+)>>>
             <<<Displacing  22/coordinate 1 (+)>>>
             <<<Displacing  21/coordinate 1 (-)>>>
             <<<Displacing  21/coordinate 2 (-)>>>
             <<<Displacing  21/coordinate 3 (-)>>>
             <<<Displacing  22/coordinate 1 (-)>>>
             <<<Displacing  22/coordinate 2 (+)>>>
             <<<Displacing  22/coordinate 2 (-)>>>
             <<<Displacing  22/coordinate 3 (+)>>>
             <<<Displacing  22/coordinate 3 (-)>>>
             <<<Displacing  23/coordinate 2 (+)>>>
             <<<Displacing  23/coordinate 2 (-)>>>
             <<<Displacing  23/coordinate 1 (+)>>>
             <<<Displacing  23/coordinate 3 (+)>>>
             <<<Displacing  23/coordinate 1 (-)>>>
             <<<Displacing  23/coordinate 3 (-)>>>
             <<<Displacing  24/coordinate 1 (+)>>>
             <<<Displacing  24/coordinate 2 (+)>>>
             <<<Displacing  24/coordinate 1 (-)>>>
             <<<Displacing  24/coordinate 3 (+)>>>
             <<<Displacing  24/coordinate 2 (-)>>>
             <<<Displacing  25/coordinate 1 (+)>>>
             <<<Displacing  24/coordinate 3 (-)>>>
             <<<Displacing  25/coordinate 2 (+)>>>
             <<<Displacing  25/coordinate 1 (-)>>>
             <<<Displacing  25/coordinate 3 (+)>>>
             <<<Displacing  25/coordinate 2 (-)>>>
             <<<Displacing  25/coordinate 3 (-)>>>
             <<<Displacing  26/coordinate 1 (+)>>>
             <<<Displacing  26/coordinate 1 (-)>>>
             <<<Displacing  26/coordinate 2 (+)>>>
             <<<Displacing  26/coordinate 2 (-)>>>
             <<<Displacing  26/coordinate 3 (+)>>>
             <<<Displacing  26/coordinate 3 (-)>>>
             <<<Displacing  27/coordinate 2 (+)>>>
             <<<Displacing  27/coordinate 2 (-)>>>
             <<<Displacing  27/coordinate 1 (+)>>>
             <<<Displacing  27/coordinate 1 (-)>>>
             <<<Displacing  27/coordinate 3 (+)>>>
             <<<Displacing  27/coordinate 3 (-)>>>

-----------------------
VIBRATIONAL FREQUENCIES
-----------------------

Scaling factor for frequencies =  1.000000000 (already applied!)

   0:         0.00 cm**-1
   1:         0.00 cm**-1
   2:         0.00 cm**-1
   3:         0.00 cm**-1
   4:         0.00 cm**-1
   5:         0.00 cm**-1
   6:        50.02 cm**-1
   7:        66.81 cm**-1
   8:        75.45 cm**-1
   9:       108.37 cm**-1
  10:       120.08 cm**-1
  11:       155.33 cm**-1
  12:       214.16 cm**-1
  13:       267.57 cm**-1
  14:       278.76 cm**-1
  15:       283.43 cm**-1
  16:       375.95 cm**-1
  17:       381.22 cm**-1
  18:       427.25 cm**-1
  19:       463.19 cm**-1
  20:       510.27 cm**-1
  21:       588.75 cm**-1
  22:       624.08 cm**-1
  23:       666.12 cm**-1
  24:       754.32 cm**-1
  25:       771.31 cm**-1
  26:       823.57 cm**-1
  27:       858.50 cm**-1
  28:       875.15 cm**-1
  29:       900.78 cm**-1
  30:       913.98 cm**-1
  31:       931.20 cm**-1
  32:       934.21 cm**-1
  33:       945.60 cm**-1
  34:       951.85 cm**-1
  35:       984.58 cm**-1
  36:      1020.06 cm**-1
  37:      1067.41 cm**-1
  38:      1071.47 cm**-1
  39:      1100.66 cm**-1
  40:      1112.13 cm**-1
  41:      1125.38 cm**-1
  42:      1143.60 cm**-1
  43:      1178.28 cm**-1
  44:      1185.58 cm**-1
  45:      1211.79 cm**-1
  46:      1219.33 cm**-1
  47:      1254.43 cm**-1
  48:      1268.16 cm**-1
  49:      1276.24 cm**-1
  50:      1277.41 cm**-1
  51:      1292.95 cm**-1
  52:      1324.57 cm**-1
  53:      1354.67 cm**-1
  54:      1369.13 cm**-1
  55:      1423.60 cm**-1
  56:      1429.86 cm**-1
  57:      1455.42 cm**-1
  58:      1468.53 cm**-1
  59:      1501.93 cm**-1
  60:      1505.17 cm**-1
  61:      1509.14 cm**-1
  62:      1513.01 cm**-1
  63:      1561.32 cm**-1
  64:      1568.22 cm**-1
  65:      1668.20 cm**-1
  66:      2849.94 cm**-1
  67:      2868.03 cm**-1
  68:      2939.32 cm**-1
  69:      2942.23 cm**-1
  70:      2954.50 cm**-1
  71:      2966.02 cm**-1
  72:      2974.57 cm**-1
  73:      2981.08 cm**-1
  74:      2986.79 cm**-1
  75:      2999.15 cm**-1
  76:      3048.66 cm**-1
  77:      3055.93 cm**-1
  78:      3061.48 cm**-1
  79:      3071.17 cm**-1
  80:      3082.82 cm**-1


------------
NORMAL MODES
------------

These modes are the cartesian displacements weighted by the diagonal matrix
M(i,i)=1/sqrt(m[i]) where m[i] is the mass of the displaced atom
Thus, these vectors are normalized but *not* orthogonal

                  0          1          2          3          4          5    
      0       0.000000   0.000000   0.000000   0.000000   0.000000   0.000000
      1       0.000000   0.000000   0.000000   0.000000   0.000000   0.000000
      2       0.000000   0.000000   0.000000   0.000000   0.000000   0.000000
      3       0.000000   0.000000   0.000000   0.000000   0.000000   0.000000
      4       0.000000   0.000000   0.000000   0.000000   0.000000   0.000000
      5       0.000000   0.000000   0.000000   0.000000   0.000000   0.000000
      6       0.000000   0.000000   0.000000   0.000000   0.000000   0.000000
      7       0.000000   0.000000   0.000000   0.000000   0.000000   0.000000
      8       0.000000   0.000000   0.000000   0.000000   0.000000   0.000000
      9       0.000000   0.000000   0.000000   0.000000   0.000000   0.000000
     10       0.000000   0.000000   0.000000   0.000000   0.000000   0.000000
     11       0.000000   0.000000   0.000000   0.000000   0.000000   0.000000
     12       0.000000   0.000000   0.000000   0.000000   0.000000   0.000000
     13       0.000000   0.000000   0.000000   0.000000   0.000000   0.000000
     14       0.000000   0.000000   0.000000   0.000000   0.000000   0.000000
     15       0.000000   0.000000   0.000000   0.000000   0.000000   0.000000
     16       0.000000   0.000000   0.000000   0.000000   0.000000   0.000000
     17       0.000000   0.000000   0.000000   0.000000   0.000000   0.000000
     18       0.000000   0.000000   0.000000   0.000000   0.000000   0.000000
     19       0.000000   0.000000   0.000000   0.000000   0.000000   0.000000
     20       0.000000   0.000000   0.000000   0.000000   0.000000   0.000000
     21       0.000000   0.000000   0.000000   0.000000   0.000000   0.000000
     22       0.000000   0.000000   0.000000   0.000000   0.000000   0.000000
     23       0.000000   0.000000   0.000000   0.000000   0.000000   0.000000
     24       0.000000   0.000000   0.000000   0.000000   0.000000   0.000000
     25       0.000000   0.000000   0.000000   0.000000   0.000000   0.000000
     26       0.000000   0.000000   0.000000   0.000000   0.000000   0.000000
     27       0.000000   0.000000   0.000000   0.000000   0.000000   0.000000
     28       0.000000   0.000000   0.000000   0.000000   0.000000   0.000000
     29       0.000000   0.000000   0.000000   0.000000   0.000000   0.000000
     30       0.000000   0.000000   0.000000   0.000000   0.000000   0.000000
     31       0.000000   0.000000   0.000000   0.000000   0.000000   0.000000
     32       0.000000   0.000000   0.000000   0.000000   0.000000   0.000000
     33       0.000000   0.000000   0.000000   0.000000   0.000000   0.000000
     34       0.000000   0.000000   0.000000   0.000000   0.000000   0.000000
     35       0.000000   0.000000   0.000000   0.000000   0.000000   0.000000
     36       0.000000   0.000000   0.000000   0.000000   0.000000   0.000000
     37       0.000000   0.000000   0.000000   0.000000   0.000000   0.000000
     38       0.000000   0.000000   0.000000   0.000000   0.000000   0.000000
     39       0.000000   0.000000   0.000000   0.000000   0.000000   0.000000
     40       0.000000   0.000000   0.000000   0.000000   0.000000   0.000000
     41       0.000000   0.000000   0.000000   0.000000   0.000000   0.000000
     42       0.000000   0.000000   0.000000   0.000000   0.000000   0.000000
     43       0.000000   0.000000   0.000000   0.000000   0.000000   0.000000
     44       0.000000   0.000000   0.000000   0.000000   0.000000   0.000000
     45       0.000000   0.000000   0.000000   0.000000   0.000000   0.000000
     46       0.000000   0.000000   0.000000   0.000000   0.000000   0.000000
     47       0.000000   0.000000   0.000000   0.000000   0.000000   0.000000
     48       0.000000   0.000000   0.000000   0.000000   0.000000   0.000000
     49       0.000000   0.000000   0.000000   0.000000   0.000000   0.000000
     50       0.000000   0.000000   0.000000   0.000000   0.000000   0.000000
     51       0.000000   0.000000   0.000000   0.000000   0.000000   0.000000
     52       0.000000   0.000000   0.000000   0.000000   0.000000   0.000000
     53       0.000000   0.000000   0.000000   0.000000   0.000000   0.000000
     54       0.000000   0.000000   0.000000   0.000000   0.000000   0.000000
     55       0.000000   0.000000   0.000000   0.000000   0.000000   0.000000
     56       0.000000   0.000000   0.000000   0.000000   0.000000   0.000000
     57       0.000000   0.000000   0.000000   0.000000   0.000000   0.000000
     58       0.000000   0.000000   0.000000   0.000000   0.000000   0.000000
     59       0.000000   0.000000   0.000000   0.000000   0.000000   0.000000
     60       0.000000   0.000000   0.000000   0.000000   0.000000   0.000000
     61       0.000000   0.000000   0.000000   0.000000   0.000000   0.000000
     62       0.000000   0.000000   0.000000   0.000000   0.000000   0.000000
     63       0.000000   0.000000   0.000000   0.000000   0.000000   0.000000
     64       0.000000   0.000000   0.000000   0.000000   0.000000   0.000000
     65       0.000000   0.000000   0.000000   0.000000   0.000000   0.000000
     66       0.000000   0.000000   0.000000   0.000000   0.000000   0.000000
     67       0.000000   0.000000   0.000000   0.000000   0.000000   0.000000
     68       0.000000   0.000000   0.000000   0.000000   0.000000   0.000000
     69       0.000000   0.000000   0.000000   0.000000   0.000000   0.000000
     70       0.000000   0.000000   0.000000   0.000000   0.000000   0.000000
     71       0.000000   0.000000   0.000000   0.000000   0.000000   0.000000
     72       0.000000   0.000000   0.000000   0.000000   0.000000   0.000000
     73       0.000000   0.000000   0.000000   0.000000   0.000000   0.000000
     74       0.000000   0.000000   0.000000   0.000000   0.000000   0.000000
     75       0.000000   0.000000   0.000000   0.000000   0.000000   0.000000
     76       0.000000   0.000000   0.000000   0.000000   0.000000   0.000000
     77       0.000000   0.000000   0.000000   0.000000   0.000000   0.000000
     78       0.000000   0.000000   0.000000   0.000000   0.000000   0.000000
     79       0.000000   0.000000   0.000000   0.000000   0.000000   0.000000
     80       0.000000   0.000000   0.000000   0.000000   0.000000   0.000000
                  6          7          8          9         10         11    
      0      -0.005538   0.118750  -0.053095   0.000575   0.039496   0.098359
      1      -0.023687  -0.018838   0.018029  -0.024330  -0.044346   0.018486
      2      -0.080513   0.106871   0.014630   0.109124   0.102161  -0.049299
      3      -0.060124   0.040632  -0.020404   0.008359   0.016867   0.012907
      4      -0.018443  -0.023134   0.042355   0.002906  -0.050056  -0.057803
      5      -0.180805  -0.010126   0.013206   0.060718   0.078359  -0.015183
      6      -0.071843  -0.030477   0.019354  -0.002549  -0.038633  -0.093666
      7      -0.017518   0.013656   0.024689   0.017537  -0.015649  -0.011766
      8      -0.130356  -0.075987   0.009870  -0.063486  -0.037116   0.038048
      9      -0.029186  -0.027209   0.025044  -0.017227  -0.066371  -0.106513
     10      -0.020645   0.055195  -0.015028   0.005354   0.023066   0.082491
     11       0.022151  -0.035532   0.003642  -0.126957  -0.115607   0.062872
     12       0.023441   0.049854  -0.009071  -0.030440  -0.053009  -0.014638
     13      -0.024509   0.061352  -0.038477  -0.018661   0.034067   0.156801
     14       0.115178   0.073993   0.002755  -0.093905  -0.119473   0.045398
     15       0.035109   0.123283  -0.047941  -0.022505   0.000607   0.090370
     16      -0.025911   0.023410  -0.022304  -0.032203   0.001516   0.121900
     17       0.064729   0.147068   0.010133   0.021435  -0.011467  -0.018671
     18       0.005286   0.175729  -0.082226   0.011654   0.085914   0.167543
     19      -0.025460  -0.048832   0.030429  -0.037578  -0.073084  -0.008013
     20      -0.116753   0.166244   0.019498   0.210508   0.203256  -0.098447
     21      -0.114770  -0.088547   0.045277   0.005134  -0.053829  -0.158217
     22      -0.013667   0.009592   0.043019   0.036675  -0.023460  -0.065573
     23      -0.208300  -0.160610   0.010394  -0.093874  -0.043830   0.054435
     24       0.055135   0.053073  -0.004767  -0.044460  -0.078218  -0.024643
     25      -0.027324   0.096157  -0.070927  -0.030353   0.064310   0.260303
     26       0.228460   0.107293  -0.001966  -0.152382  -0.192441   0.075691
     27      -0.045889  -0.077677   0.055073  -0.016457  -0.079401  -0.092107
     28      -0.018671   0.077756  -0.028465   0.008839   0.029811   0.075005
     29       0.081285  -0.061716   0.007985  -0.161511  -0.110201   0.019166
     30      -0.072562  -0.074501   0.084926  -0.074785  -0.129581  -0.069655
     31      -0.036816   0.047659  -0.035563   0.047600   0.050360   0.177108
     32       0.069803   0.001141   0.076160  -0.338569  -0.238602  -0.146141
     33      -0.037197  -0.102194   0.038296   0.046591  -0.019100  -0.028669
     34       0.005856   0.110236  -0.019210  -0.026982  -0.001538  -0.101059
     35       0.138210  -0.119878  -0.048789   0.041531   0.086621   0.090313
     36      -0.070829  -0.087958   0.029064   0.026302  -0.013228   0.136009
     37       0.012968   0.094066  -0.018893  -0.019476  -0.007610  -0.140968
     38       0.168468  -0.048139  -0.017341   0.046719   0.119526  -0.091898
     39       0.089136  -0.027275   0.140278  -0.032940   0.130626   0.068208
     40       0.013324  -0.041930  -0.034418   0.018510  -0.029699  -0.109089
     41      -0.024781  -0.109888  -0.150278   0.115313  -0.050101  -0.014534
     42       0.270550   0.025656   0.317104  -0.062733   0.269649   0.028136
     43      -0.060483  -0.181988  -0.292689  -0.001602  -0.058897  -0.139108
     44       0.007943  -0.145922  -0.190208   0.096494  -0.014373  -0.040241
     45       0.066912  -0.051573   0.214508   0.008727   0.091903   0.136686
     46       0.076523   0.002917   0.174805   0.051870  -0.008416  -0.049713
     47      -0.194613  -0.250637  -0.379339   0.145456  -0.175606   0.030057
     48      -0.255329  -0.145786  -0.109017   0.090598  -0.167628   0.262654
     49       0.100744   0.180081   0.061660  -0.036561   0.067943  -0.341971
     50       0.138616  -0.033676  -0.032845   0.061111   0.094341  -0.127525
     51      -0.046266  -0.056170   0.051791  -0.005089   0.023395   0.192388
     52      -0.052790   0.070658  -0.070247  -0.017535  -0.045804   0.027982
     53       0.347990   0.069094   0.132249  -0.029568   0.277221  -0.266339
     54       0.034435  -0.004550  -0.097352  -0.090351   0.119513  -0.069866
     55       0.035762  -0.072757   0.031375   0.038985  -0.019665  -0.060627
     56      -0.030973   0.074283   0.089503   0.142008  -0.083102   0.018639
     57      -0.077425  -0.032410  -0.204341  -0.317850   0.279222  -0.163908
     58       0.084187   0.063576   0.269571   0.151039  -0.103015   0.012767
     59      -0.049859   0.116781   0.144093   0.107841  -0.061007   0.014440
     60       0.033357   0.016798  -0.198619  -0.060092   0.064703  -0.128037
     61      -0.015090  -0.110233  -0.170968  -0.042029   0.011017  -0.163415
     62       0.067570   0.198932   0.247651   0.372547  -0.271783   0.083036
     63       0.076629   0.183328  -0.073122  -0.030820   0.015111   0.155094
     64      -0.029369   0.026316  -0.041244  -0.050640   0.009877   0.179420
     65       0.139710   0.237936   0.011734   0.049269  -0.006656  -0.042111
     66      -0.092745   0.036325  -0.024505   0.024104   0.043339   0.021489
     67      -0.014860  -0.055695   0.074091   0.012086  -0.081813  -0.151707
     68      -0.296126  -0.043729   0.016127   0.122482   0.155906  -0.036286
     69       0.121478   0.028943  -0.070801   0.118286  -0.048564  -0.026851
     70       0.063888  -0.236186   0.051734   0.022329   0.072354   0.046773
     71      -0.136200   0.046842   0.056235  -0.102991   0.109437  -0.043214
     72       0.114805  -0.001668  -0.012206   0.094333  -0.006041   0.031148
     73       0.096854  -0.223152   0.180858   0.113816   0.018464   0.156508
     74      -0.216654  -0.055711  -0.044561  -0.340460   0.321552  -0.108181
     75       0.092872   0.065096  -0.182740   0.062717  -0.043079  -0.145616
     76       0.075883  -0.259486   0.083269   0.040470   0.075387   0.088862
     77      -0.153500   0.160250   0.159564  -0.078730   0.053299  -0.029327
     78       0.219843   0.047888   0.001471   0.353545  -0.223613   0.066976
     79       0.039618  -0.346142  -0.095391  -0.098122   0.192504  -0.023364
     80      -0.114116   0.015456   0.028730  -0.071333   0.096150  -0.038030
                 12         13         14         15         16         17    
      0       0.035514  -0.014017   0.005050  -0.078998  -0.015478  -0.008953
      1       0.020475   0.097671  -0.021193  -0.071378  -0.013523   0.001800
      2       0.068854  -0.094977   0.013136  -0.137046   0.078784   0.005553
      3       0.007515   0.041911  -0.007816  -0.022812   0.032278  -0.050351
      4       0.037231   0.075841  -0.020658  -0.103326   0.039229   0.055241
      5      -0.013575   0.043888  -0.008486   0.024444   0.024177  -0.185234
      6      -0.005142   0.087944  -0.020936  -0.008305   0.078591   0.090354
      7       0.044271   0.043335  -0.012256  -0.106573   0.021583  -0.039109
      8      -0.055428   0.090381  -0.012735   0.109896  -0.131715   0.172495
      9      -0.000307   0.063581  -0.016686  -0.038393   0.123665   0.032670
     10       0.027094   0.000660   0.001284  -0.016090  -0.046709  -0.011123
     11      -0.040075   0.004939   0.003828   0.014991   0.029482  -0.005105
     12       0.001231   0.089860  -0.019932  -0.024228   0.066379  -0.040076
     13       0.035804  -0.012623   0.006606  -0.065816  -0.081599   0.019409
     14      -0.053122   0.084553  -0.014433   0.135019  -0.018401  -0.201016
     15       0.022687   0.026031  -0.003340  -0.035092  -0.059496   0.049877
     16       0.022310   0.025609  -0.001926  -0.060969  -0.032434  -0.054762
     17       0.022449   0.003161  -0.004702   0.033472  -0.100857   0.180825
     18       0.060124  -0.081933   0.020394  -0.120076  -0.033823  -0.023185
     19       0.002406   0.138431  -0.029626  -0.037407  -0.013578   0.008046
     20       0.154401  -0.231920   0.034734  -0.319313   0.179242   0.005029
     21      -0.007809   0.141281  -0.034296  -0.024455   0.082033   0.177378
     22       0.054944   0.060310  -0.018965  -0.147912   0.084857  -0.079348
     23      -0.085066   0.136118  -0.018709   0.181045  -0.266799   0.403883
     24      -0.005562   0.106282  -0.023690   0.000744   0.079334  -0.111209
     25       0.045268  -0.033292   0.014956  -0.096373  -0.171751   0.044540
     26      -0.070912   0.134708  -0.023620   0.201286  -0.027206  -0.443831
     27       0.046485  -0.029816   0.006362  -0.083851  -0.088796  -0.034908
     28      -0.015826   0.023253  -0.003546   0.065478   0.048347   0.017995
     29       0.089872  -0.160899   0.028059  -0.161751   0.106364   0.014355
     30       0.190092  -0.127750   0.025161  -0.121172  -0.253726  -0.084920
     31      -0.097545   0.079213  -0.006485   0.044046  -0.016294  -0.001630
     32       0.501704  -0.443775   0.067164  -0.182492  -0.064725  -0.038131
     33      -0.041012   0.026519  -0.000109  -0.089333  -0.104627  -0.030174
     34       0.033174  -0.010987  -0.005645   0.115378   0.119961   0.030767
     35      -0.191448   0.051988  -0.007130  -0.170722   0.183971   0.066444
     36       0.004242  -0.073420   0.020635   0.055940   0.008656   0.004696
     37      -0.029025  -0.011059  -0.002025   0.081809   0.089465   0.021358
     38       0.085573   0.086121  -0.030370  -0.054890  -0.105539  -0.026533
     39      -0.005405  -0.024572   0.017833   0.046978  -0.022902  -0.003647
     40      -0.165156  -0.100691   0.025551  -0.033420  -0.091547  -0.023706
     41       0.109711   0.005468  -0.022757   0.030995  -0.054815  -0.015134
     42      -0.025687   0.053569   0.038510  -0.022468  -0.098765  -0.021599
     43      -0.132009  -0.154836  -0.039500  -0.054876  -0.150969  -0.039372
     44       0.113735   0.009317  -0.040800  -0.002052  -0.103790  -0.027389
     45      -0.022923  -0.047051   0.050750   0.027336  -0.069304  -0.014906
     46      -0.187427  -0.071715   0.080780  -0.059355  -0.127788  -0.031921
     47       0.116419  -0.097620  -0.055272   0.038499  -0.086319  -0.023553
     48       0.016388  -0.154413   0.028966   0.152579   0.153041   0.046577
     49       0.158360   0.112102  -0.034237   0.101351  -0.188431  -0.066877
     50       0.163122   0.105219  -0.039800  -0.013127  -0.162752  -0.046402
     51       0.018047  -0.083597   0.023001   0.103375   0.111310   0.035487
     52      -0.081779  -0.086304   0.013879   0.144230   0.318721   0.092428
     53       0.217061   0.203962  -0.054668  -0.062462  -0.287814  -0.085039
     54      -0.042977  -0.082598  -0.022270   0.107887  -0.000119  -0.002245
     55      -0.138549  -0.092420   0.036612  -0.036146  -0.121690  -0.030698
     56      -0.002324  -0.024873   0.053957   0.101728   0.032165   0.006111
     57      -0.097601  -0.124100  -0.069280   0.085168  -0.037352  -0.013336
     58      -0.226442  -0.106445   0.095618  -0.033658  -0.092373  -0.021301
     59      -0.055226  -0.044828   0.059876   0.092860   0.028339   0.005360
     60      -0.082614  -0.101776  -0.015215   0.087774  -0.033484  -0.011636
     61      -0.152386  -0.115332   0.006696  -0.051124  -0.161415  -0.042909
     62      -0.065910  -0.024648   0.126865   0.088752   0.037927   0.009516
     63       0.028964  -0.011313   0.006532  -0.002586  -0.146802   0.100390
     64       0.010848   0.003903   0.005997  -0.040962  -0.044369  -0.112587
     65       0.058605  -0.008284  -0.006520   0.040134  -0.217600   0.391823
     66       0.006717   0.045746  -0.008032  -0.019318   0.032613  -0.121524
     67       0.036006   0.086276  -0.026741  -0.102372   0.109348   0.126000
     68      -0.017389   0.062267  -0.012342   0.038980   0.063696  -0.402052
     69      -0.019539  -0.068110   0.026944   0.137033   0.013083   0.000881
     70       0.121681  -0.026663  -0.003984   0.176820   0.056902   0.011589
     71      -0.057041  -0.063512   0.002872   0.077602   0.003880  -0.001646
     72       0.019782  -0.165475  -0.211651   0.216705   0.072184   0.014103
     73       0.128115  -0.226328  -0.436228   0.260770   0.109997   0.023094
     74       0.030229   0.074488   0.231338   0.119095   0.052510   0.009964
     75      -0.100985   0.085334   0.407541  -0.010328  -0.097184  -0.024125
     76       0.170039  -0.060299  -0.105418   0.242685   0.109281   0.023646
     77      -0.263782  -0.311109  -0.414255  -0.054528  -0.125940  -0.032918
     78       0.045038  -0.103408  -0.068510   0.218913   0.074920   0.015464
     79       0.283564   0.253979   0.504505   0.248710   0.140386   0.032043
     80       0.017668   0.020530   0.145349   0.126832   0.050995   0.009727
                 18         19         20         21         22         23    
      0      -0.060413  -0.015954  -0.061232  -0.133685   0.096915  -0.046645
      1      -0.089512   0.139204  -0.028520   0.029067   0.221599   0.027351
      2      -0.041660  -0.095604  -0.163585   0.044990   0.000481  -0.141839
      3       0.019760   0.026419   0.057064  -0.306484  -0.198649   0.062438
      4      -0.060737   0.073268  -0.063586  -0.156803   0.003465  -0.038541
      5       0.012853   0.111714   0.109350   0.063910   0.079279   0.179421
      6       0.040025   0.058577  -0.023699   0.100808  -0.226860  -0.039559
      7      -0.053964   0.039656  -0.000547  -0.301537   0.009196   0.032499
      8      -0.017237  -0.012031  -0.041327  -0.099220   0.054878  -0.149932
      9       0.019336  -0.010530  -0.084130   0.113949  -0.129092   0.073661
     10       0.051397  -0.046892   0.108538  -0.023830  -0.218133  -0.045109
     11      -0.054981  -0.222908  -0.227395  -0.045673  -0.006273   0.223591
     12      -0.034105   0.124929  -0.071695   0.272120   0.088748  -0.047027
     13      -0.035340  -0.046082   0.025311   0.152498  -0.046391   0.032826
     14       0.022927  -0.028012  -0.007855  -0.053396  -0.055147  -0.147433
     15      -0.050072   0.062394   0.011034  -0.122132   0.142819   0.053251
     16      -0.047177  -0.019989  -0.026399   0.327809  -0.037305  -0.038807
     17       0.028883   0.062870   0.119500   0.112706  -0.035859   0.181170
     18      -0.075415  -0.069835  -0.071719   0.223715   0.145501  -0.148487
     19      -0.078331   0.165857  -0.017902  -0.114280   0.189842   0.098649
     20      -0.072400  -0.160098  -0.212728  -0.095906  -0.022186  -0.457835
     21       0.007550   0.195408  -0.014778   0.205262  -0.089125  -0.146887
     22      -0.090039   0.086467  -0.085101  -0.204006   0.107354   0.105358
     23       0.018725   0.096797   0.165747  -0.108998   0.048589  -0.486744
     24      -0.009786   0.170448   0.000549   0.278471   0.064088  -0.149332
     25      -0.125820  -0.072333  -0.041817  -0.022922   0.203119   0.096383
     26       0.046742   0.133290   0.205803  -0.090027   0.020085  -0.479902
     27      -0.008897  -0.174216   0.139578   0.030228   0.081590  -0.012085
     28       0.117027  -0.052795   0.003773   0.005849  -0.223975   0.008184
     29       0.020377   0.076668   0.107728  -0.003892  -0.052078  -0.005644
     30      -0.017009  -0.121001   0.196423   0.035331  -0.055081  -0.038943
     31       0.048877  -0.181493   0.003172   0.011586  -0.302789   0.034196
     32       0.139227   0.406064   0.214843  -0.011770  -0.093328  -0.105090
     33      -0.022609  -0.213005   0.143190   0.043051   0.041082  -0.013248
     34       0.158541  -0.068460   0.021926  -0.016131   0.141804  -0.005482
     35       0.005957  -0.026642   0.134185  -0.007012   0.044692  -0.024231
     36       0.191013   0.018006  -0.046506  -0.006113   0.081258  -0.000045
     37       0.058588  -0.146318   0.094184  -0.001933   0.193809  -0.011575
     38       0.087043   0.001873  -0.057672  -0.003845  -0.005723   0.002653
     39       0.135541   0.040278  -0.081469  -0.010923   0.056397   0.007984
     40      -0.016069   0.052499  -0.027509   0.000962  -0.021259  -0.001648
     41       0.104697   0.009932  -0.069283  -0.005893   0.032419   0.009540
     42       0.156470   0.067302  -0.139339  -0.018069   0.037301   0.012657
     43       0.049437   0.107122  -0.091189  -0.002705  -0.047751   0.006143
     44       0.133938   0.041587  -0.111606  -0.009381   0.012678   0.013579
     45       0.201841   0.106347  -0.153991  -0.014336   0.023131   0.017530
     46       0.038987   0.091577  -0.086394  -0.003827  -0.032448   0.005674
     47       0.160186   0.082635  -0.124461  -0.005685  -0.013355   0.018270
     48       0.323443   0.068580  -0.076076  -0.035858   0.253024  -0.007989
     49       0.007955  -0.291104   0.006316   0.039887   0.034464   0.037163
     50       0.110609  -0.041019  -0.099000   0.002587  -0.005969   0.019283
     51       0.290007   0.073902  -0.082740  -0.030285   0.155656  -0.001136
     52       0.212807  -0.018269   0.071585  -0.047714   0.347883  -0.030197
     53       0.044046  -0.094358  -0.109806   0.023094  -0.136190   0.036411
     54      -0.098379   0.024035  -0.003662   0.000057  -0.013573   0.000611
     55       0.055397   0.095372  -0.098045  -0.006734  -0.025821   0.009725
     56      -0.093322   0.003660   0.017500   0.002095  -0.011259  -0.000700
     57      -0.132610   0.037052  -0.009988   0.003273  -0.048461   0.002578
     58       0.027675   0.120013  -0.087887  -0.008521  -0.030021   0.005546
     59      -0.111798   0.019189   0.016548   0.002161  -0.024490  -0.001340
     60      -0.136760   0.038432  -0.006222   0.002587  -0.046604   0.000927
     61       0.005700   0.096771  -0.094952  -0.002017  -0.063839   0.010699
     62      -0.096123   0.029882   0.013412  -0.000565  -0.013494  -0.003096
     63      -0.007408   0.021238   0.147311  -0.224918  -0.006125  -0.007048
     64      -0.033547  -0.128920  -0.045272   0.228806  -0.157646   0.006348
     65       0.063883   0.241719   0.381676   0.131539   0.007260  -0.018014
     66       0.028066   0.082557   0.139662  -0.308696  -0.163407  -0.000658
     67      -0.011163   0.038191  -0.111897   0.018158  -0.262463   0.011975
     68       0.074110   0.286799   0.384445   0.110672   0.034362  -0.018637
     69      -0.143212   0.030764   0.002460   0.001646  -0.039557   0.001623
     70      -0.117524  -0.000907   0.018425   0.001049  -0.013833   0.000294
     71      -0.098627   0.027165  -0.001497   0.000870  -0.030512   0.001376
     72      -0.237148  -0.005696   0.056042   0.006264  -0.045634  -0.004455
     73      -0.219841  -0.039917   0.074201   0.006439  -0.024362  -0.005630
     74      -0.143438   0.009525   0.028394   0.002318  -0.027139  -0.002843
     75       0.030273   0.098103  -0.097128  -0.007262  -0.025590   0.012321
     76      -0.194741  -0.030830   0.063830   0.005138  -0.020253  -0.004628
     77       0.048303   0.081655  -0.094171  -0.007519  -0.015828   0.011204
     78      -0.233603  -0.003807   0.055651   0.007547  -0.054531  -0.002907
     79      -0.197664  -0.028661   0.071613   0.005588  -0.021160  -0.005975
     80      -0.152665   0.007182   0.032630   0.004167  -0.037015  -0.002135
                 24         25         26         27         28         29    
      0      -0.021291   0.003381   0.015710   0.034712   0.005800   0.022655
      1       0.013897   0.006584   0.039810   0.100392  -0.002274  -0.017260
      2      -0.065747   0.002495   0.007930   0.007411   0.017062   0.076007
      3      -0.007170  -0.007985  -0.054708  -0.145553  -0.017466   0.013791
      4       0.006834  -0.000880  -0.008463  -0.027728   0.010651  -0.008173
      5      -0.027532   0.003214   0.015985   0.038702  -0.050427   0.039625
      6      -0.019524  -0.003708  -0.016004  -0.023154  -0.027514  -0.011525
      7       0.015028  -0.002174  -0.016301  -0.049854   0.018494   0.008996
      8      -0.068186   0.003457   0.004270  -0.000523  -0.087482  -0.041918
      9       0.033280  -0.002372  -0.000691   0.022859  -0.002617  -0.008468
     10      -0.023101  -0.001895   0.007816   0.054332   0.003216   0.005930
     11       0.104653  -0.004640  -0.010048   0.012802  -0.009439  -0.026664
     12      -0.018488   0.004254   0.019008   0.024699   0.020995  -0.015573
     13       0.012967  -0.006374  -0.036209  -0.078609  -0.015399   0.011510
     14      -0.061961  -0.001080  -0.012063  -0.027929   0.065199  -0.055771
     15      -0.008025   0.005555   0.034229   0.085153   0.021154  -0.004966
     16       0.004890  -0.008498  -0.057916  -0.145795  -0.015822   0.002625
     17      -0.024581  -0.003621  -0.022620  -0.061372   0.064146  -0.014471
     18       0.150048  -0.003047  -0.004617   0.018328  -0.032222  -0.139752
     19      -0.106825   0.009873   0.045853   0.091935   0.024110   0.096347
     20       0.484479  -0.011633  -0.015470   0.041258  -0.100887  -0.433642
     21       0.110905  -0.003121  -0.002932  -0.005322   0.176948   0.086086
     22      -0.076353   0.002770   0.000163  -0.015976  -0.125462  -0.058205
     23       0.347440  -0.006112  -0.004871  -0.025171   0.565967   0.266918
     24       0.091574   0.001448   0.018881   0.038026  -0.128866   0.117953
     25      -0.064090  -0.001074  -0.031245  -0.099758   0.086390  -0.080737
     26       0.290375  -0.008778  -0.017705  -0.019829  -0.416679   0.372541
     27      -0.005010  -0.005165  -0.016572  -0.005654   0.006246   0.027797
     28       0.001043   0.010620   0.087393   0.235259  -0.001578  -0.022352
     29       0.007242   0.004906   0.035028   0.041113   0.024554   0.116641
     30      -0.068309  -0.007612   0.006889   0.166915  -0.030875  -0.184786
     31       0.046371   0.011081   0.128660   0.347381   0.026816   0.129718
     32      -0.193476   0.000006  -0.015741   0.084760  -0.097190  -0.555008
     33      -0.010852   0.000019   0.010189   0.051700  -0.002651  -0.016475
     34      -0.001885   0.001413  -0.013066  -0.031246  -0.000142  -0.002043
     35      -0.022493   0.011315   0.014192  -0.026589  -0.009902  -0.044687
     36       0.001632   0.017934   0.053879  -0.029724  -0.001784  -0.008055
     37      -0.003738   0.002214  -0.005826  -0.047409  -0.000910   0.004311
     38      -0.003628  -0.017341  -0.053074   0.035530  -0.001678  -0.019745
     39       0.009359   0.033997   0.014326  -0.066769   0.000425   0.007548
     40      -0.004542  -0.007845   0.001270   0.019934  -0.002621  -0.023505
     41       0.008498  -0.043226  -0.031338   0.021113   0.004391   0.028229
     42      -0.000416  -0.284308  -0.260862   0.220241   0.010743   0.036493
     43       0.010309   0.377055   0.019978  -0.126767  -0.008297  -0.057709
     44       0.010499   0.008882  -0.110865   0.054296   0.004964   0.020503
     45       0.018493  -0.043487   0.132399  -0.113442   0.001028   0.022738
     46      -0.003251  -0.296907   0.014126   0.104092   0.002976   0.013828
     47       0.029090   0.360465   0.225269  -0.275793  -0.005238  -0.007866
     48      -0.014624  -0.218620  -0.326288   0.171964   0.006313   0.009167
     49       0.054146   0.114072   0.231805  -0.039089   0.013330   0.099447
     50       0.014615  -0.049920  -0.079781   0.099970   0.006900   0.026868
     51       0.002602   0.061284   0.086889  -0.150895  -0.006065  -0.022559
     52      -0.026811  -0.067515  -0.164880  -0.084827  -0.006482  -0.035478
     53       0.043352   0.227230   0.348329  -0.184879  -0.001451   0.019528
     54       0.000149   0.032361  -0.046898   0.030002   0.000969   0.002036
     55       0.007814  -0.012020   0.004367  -0.013745   0.002598   0.019685
     56      -0.000843  -0.037465   0.054910  -0.036487  -0.001841  -0.008223
     57      -0.000837  -0.238580   0.281124  -0.215999  -0.009365  -0.051241
     58       0.006643   0.346230  -0.220744   0.079877   0.002178  -0.006106
     59      -0.001256   0.016734   0.068311  -0.076516  -0.005070  -0.033875
     60      -0.002785  -0.051255  -0.063905   0.118806   0.003199   0.010499
     61       0.004080  -0.280306   0.156527  -0.033146   0.001404   0.017064
     62      -0.001643   0.319037  -0.313456   0.234935   0.006005   0.015073
     63       0.131619  -0.006751  -0.025119  -0.033652  -0.148501   0.012710
     64      -0.092326  -0.012538  -0.094908  -0.243259   0.099058  -0.012115
     65       0.419483  -0.013585  -0.029791  -0.018511  -0.467993   0.046986
     66       0.135461  -0.010187  -0.052746  -0.128531   0.106811  -0.092686
     67      -0.091288  -0.007004  -0.049653  -0.126965  -0.079217   0.067849
     68       0.430539  -0.009308  -0.008528   0.020236   0.345815  -0.300560
     69       0.000993   0.001361  -0.015801   0.022135   0.001649   0.011989
     70       0.000924  -0.001075  -0.000219  -0.005718   0.001204   0.011256
     71       0.000711  -0.003222   0.013710  -0.014303  -0.000213  -0.000686
     72      -0.005678   0.063450  -0.124468   0.148051   0.002109  -0.001973
     73      -0.005876  -0.002132  -0.008508   0.031288  -0.002283  -0.023255
     74      -0.003519   0.164764  -0.264020   0.254807   0.008199   0.031632
     75       0.012911  -0.039213   0.060588  -0.096552   0.004953   0.056819
     76      -0.004544   0.010059  -0.016505   0.030604  -0.001164  -0.014301
     77       0.010889   0.037207  -0.108770   0.068032   0.010626   0.080740
     78      -0.003910  -0.168907   0.293713  -0.245149  -0.012987  -0.074124
     79      -0.005502   0.031017  -0.016437   0.029540  -0.002316  -0.024814
     80      -0.002911  -0.042060   0.097824  -0.079453  -0.005600  -0.037326
                 30         31         32         33         34         35    
      0      -0.021455   0.016134  -0.022026  -0.009855   0.007919  -0.103961
      1       0.013889  -0.011709   0.014584  -0.018773   0.017341  -0.215068
      2      -0.066723   0.052832  -0.068730  -0.001943   0.001099  -0.014803
      3      -0.003758  -0.032765   0.008848   0.023809  -0.019546   0.071659
      4       0.005142   0.024004  -0.006230   0.005438  -0.002815  -0.016810
      5      -0.019211  -0.108623   0.028807  -0.007469   0.003283  -0.027242
      6       0.023767   0.020485   0.005115  -0.007192   0.012325  -0.225349
      7      -0.015607  -0.014033  -0.003299   0.014054  -0.015583   0.218715
      8       0.073481   0.061589   0.014547   0.010253  -0.001772   0.119566
      9      -0.020784   0.004166  -0.005738  -0.011368   0.005241  -0.034350
     10       0.013254  -0.003468   0.003887  -0.018412   0.018611  -0.049935
     11      -0.063685   0.014008  -0.017905  -0.007805  -0.005663  -0.000581
     12       0.018587  -0.024579  -0.016806   0.020483  -0.019457   0.347469
     13      -0.012446   0.017210   0.011881   0.003086  -0.002234  -0.020935
     14       0.055338  -0.076179  -0.053772  -0.005579   0.003413  -0.114442
     15       0.001980   0.015795   0.030597  -0.012206   0.011423  -0.051857
     16      -0.001268  -0.010729  -0.021432   0.015743  -0.014211   0.025614
     17       0.008254   0.051918   0.096344   0.008292  -0.003439   0.023183
     18       0.106271  -0.106500   0.144908  -0.014413   0.008625  -0.119033
     19      -0.076132   0.074176  -0.102693  -0.014845   0.015591  -0.199142
     20       0.344105  -0.330650   0.459796   0.000257  -0.003029  -0.007360
     21      -0.136032  -0.113258   0.013068  -0.018209   0.004686  -0.311985
     22       0.098758   0.079982  -0.008620   0.016121  -0.002836   0.137766
     23      -0.441006  -0.365431   0.039443  -0.017987  -0.037479   0.122980
     24      -0.116671   0.114009   0.127103   0.015620  -0.015519   0.352606
     25       0.079584  -0.076136  -0.084069   0.009558  -0.006744  -0.156466
     26      -0.378837   0.369736   0.409688  -0.012258   0.009135  -0.139599
     27       0.031834  -0.000766   0.000525  -0.019816   0.027586  -0.015489
     28      -0.027077  -0.001222  -0.000575  -0.017271   0.001801   0.102224
     29       0.126498   0.000037   0.002835   0.028898   0.036016   0.027582
     30      -0.184342  -0.005370  -0.006453  -0.077227  -0.035189   0.128792
     31       0.126942   0.001686   0.003911   0.002913   0.070149   0.228090
     32      -0.553876  -0.013406  -0.018282  -0.114235  -0.209259   0.015468
     33      -0.015598  -0.000640  -0.000444  -0.018069  -0.001842   0.028056
     34      -0.001282  -0.001020  -0.000202  -0.029234   0.019735  -0.025760
     35      -0.040816  -0.000250  -0.000909  -0.014952  -0.038872  -0.012362
     36      -0.007849  -0.000362   0.000165   0.072912  -0.041492  -0.003985
     37       0.005933   0.001718   0.000618   0.022035  -0.033720   0.011249
     38      -0.023333  -0.003175  -0.001099  -0.000617   0.071621   0.019572
     39       0.006838   0.000287  -0.000034  -0.002698   0.031693  -0.011402
     40      -0.029126  -0.003791  -0.000772   0.141460   0.048528  -0.009216
     41       0.027843   0.003061   0.001048   0.011595  -0.047057  -0.011478
     42       0.022931  -0.000440  -0.000354   0.028522   0.141195   0.064382
     43      -0.068846  -0.010568  -0.003825  -0.007828   0.362416   0.069737
     44       0.013444  -0.000297  -0.000389  -0.034502   0.120891   0.045101
     45       0.023873   0.003518   0.002173   0.158934  -0.148432  -0.130419
     46       0.008210   0.001830   0.002349   0.320055  -0.181921  -0.113966
     47      -0.003075  -0.000201  -0.000040   0.006975  -0.005118  -0.080748
     48      -0.002193  -0.002611  -0.001871  -0.063752   0.200621   0.103313
     49       0.099266   0.010020   0.003962   0.124748  -0.180366   0.043618
     50       0.019067  -0.000081  -0.000230  -0.001927   0.082121   0.066021
     51      -0.019489  -0.000449  -0.000010   0.053327  -0.062533  -0.063740
     52      -0.034434  -0.002494  -0.001442  -0.063452   0.076297  -0.017949
     53       0.024367   0.004188   0.002353   0.121580  -0.195855  -0.080096
     54       0.000115  -0.000292  -0.000065   0.023631   0.015461   0.005271
     55       0.022930   0.002732   0.000536  -0.092901  -0.034330   0.002961
     56      -0.008282  -0.000853  -0.000154   0.043750   0.001905  -0.014099
     57      -0.054399  -0.008150  -0.003277   0.000485   0.254077   0.044346
     58      -0.014560  -0.004251  -0.002190  -0.113707   0.237933   0.098124
     59      -0.038829  -0.005913  -0.002205   0.021325   0.183808   0.036955
     60       0.006552   0.001201   0.001477   0.249484  -0.150909  -0.090576
     61       0.021597   0.003602   0.001727   0.116646  -0.195807  -0.099000
     62       0.006362   0.000440   0.001038   0.187751  -0.065273  -0.036499
     63       0.005452  -0.076093  -0.199336  -0.012689   0.008972  -0.213178
     64      -0.003293   0.053150   0.137656   0.014459  -0.010391  -0.123931
     65       0.018283  -0.240214  -0.632944   0.005431  -0.011488   0.036080
     66       0.049835   0.200473  -0.084700   0.024629  -0.014492   0.068324
     67      -0.029747  -0.140163   0.063070   0.009123  -0.005696  -0.185985
     68       0.154244   0.638085  -0.268717   0.004017   0.013952  -0.057382
     69       0.014930   0.002247   0.000693  -0.057263  -0.058672  -0.004537
     70       0.015340   0.002218   0.000405  -0.094844  -0.034734   0.013286
     71       0.000510  -0.000051  -0.000321  -0.066863   0.025185   0.018668
     72      -0.009485  -0.001093   0.000840   0.254215  -0.081986  -0.074507
     73      -0.030585  -0.004278  -0.000799   0.176431   0.059473  -0.023473
     74       0.027543   0.004077   0.002550   0.235904  -0.235128  -0.100883
     75       0.077499   0.010989   0.001874  -0.534726  -0.131226   0.078812
     76      -0.018843  -0.002635  -0.000481   0.120750   0.027808  -0.017933
     77       0.098861   0.014143   0.003732  -0.368681  -0.297593   0.009903
     78      -0.079789  -0.011529  -0.004465  -0.056633   0.375600   0.089125
     79      -0.032418  -0.004653  -0.001008   0.176485   0.071701  -0.021331
     80      -0.042425  -0.006241  -0.002241   0.025014   0.182524   0.032893
                 36         37         38         39         40         41    
      0       0.000876   0.085368  -0.042457   0.004428   0.051666  -0.000315
      1      -0.031140   0.155295  -0.059610  -0.004898  -0.046552   0.001271
      2      -0.006645   0.007275   0.000415  -0.002177  -0.026140   0.000618
      3      -0.035722   0.129805  -0.031193  -0.006219  -0.086985  -0.001659
      4      -0.015998  -0.028792   0.025057   0.000085  -0.012954  -0.002135
      5       0.006788  -0.046950   0.015222   0.001603   0.024296  -0.000494
      6      -0.048956  -0.032610   0.035216   0.000618  -0.006548   0.000437
      7       0.041907  -0.049217  -0.002067   0.006668   0.096565   0.000453
      8       0.025073  -0.000025  -0.011610   0.001091   0.023295  -0.000423
      9       0.028136  -0.003785  -0.022167   0.002892   0.050137   0.001700
     10       0.016057  -0.019291  -0.029275  -0.009250   0.000138   0.008595
     11      -0.001520  -0.003065   0.000755   0.000294  -0.016132   0.006348
     12       0.015163  -0.032168   0.002818  -0.009404  -0.063345   0.003440
     13       0.003208  -0.062002   0.033051  -0.001680  -0.042262  -0.000975
     14      -0.006911  -0.004571   0.006231   0.001151   0.010182  -0.002585
     15       0.001663  -0.124770   0.051831  -0.001011  -0.005495   0.001652
     16      -0.000440   0.080589  -0.026766   0.005934   0.040892  -0.002774
     17      -0.000087   0.056947  -0.021821   0.001876   0.010944  -0.000990
     18       0.057890   0.133971  -0.107274   0.038720   0.462274  -0.003101
     19      -0.054715   0.141452  -0.034436  -0.018505  -0.213718   0.002226
     20      -0.033783  -0.006676   0.022613  -0.017357  -0.193122   0.001312
     21      -0.052022  -0.257504   0.146834   0.037826   0.314722  -0.005068
     22       0.042551  -0.230970   0.087196   0.035747   0.350147  -0.004023
     23       0.020230   0.027930  -0.028187  -0.004424  -0.022232   0.001360
     24       0.023410   0.010274  -0.027401  -0.005920  -0.016980   0.007738
     25      -0.037825  -0.524418   0.340562  -0.021240  -0.494924  -0.028567
     26      -0.006362  -0.110748   0.080148   0.002357  -0.098443  -0.004819
     27       0.120111  -0.007899  -0.033731   0.009017  -0.012414   0.006496
     28      -0.024114   0.015538  -0.017184  -0.007707  -0.000918  -0.000169
     29      -0.021172   0.010273   0.018983   0.008865   0.002649   0.009357
     30      -0.010920  -0.025865  -0.065293  -0.022957  -0.031970   0.019858
     31      -0.032354   0.008062  -0.016346   0.012112  -0.025091   0.058201
     32      -0.162949  -0.016610  -0.056405  -0.086078   0.014256  -0.090347
     33      -0.002262   0.003480  -0.011373  -0.010104  -0.012101  -0.007709
     34       0.282789  -0.014821  -0.069313   0.012271  -0.022745  -0.013622
     35       0.016422  -0.005602  -0.014898  -0.018276   0.002926  -0.042404
     36      -0.036201   0.063123   0.194543   0.111697   0.013873   0.008551
     37      -0.290203   0.009555   0.063880  -0.042996   0.015778   0.005653
     38       0.050348   0.041141   0.125775   0.123778  -0.007214   0.088230
     39      -0.065383  -0.057934  -0.163755  -0.135580  -0.002764   0.033623
[...]
     57      -0.037811   0.049432   0.061295  -0.002335   0.000205  -0.000063
     58      -0.029531   0.052889   0.051938  -0.003528   0.000186  -0.000070
     59       0.097588  -0.139141  -0.157849   0.009935  -0.000565   0.000206
     60       0.129329   0.063513  -0.145324   0.006716  -0.000268   0.000094
     61      -0.100284  -0.056017   0.114811  -0.004678   0.000236  -0.000058
     62      -0.060370  -0.026191   0.071532  -0.001718   0.000153  -0.000037
     63       0.000038   0.000048  -0.000112   0.000052  -0.013419  -0.365420
     64      -0.000053  -0.000086   0.000166  -0.000097   0.017200   0.504207
     65      -0.000021   0.000003   0.000055  -0.000032   0.007987   0.225269
     66       0.000272   0.000017   0.000127  -0.000129   0.368874   0.246376
     67       0.000079   0.000025  -0.000002  -0.000033   0.057955   0.037563
     68      -0.000078  -0.000023  -0.000030   0.000035  -0.102401  -0.068553
     69       0.001737  -0.053938   0.009584   0.035400  -0.000049   0.000008
     70      -0.022203   0.007758  -0.077612   0.026911   0.000003   0.000006
     71       0.005545   0.066778   0.013888   0.021401  -0.000011   0.000003
     72      -0.126504   0.464970  -0.460539  -0.324173   0.000503  -0.000098
     73       0.088078  -0.381423   0.319100   0.277200  -0.000402   0.000085
     74       0.055917  -0.172604   0.201809   0.148969  -0.000211   0.000046
     75       0.055018  -0.018492   0.198252  -0.249864   0.000178  -0.000075
     76       0.143719   0.037158   0.518170  -0.745266   0.000526  -0.000200
     77       0.014516   0.039077   0.048295  -0.049391   0.000039  -0.000017
     78       0.047699   0.207000   0.145002   0.136942  -0.000109   0.000031
     79       0.038065   0.250250   0.104859   0.142522  -0.000117   0.000036
     80      -0.139418  -0.675031  -0.419258  -0.365613   0.000317  -0.000073
                  78         79         80    
      0      -0.010025  -0.022144   0.005519
      1      -0.023064  -0.051975   0.010805
      2      -0.001945  -0.004516   0.000656
      3       0.051008  -0.048872   0.006138
      4       0.008383  -0.007260   0.000760
      5      -0.014090   0.013672  -0.001752
      6       0.014054  -0.009369   0.002502
      7      -0.018710   0.014303  -0.002472
      8      -0.008525   0.006087  -0.001333
      9      -0.001369  -0.000048  -0.001232
     10      -0.000704  -0.000002  -0.002151
     11       0.000272   0.000016  -0.000092
     12      -0.010713  -0.018223  -0.074981
     13      -0.001432  -0.002765  -0.012956
     14       0.003034   0.005088   0.020591
     15       0.027457   0.016121  -0.013531
     16      -0.039063  -0.021456   0.018907
     17      -0.017181  -0.009766   0.008391
     18       0.122486   0.261206  -0.055163
     19       0.281338   0.600034  -0.123568
     20       0.023685   0.050543  -0.009976
     21      -0.156811   0.110092  -0.024054
     22       0.215265  -0.154536   0.031422
     23       0.096535  -0.068525   0.014449
     24       0.148049   0.231780   0.902035
     25       0.024067   0.038301   0.150327
     26      -0.040960  -0.064023  -0.248955
     27       0.000044  -0.000150  -0.000410
     28      -0.000078   0.000480  -0.000099
     29      -0.000032   0.000156   0.000107
     30       0.000154   0.002825  -0.000229
     31       0.000461  -0.004189   0.000551
     32       0.000136  -0.001910   0.000211
     33       0.000056  -0.000047   0.000336
     34       0.000052  -0.000024   0.000004
     35      -0.000001   0.000014  -0.000087
     36       0.000020  -0.000095   0.000076
     37      -0.000059   0.000128  -0.000096
     38       0.000011  -0.000101   0.000006
     39      -0.000026   0.000012   0.000001
     40       0.000044  -0.000067   0.000063
     41      -0.000017   0.000007  -0.000096
     42      -0.000102   0.000133  -0.000548
     43      -0.000131   0.000229  -0.000392
     44       0.000407  -0.000260   0.001478
     45       0.000420  -0.000159   0.000489
     46      -0.000399   0.000295  -0.000374
     47      -0.000213   0.000130  -0.000371
     48       0.000174  -0.000728   0.000187
     49       0.000180  -0.000880   0.000245
     50      -0.000442   0.001995  -0.000637
     51      -0.000384   0.001713  -0.000819
     52       0.000319  -0.001513   0.000327
     53       0.000211  -0.000881   0.000267
     54       0.000004  -0.000011   0.000055
     55      -0.000019   0.000006  -0.000080
     56       0.000012  -0.000026   0.000001
     57       0.000096  -0.000049   0.000144
     58       0.000068  -0.000050   0.000102
     59      -0.000243   0.000259  -0.000419
     60      -0.000160   0.000127  -0.000892
     61       0.000154  -0.000026   0.000752
     62       0.000093  -0.000024   0.000381
     63      -0.335431  -0.184291   0.145753
     64       0.465469   0.253346  -0.200506
     65       0.207310   0.113338  -0.089698
     66      -0.618772   0.564360  -0.067639
     67      -0.097383   0.086931  -0.010054
     68       0.171797  -0.157311   0.018942
     69      -0.000021   0.000006   0.000001
     70      -0.000002   0.000004  -0.000017
     71      -0.000007  -0.000013  -0.000036
     72       0.000215   0.000005   0.000032
     73      -0.000179   0.000056  -0.000042
     74      -0.000090   0.000019  -0.000052
     75       0.000098  -0.000054   0.000142
     76       0.000265  -0.000205   0.000413
     77       0.000017  -0.000003   0.000035
     78      -0.000043   0.000003  -0.000167
     79      -0.000061   0.000006  -0.000144
     80       0.000146   0.000112   0.000465


-----------
IR SPECTRUM  
-----------

 Mode    freq (cm**-1)   T**2         TX         TY         TZ
-------------------------------------------------------------------
   6:        50.02    0.000000  (  0.000000   0.000000   0.000000)
   7:        66.81    0.000000  (  0.000000   0.000000   0.000000)
   8:        75.45    0.000000  (  0.000000   0.000000   0.000000)
   9:       108.37    0.000000  (  0.000000   0.000000   0.000000)
  10:       120.08    0.000000  (  0.000000   0.000000   0.000000)
  11:       155.33    0.000000  (  0.000000   0.000000   0.000000)
  12:       214.16    0.000000  (  0.000000   0.000000   0.000000)
  13:       267.57    0.000000  (  0.000000   0.000000   0.000000)
  14:       278.76    0.000000  (  0.000000   0.000000   0.000000)
  15:       283.43    0.000000  (  0.000000   0.000000   0.000000)
  16:       375.95    0.000000  (  0.000000   0.000000   0.000000)
  17:       381.22    0.000000  (  0.000000   0.000000   0.000000)
  18:       427.25    0.000000  (  0.000000   0.000000   0.000000)
  19:       463.19    0.000000  (  0.000000   0.000000   0.000000)
  20:       510.27    0.000000  (  0.000000   0.000000   0.000000)
  21:       588.75    0.000000  (  0.000000   0.000000   0.000000)
  22:       624.08    0.000000  (  0.000000   0.000000   0.000000)
  23:       666.12    0.000000  (  0.000000   0.000000   0.000000)
  24:       754.32    0.000000  (  0.000000   0.000000   0.000000)
  25:       771.31    0.000000  (  0.000000   0.000000   0.000000)
  26:       823.57    0.000000  (  0.000000   0.000000   0.000000)
  27:       858.50    0.000000  (  0.000000   0.000000   0.000000)
  28:       875.15    0.000000  (  0.000000   0.000000   0.000000)
  29:       900.78    0.000000  (  0.000000   0.000000   0.000000)
  30:       913.98    0.000000  (  0.000000   0.000000   0.000000)
  31:       931.20    0.000000  (  0.000000   0.000000   0.000000)
  32:       934.21    0.000000  (  0.000000   0.000000   0.000000)
  33:       945.60    0.000000  (  0.000000   0.000000   0.000000)
  34:       951.85    0.000000  (  0.000000   0.000000   0.000000)
  35:       984.58    0.000000  (  0.000000   0.000000   0.000000)
  36:      1020.06    0.000000  (  0.000000   0.000000   0.000000)
  37:      1067.41    0.000000  (  0.000000   0.000000   0.000000)
  38:      1071.47    0.000000  (  0.000000   0.000000   0.000000)
  39:      1100.66    0.000000  (  0.000000   0.000000   0.000000)
  40:      1112.13    0.000000  (  0.000000   0.000000   0.000000)
  41:      1125.38    0.000000  (  0.000000   0.000000   0.000000)
  42:      1143.60    0.000000  (  0.000000   0.000000   0.000000)
  43:      1178.28    0.000000  (  0.000000   0.000000   0.000000)
  44:      1185.58    0.000000  (  0.000000   0.000000   0.000000)
  45:      1211.79    0.000000  (  0.000000   0.000000   0.000000)
  46:      1219.33    0.000000  (  0.000000   0.000000   0.000000)
  47:      1254.43    0.000000  (  0.000000   0.000000   0.000000)
  48:      1268.16    0.000000  (  0.000000   0.000000   0.000000)
  49:      1276.24    0.000000  (  0.000000   0.000000   0.000000)
  50:      1277.41    0.000000  (  0.000000   0.000000   0.000000)
  51:      1292.95    0.000000  (  0.000000   0.000000   0.000000)
  52:      1324.57    0.000000  (  0.000000   0.000000   0.000000)
  53:      1354.67    0.000000  (  0.000000   0.000000   0.000000)
  54:      1369.13    0.000000  (  0.000000   0.000000   0.000000)
  55:      1423.60    0.000000  (  0.000000   0.000000   0.000000)
  56:      1429.86    0.000000  (  0.000000   0.000000   0.000000)
  57:      1455.42    0.000000  (  0.000000   0.000000   0.000000)
  58:      1468.53    0.000000  (  0.000000   0.000000   0.000000)
  59:      1501.93    0.000000  (  0.000000   0.000000   0.000000)
  60:      1505.17    0.000000  (  0.000000   0.000000   0.000000)
  61:      1509.14    0.000000  (  0.000000   0.000000   0.000000)
  62:      1513.01    0.000000  (  0.000000   0.000000   0.000000)
  63:      1561.32    0.000000  (  0.000000   0.000000   0.000000)
  64:      1568.22    0.000000  (  0.000000   0.000000   0.000000)
  65:      1668.20    0.000000  (  0.000000   0.000000   0.000000)
  66:      2849.94    0.000000  (  0.000000   0.000000   0.000000)
  67:      2868.03    0.000000  (  0.000000   0.000000   0.000000)
  68:      2939.32    0.000000  (  0.000000   0.000000   0.000000)
  69:      2942.23    0.000000  (  0.000000   0.000000   0.000000)
  70:      2954.50    0.000000  (  0.000000   0.000000   0.000000)
  71:      2966.02    0.000000  (  0.000000   0.000000   0.000000)
  72:      2974.57    0.000000  (  0.000000   0.000000   0.000000)
  73:      2981.08    0.000000  (  0.000000   0.000000   0.000000)
  74:      2986.79    0.000000  (  0.000000   0.000000   0.000000)
  75:      2999.15    0.000000  (  0.000000   0.000000   0.000000)
  76:      3048.66    0.000000  (  0.000000   0.000000   0.000000)
  77:      3055.93    0.000000  (  0.000000   0.000000   0.000000)
  78:      3061.48    0.000000  (  0.000000   0.000000   0.000000)
  79:      3071.17    0.000000  (  0.000000   0.000000   0.000000)
  80:      3082.82    0.000000  (  0.000000   0.000000   0.000000)

The first frequency considered to be a vibration is 6
The total number of vibrations considered is 75


--------------------------
THERMOCHEMISTRY AT 298.15K
--------------------------

Temperature         ... 298.15 K
Pressure            ... 1.00 atm
Total Mass          ... 161.25 AMU

Throughout the following assumptions are being made:
  (1) The electronic state is orbitally nondegenerate
  (2) There are no thermally accessible electronically excited states
  (3) Hindered rotations indicated by low frequency modes are not
      treated as such but are treated as vibrations and this may
      cause some error
  (4) All equations used are the standard statistical mechanics
      equations for an ideal gas
  (5) All vibrations are strictly harmonic

freq.      50.02  E(vib)   ...       0.52 
freq.      66.81  E(vib)   ...       0.50 
freq.      75.45  E(vib)   ...       0.49 
freq.     108.37  E(vib)   ...       0.45 
freq.     120.08  E(vib)   ...       0.44 
freq.     155.33  E(vib)   ...       0.40 
freq.     214.16  E(vib)   ...       0.34 
freq.     267.57  E(vib)   ...       0.29 
freq.     278.76  E(vib)   ...       0.28 
freq.     283.43  E(vib)   ...       0.28 
freq.     375.95  E(vib)   ...       0.21 
freq.     381.22  E(vib)   ...       0.21 
freq.     427.25  E(vib)   ...       0.18 
freq.     463.19  E(vib)   ...       0.16 
freq.     510.27  E(vib)   ...       0.14 
freq.     588.75  E(vib)   ...       0.10 
freq.     624.08  E(vib)   ...       0.09 
freq.     666.12  E(vib)   ...       0.08 
freq.     754.32  E(vib)   ...       0.06 
freq.     771.31  E(vib)   ...       0.05 
freq.     823.57  E(vib)   ...       0.05 
freq.     858.50  E(vib)   ...       0.04 
freq.     875.15  E(vib)   ...       0.04 
freq.     900.78  E(vib)   ...       0.03 
freq.     913.98  E(vib)   ...       0.03 
freq.     931.20  E(vib)   ...       0.03 
freq.     934.21  E(vib)   ...       0.03 
freq.     945.60  E(vib)   ...       0.03 
freq.     951.85  E(vib)   ...       0.03 
freq.     984.58  E(vib)   ...       0.02 
freq.    1020.06  E(vib)   ...       0.02 
freq.    1067.41  E(vib)   ...       0.02 
freq.    1071.47  E(vib)   ...       0.02 
freq.    1100.66  E(vib)   ...       0.02 
freq.    1112.13  E(vib)   ...       0.01 
freq.    1125.38  E(vib)   ...       0.01 
freq.    1143.60  E(vib)   ...       0.01 
freq.    1178.28  E(vib)   ...       0.01 
freq.    1185.58  E(vib)   ...       0.01 
freq.    1211.79  E(vib)   ...       0.01 
freq.    1219.33  E(vib)   ...       0.01 
freq.    1254.43  E(vib)   ...       0.01 
freq.    1268.16  E(vib)   ...       0.01 
freq.    1276.24  E(vib)   ...       0.01 
freq.    1277.41  E(vib)   ...       0.01 
freq.    1292.95  E(vib)   ...       0.01 
freq.    1324.57  E(vib)   ...       0.01 
freq.    1354.67  E(vib)   ...       0.01 
freq.    1369.13  E(vib)   ...       0.01 
freq.    1423.60  E(vib)   ...       0.00 
freq.    1429.86  E(vib)   ...       0.00 
freq.    1455.42  E(vib)   ...       0.00 
freq.    1468.53  E(vib)   ...       0.00 
freq.    1501.93  E(vib)   ...       0.00 
freq.    1505.17  E(vib)   ...       0.00 
freq.    1509.14  E(vib)   ...       0.00 
freq.    1513.01  E(vib)   ...       0.00 
freq.    1561.32  E(vib)   ...       0.00 
freq.    1568.22  E(vib)   ...       0.00 
freq.    1668.20  E(vib)   ...       0.00 
freq.    2849.94  E(vib)   ...       0.00 
freq.    2868.03  E(vib)   ...       0.00 
freq.    2939.32  E(vib)   ...       0.00 
freq.    2942.23  E(vib)   ...       0.00 
freq.    2954.50  E(vib)   ...       0.00 
freq.    2966.02  E(vib)   ...       0.00 
freq.    2974.57  E(vib)   ...       0.00 
freq.    2981.08  E(vib)   ...       0.00 
freq.    2986.79  E(vib)   ...       0.00 
freq.    2999.15  E(vib)   ...       0.00 
freq.    3048.66  E(vib)   ...       0.00 
freq.    3055.93  E(vib)   ...       0.00 
freq.    3061.48  E(vib)   ...       0.00 
freq.    3071.17  E(vib)   ...       0.00 
freq.    3082.82  E(vib)   ...       0.00 

------------
INNER ENERGY
------------

The inner energy is: U= E(el) + E(ZPE) + E(vib) + E(rot) + E(trans)
    E(el)   - is the total energy from the electronic structure calculation
              = E(kin-el) + E(nuc-el) + E(el-el) + E(nuc-nuc)
    E(ZPE)  - the the zero temperature vibrational energy from the frequency calculation
    E(vib)  - the the finite temperature correction to E(ZPE) due to population
              of excited vibrational states
    E(rot)  - is the rotational thermal energy
    E(trans)- is the translational thermal energy

Summary of contributions to the inner energy U:
Electronic energy                ...    -34.11187496 Eh
Zero point energy                ...      0.22904970 Eh     143.73 kcal/mol
Thermal vibrational correction   ...      0.00931007 Eh       5.84 kcal/mol
Thermal rotational correction    ...      0.00141627 Eh       0.89 kcal/mol
Thermal translational correction ...      0.00141627 Eh       0.89 kcal/mol
-----------------------------------------------------------------------
Total thermal energy                    -33.87068266 Eh


Summary of corrections to the electronic energy:
(perhaps to be used in another calculation)
Total thermal correction                  0.01214261 Eh       7.62 kcal/mol
Non-thermal (ZPE) correction              0.22904970 Eh     143.73 kcal/mol
-----------------------------------------------------------------------
Total correction                          0.24119231 Eh     151.35 kcal/mol


--------
ENTHALPY
--------

The enthalpy is H = U + kB*T
                kB is Boltzmann's constant
Total free energy                 ...    -33.87068266 Eh 
Thermal Enthalpy correction       ...      0.00094421 Eh       0.59 kcal/mol
-----------------------------------------------------------------------
Total Enthalpy                    ...    -33.86973845 Eh


Note: Only C1 symmetry has been detected, increase convergence thresholds 
      if your molecule has a higher symmetry. Symmetry factor of 1.0 is   
      used for the rotational entropy correction. 
 

Note: Rotational entropy computed according to Herzberg 
Infrared and Raman Spectra, Chapter V,1, Van Nostrand Reinhold, 1945 
Point Group:  C1, Symmetry Number:   1  
Rotational constants in cm-1:     0.109962     0.009702     0.009353 

Vibrational entropy computed according to the QRRHO of S. Grimme
Chem.Eur.J. 2012 18 9955


-------
ENTROPY
-------

The entropy contributions are T*S = T*(S(el)+S(vib)+S(rot)+S(trans))
     S(el)   - electronic entropy
     S(vib)  - vibrational entropy
     S(rot)  - rotational entropy
     S(trans)- translational entropy
The entropies will be listed as mutliplied by the temperature to get
units of energy

Electronic entropy                ...      0.00000000 Eh      0.00 kcal/mol
Vibrational entropy               ...      0.01619755 Eh     10.16 kcal/mol
Rotational entropy                ...      0.01494697 Eh      9.38 kcal/mol
Translational entropy             ...      0.01954790 Eh     12.27 kcal/mol
-----------------------------------------------------------------------
Final entropy term                ...      0.05069242 Eh     31.81 kcal/mol

In case the symmetry of your molecule has not been determined correctly
or in case you have a reason to use a different symmetry number we print 
out the resulting rotational entropy values for sn=1,12 :
 --------------------------------------------------------
|  sn= 1 | S(rot)=       0.01494697 Eh      9.38 kcal/mol|
|  sn= 2 | S(rot)=       0.01429251 Eh      8.97 kcal/mol|
|  sn= 3 | S(rot)=       0.01390968 Eh      8.73 kcal/mol|
|  sn= 4 | S(rot)=       0.01363806 Eh      8.56 kcal/mol|
|  sn= 5 | S(rot)=       0.01342737 Eh      8.43 kcal/mol|
|  sn= 6 | S(rot)=       0.01325523 Eh      8.32 kcal/mol|
|  sn= 7 | S(rot)=       0.01310968 Eh      8.23 kcal/mol|
|  sn= 8 | S(rot)=       0.01298360 Eh      8.15 kcal/mol|
|  sn= 9 | S(rot)=       0.01287239 Eh      8.08 kcal/mol|
|  sn=10 | S(rot)=       0.01277291 Eh      8.02 kcal/mol|
|  sn=11 | S(rot)=       0.01268292 Eh      7.96 kcal/mol|
|  sn=12 | S(rot)=       0.01260077 Eh      7.91 kcal/mol|
 --------------------------------------------------------


-------------------
GIBBS FREE ENERGY
-------------------

The Gibbs free energy is G = H - T*S

Total enthalpy                    ...    -33.86973845 Eh 
Total entropy correction          ...     -0.05069242 Eh    -31.81 kcal/mol
-----------------------------------------------------------------------
Final Gibbs free energy         ...    -33.92043087 Eh

For completeness - the Gibbs free energy minus the electronic energy
G-E(el)                           ...      0.19144409 Eh    120.13 kcal/mol


Total Time for Numerical Frequencies  :        62.905 sec
Time for Reference State(s)           :         0.178 sec
Time for Displacements                :        55.429 sec

Timings for individual modules:

Sum of individual times         ...        0.349 sec (=   0.006 min)
XTB module                      ...        0.349 sec (=   0.006 min) 100.0 %
                             ****ORCA TERMINATED NORMALLY****
TOTAL RUN TIME: 0 days 0 hours 1 minutes 4 seconds 70 msec
