(SLURM) JOB ID:         162

                                 *****************
                                 * O   R   C   A *
                                 *****************

           --- An Ab Initio, DFT and Semiempirical electronic structure package ---

                  #######################################################
                  #                        -***-                        #
                  #          Department of theory and spectroscopy      #
                  #               Directorship: Frank Neese             #
                  #        Max Planck Institute fuer Kohlenforschung    #
                  #                Kaiser Wilhelm Platz 1               #
                  #                 D-45470 Muelheim/Ruhr               #
                  #                      Germany                        #
                  #                                                     #
                  #                  All rights reserved                #
                  #                        -***-                        #
                  #######################################################


                         Program Version 4.2.1 -  RELEASE  -


 With contributions from (in alphabetic order):
   Daniel Aravena         : Magnetic Suceptibility
   Michael Atanasov       : Ab Initio Ligand Field Theory (pilot matlab implementation)
   Alexander A. Auer      : GIAO ZORA, VPT2
   Ute Becker             : Parallelization
   Giovanni Bistoni       : ED, misc. LED, open-shell LED, HFLD
   Martin Brehm           : Molecular dynamics
   Dmytro Bykov           : SCF Hessian
   Vijay G. Chilkuri      : MRCI spin determinant printing, contributions to CSF-ICE
   Dipayan Datta          : RHF DLPNO-CCSD density
   Achintya Kumar Dutta   : EOM-CC, STEOM-CC
   Dmitry Ganyushin       : Spin-Orbit,Spin-Spin,Magnetic field MRCI
   Miquel Garcia          : C-PCM Hessian, Gaussian charge scheme
   Yang Guo               : DLPNO-NEVPT2, CIM, IAO-localization
   Andreas Hansen         : Spin unrestricted coupled pair/coupled cluster methods
   Benjamin Helmich-Paris : CASSCF linear response (MC-RPA)
   Lee Huntington         : MR-EOM, pCC
   Robert Izsak           : Overlap fitted RIJCOSX, COSX-SCS-MP3, EOM
   Christian Kollmar      : KDIIS, OOCD, Brueckner-CCSD(T), CCSD density
   Simone Kossmann        : Meta GGA functionals, TD-DFT gradient, OOMP2, MP2 Hessian
   Martin Krupicka        : AUTO-CI
   Lucas Lang             : DCDCAS
   Dagmar Lenk            : GEPOL surface, SMD
   Dimitrios Liakos       : Extrapolation schemes; Compound Job, initial MDCI parallelization
   Dimitrios Manganas     : Further ROCIS development; embedding schemes
   Dimitrios Pantazis     : SARC Basis sets
   Taras Petrenko         : DFT Hessian,TD-DFT gradient, ASA, ECA, R-Raman, ABS, FL, XAS/XES, NRVS
   Peter Pinski           : DLPNO-MP2, DLPNO-MP2 Gradient
   Christoph Reimann      : Effective Core Potentials
   Marius Retegan         : Local ZFS, SOC
   Christoph Riplinger    : Optimizer, TS searches, QM/MM, DLPNO-CCSD(T), (RO)-DLPNO pert. Triples
   Tobias Risthaus        : Range-separated hybrids, TD-DFT gradient, RPA, STAB
   Michael Roemelt        : Original ROCIS implementation
   Masaaki Saitow         : Open-shell DLPNO-CCSD energy and density
   Barbara Sandhoefer     : DKH picture change effects
   Avijit Sen             : IP-ROCIS
   Kantharuban Sivalingam : CASSCF convergence, NEVPT2, FIC-MRCI
   Bernardo de Souza      : ESD, SOC TD-DFT
   Georgi Stoychev        : AutoAux, RI-MP2 NMR
   Willem Van den Heuvel  : Paramagnetic NMR
   Boris Wezisla          : Elementary symmetry handling
   Frank Wennmohs         : Technical directorship


 We gratefully acknowledge several colleagues who have allowed us to
 interface, adapt or use parts of their codes:
   Stefan Grimme, W. Hujo, H. Kruse,             : VdW corrections, initial TS optimization,
                  C. Bannwarth                     DFT functionals, gCP, sTDA/sTD-DF
   Ed Valeev, F. Pavosevic, A. Kumar             : LibInt (2-el integral package), F12 methods
   Garnet Chan, S. Sharma, J. Yang, R. Olivares  : DMRG
   Ulf Ekstrom                                   : XCFun DFT Library
   Mihaly Kallay                                 : mrcc  (arbitrary order and MRCC methods)
   Andreas Klamt, Michael Diedenhofen            : otool_cosmo (COSMO solvation model)
   Jiri Pittner, Ondrej Demel                    : Mk-CCSD
   Frank Weinhold                                : gennbo (NPA and NBO analysis)
   Christopher J. Cramer and Donald G. Truhlar   : smd solvation model
   Lars Goerigk                                  : TD-DFT with DH, B97 family of functionals
   V. Asgeirsson, H. Jonsson                     : NEB implementation
   FAccTs GmbH                                   : IRC, NEB, NEB-TS, Multilevel, MM, QM/MM, CI optimization
   S Lehtola, MJT Oliveira, MAL Marques          : LibXC Library


 Your calculation uses the libint2 library for the computation of 2-el integrals
 For citations please refer to: http://libint.valeyev.net

 Your ORCA version has been built with support for libXC version: 4.2.3
 For citations please refer to: https://tddft.org/programs/libxc/

 This ORCA versions uses:
   CBLAS   interface :  Fast vector & matrix operations
   LAPACKE interface :  Fast linear algebra routines
   SCALAPACK package :  Parallel linear algebra routines




***************************************
The coordinates will be read from file: init.xyz
***************************************


Your calculation utilizes the SMD solvation module
Please cite in your paper:
A.V. Marenich, C.J. Cramer, D.G. Truhlar J. Phys. Chem. B, 113, (2009), 6378 

Your calculation utilizes the semiempirical GFN2-xTB method
Please cite in your paper:
C. Bannwarth, Ehlert S., S. Grimme,  J. Chem. Theory Comput., 15, (2019), 1652.
   

----- Orbital basis set information -----
Your calculation utilizes the basis: def2-SVP
   F. Weigend and R. Ahlrichs, Phys. Chem. Chem. Phys. 7, 3297 (2005).

================================================================================
                                        WARNINGS
                       Please study these warnings very carefully!
================================================================================

WARNING: Gradients needed for Numerical Frequencies
  ===> : Setting RunTyp to EnGrad

WARNING: The environment variable RSH_COMMAND is not set!
  ===> : All Displacements for the Numerical Hessian calculation
         will be started on localhost

WARNING: Found dipole moment calculation with XTB calculation
  ===> : Switching off dipole moment calculation


INFO   : the flag for use of LIBINT has been found!

================================================================================
                                       INPUT FILE
================================================================================
NAME = /tmp/slurm-scratch/freq.162/freq.inp
|  1> ! XTB2 NumFreq
|  2> %maxcore 1150
|  3> 
|  4> * xyzfile 0 1 init.xyz
|  5> 
|  6> %cpcm
|  7>  smd true
|  8>  smdsolvent "ch2cl2"
|  9> end
| 10> %pal nprocs 10 end
| 11> 
| 12>                          ****END OF INPUT****
================================================================================

                     *******************************
                     * Energy+Gradient Calculation *
                     *******************************

      -----------------------------------------------------------      
     |                   =====================                   |     
     |                           x T B                           |     
     |                   =====================                   |     
     |                         S. Grimme                         |     
     |          Mulliken Center for Theoretical Chemistry        |     
     |                    University of Bonn                     |     
      -----------------------------------------------------------      

   * xtb version 6.3.1 (461a024) compiled by 'schneider@apollo14' on 2020-06-26

   xtb is free software: you can redistribute it and/or modify it under
   the terms of the GNU Lesser General Public License as published by
   the Free Software Foundation, either version 3 of the License, or
   (at your option) any later version.
   
   xtb is distributed in the hope that it will be useful,
   but WITHOUT ANY WARRANTY; without even the implied warranty of
   MERCHANTABILITY or FITNESS FOR A PARTICULAR PURPOSE.  See the
   GNU Lesser General Public License for more details.
   
   Cite this work as:
   * S. Grimme, C. Bannwarth, P. Shushkov, J. Chem. Theory Comput., 2017,
     13, 1989-2009. DOI: 10.1021/acs.jctc.7b00118
   * C. Bannwarth, S. Ehlert and S. Grimme., J. Chem. Theory Comput., 2019,
     15, 1652-1671. DOI: 10.1021/acs.jctc.8b01176
   * P. Pracht, E. Caldeweyher, S. Ehlert, S. Grimme, ChemRxiv, 2019, preprint.
     DOI: 10.26434/chemrxiv.8326202.v1
   
   for GFN-FF:
   * S. Spicher and S. Grimme, Angew. Chem. Int. Ed., 2020,
     DOI: 10.1002/anie.202004239
   
   for DFT-D4:
   * E. Caldeweyher, C. Bannwarth and S. Grimme, J. Chem. Phys., 2017,
     147, 034112. DOI: 10.1063/1.4993215
   * E. Caldeweyher, S. Ehlert, A. Hansen, H. Neugebauer, S. Spicher,
     C. Bannwarth and S. Grimme, J. Chem. Phys., 2019, 150, 154122.
     DOI: 10.1063/1.5090222
   
   for sTDA-xTB:
   * S. Grimme and C. Bannwarth, J. Chem. Phys., 2016, 145, 054103.
     DOI: 10.1063/1.4959605
   
   in the mass-spec context:
   * V. Asgeirsson, C. Bauer and S. Grimme, Chem. Sci., 2017, 8, 4879.
     DOI: 10.1039/c7sc00601b
   * J. Koopman and S. Grimme, ACS Omega 2019, 4, 12, 15120-15133.
     DOI: 10.1021/acsomega.9b02011
   
   for metadynamics refer to:
   * S. Grimme, J. Chem. Theory Comput., 2019, 155, 2847-2862
     DOI: 10.1021/acs.jctc.9b00143
   
   with help from (in alphabetical order)
   C. Bannwarth, F. Bohle, G. Brandenburg, E. Caldeweyher, M. Checinski,
   S. Dohm, S. Ehlert, S. Ehrlich, F. März, H. Neugebauer, J. Pisarek,
   P. Pracht, P. Shushkov, and S. Spicher.
   
 * started run on 2020/08/07 at 11:24:59.830     

           -------------------------------------------------
          |                Calculation Setup                |
           -------------------------------------------------

          program call               : /opt/orca/otool_xtb /tmp/slurm-scratch/freq.162/freq_XTB.xyz --grad -c 0 -u 0 -P 10 --namespace /tmp/slurm-scratch/freq.162/freq --gbsa CH2Cl2
          hostname                   : apollo14
          calculation namespace      : /tmp/slurm-scratch/freq.162/freq
          coordinate file            : /tmp/slurm-scratch/freq.162/freq_XTB.xyz
          omp threads                :                    10
          number of atoms            :                    36
          number of electrons        :                    88
          charge                     :                     0
          spin                       :                   0.0
          first test random number   :      0.39024446474769

   ID    Z sym.   atoms
    1    6 C      1-7, 12, 14, 28, 33
    2    1 H      8-10, 13, 15-18, 21, 22, 24-27, 29-32, 34-36
    3    7 N      11
    4    8 O      19, 20, 23

molecular fragmentation (1/2 indicates fragments):
111111111111211111121222211111111111
# atoms in fragment 1/2:    30     6
 fragment masses (1/2) :      179.26       36.03
CMA distance (Bohr)    :   5.325
constraining FC (au)   :  0.0500
########################################################################
[WARNING] Please study the warnings concerning your input carefully
-1- prog_main_parseArguments: Process number higher than OMP_NUM_THREADS, I hope you know what you are doing.
########################################################################

           -------------------------------------------------
          |                 G F N 2 - x T B                 |
           -------------------------------------------------

        Reference                      10.1021/acs.jctc.8b01176
      * Hamiltonian:
        H0-scaling (s, p, d)           1.850000    2.230000    2.230000
        zeta-weighting                 0.500000
      * Dispersion:
        s8                             2.700000
        a1                             0.520000
        a2                             5.000000
        s9                             5.000000
      * Repulsion:
        kExp                           1.500000    1.000000
        rExp                           1.000000
      * Coulomb:
        alpha                          2.000000
        third order                    shell-resolved
        anisotropic                    true
        a3                             3.000000
        a5                             4.000000
        cn-shift                       1.200000
        cn-exp                         4.000000
        max-rad                        5.000000

      * Solvation model:               GBSA
        Solvent                        CH2Cl2
        Parameter file                 internal GFN2-xTB/GBSA
        Dielectric constant                8.9300E+00
        Reference state                gsolv [1 M gas/solution]
        Free energy shift                  4.4408E-03 Eh       2.7867E+00 kcal/mol
        Temperature                        2.9815E+02 K
        Density                            1.3300E+00 kg/L
        Solvent mass                       8.4930E+01 g/mol
        Interaction kernel             Still
        Born radius scaling (c1)           1.4917E+00
        Born radii integrator          GBOBC
        Born offset                        0.0000E+00 a0       0.0000E+00 AA
        H-bond correction              false
        Ion screening                  false
        Surface tension                    1.0000E-05 Eh       1.5569E+01 dyn/cm
        Grid points                               230 per atom

          ...................................................
          :                      SETUP                      :
          :.................................................:
          :  # basis functions                  81          :
          :  # atomic orbitals                  81          :
          :  # shells                           51          :
          :  # electrons                        88          :
          :  max. iterations                   250          :
          :  Hamiltonian                  GFN2-xTB          :
          :  restarted?                      false          :
          :  GBSA solvation                   true          :
          :  PC potential                    false          :
          :  electronic temp.          300.0000000     K    :
          :  accuracy                    1.0000000          :
          :  -> integral cutoff          0.2500000E+02      :
          :  -> integral neglect         0.1000000E-07      :
          :  -> SCF convergence          0.1000000E-05 Eh   :
          :  -> wf. convergence          0.1000000E-03 e    :
          :  Broyden damping             0.4000000          :
          ...................................................

 iter      E             dE          RMSdq      gap      omega  full diag
   1    -49.9225844 -0.499226E+02  0.391E+00    3.99       0.0  T
   2    -49.9633326 -0.407482E-01  0.227E+00    4.28       1.0  T
   3    -49.9621278  0.120476E-02  0.646E-01    4.26       1.0  T
   4    -49.9650435 -0.291568E-02  0.244E-01    4.27       1.0  T
   5    -49.9667963 -0.175279E-02  0.723E-02    4.27       1.0  T
   6    -49.9668160 -0.197255E-04  0.312E-02    4.28       1.0  T
   7    -49.9668184 -0.239800E-05  0.119E-02    4.28       1.4  T
   8    -49.9668204 -0.192896E-05  0.449E-03    4.28       3.7  T
   9    -49.9668205 -0.185645E-06  0.225E-03    4.28       7.4  T
  10    -49.9668206 -0.175446E-07  0.966E-04    4.28      17.3  T
  11    -49.9668206 -0.842937E-08  0.415E-04    4.28      40.2  T

   *** convergence criteria satisfied after 11 iterations ***

         #    Occupation            Energy/Eh            Energy/eV
      -------------------------------------------------------------
         1        2.0000           -0.6865270             -18.6814
       ...           ...                  ...                  ...
        38        2.0000           -0.4359152             -11.8619
        39        2.0000           -0.4271220             -11.6226
        40        2.0000           -0.4234847             -11.5236
        41        2.0000           -0.4095035             -11.1432
        42        2.0000           -0.4086063             -11.1187
        43        2.0000           -0.4072686             -11.0823
        44        2.0000           -0.3928292             -10.6894 (HOMO)
        45                         -0.2355953              -6.4109 (LUMO)
        46                         -0.2324327              -6.3248
        47                         -0.1120765              -3.0498
        48                         -0.0255137              -0.6943
        49                          0.0124301               0.3382
       ...                                ...                  ...
        81                          0.6141486              16.7118
      -------------------------------------------------------------
                  HL-Gap            0.1572339 Eh            4.2786 eV
             Fermi-level           -0.3142122 Eh           -8.5501 eV

 SCC (total)                   0 d,  0 h,  0 min,  0.149 sec
 SCC setup                      ...        0 min,  0.004 sec (  2.902%)
 Dispersion                     ...        0 min,  0.004 sec (  2.433%)
 classical contributions        ...        0 min,  0.003 sec (  2.185%)
 integral evaluation            ...        0 min,  0.020 sec ( 13.511%)
 iterations                     ...        0 min,  0.036 sec ( 24.231%)
 molecular gradient             ...        0 min,  0.067 sec ( 44.801%)
 printout                       ...        0 min,  0.015 sec (  9.922%)

         :::::::::::::::::::::::::::::::::::::::::::::::::::::
         ::                     SUMMARY                     ::
         :::::::::::::::::::::::::::::::::::::::::::::::::::::
         :: total energy             -49.382992479985 Eh    ::
         :: total w/o Gsasa/hb       -49.365256401799 Eh    ::
         :: gradient norm              0.054284656006 Eh/a0 ::
         :: HOMO-LUMO gap              4.278552051534 eV    ::
         ::.................................................::
         :: SCC energy               -49.966820570399 Eh    ::
         :: -> isotropic ES            0.107747525661 Eh    ::
         :: -> anisotropic ES         -0.004528926096 Eh    ::
         :: -> anisotropic XC          0.022505714979 Eh    ::
         :: -> dispersion             -0.029334557119 Eh    ::
         :: -> Gsolv                  -0.024904498478 Eh    ::
         ::    -> Gborn               -0.007168420291 Eh    ::
         ::    -> Gsasa               -0.022176907360 Eh    ::
         ::    -> Ghb                  0.000000000000 Eh    ::
         ::    -> Gshift               0.004440829173 Eh    ::
         :: repulsion energy           0.583540150685 Eh    ::
         :: add. restraining           0.000000000000 Eh    ::
         :::::::::::::::::::::::::::::::::::::::::::::::::::::

           -------------------------------------------------
          |                Property Printout                |
           -------------------------------------------------

    * Orbital Energies and Occupations

         #    Occupation            Energy/Eh            Energy/eV
      -------------------------------------------------------------
         1        2.0000           -0.6865270             -18.6814
       ...           ...                  ...                  ...
        32        2.0000           -0.4666367             -12.6978
        33        2.0000           -0.4494575             -12.2304
        34        2.0000           -0.4464773             -12.1493
        35        2.0000           -0.4455339             -12.1236
        36        2.0000           -0.4423048             -12.0357
        37        2.0000           -0.4377870             -11.9128
        38        2.0000           -0.4359152             -11.8619
        39        2.0000           -0.4271220             -11.6226
        40        2.0000           -0.4234847             -11.5236
        41        2.0000           -0.4095035             -11.1432
        42        2.0000           -0.4086063             -11.1187
        43        2.0000           -0.4072686             -11.0823
        44        2.0000           -0.3928292             -10.6894 (HOMO)
        45                         -0.2355953              -6.4109 (LUMO)
        46                         -0.2324327              -6.3248
        47                         -0.1120765              -3.0498
        48                         -0.0255137              -0.6943
        49                          0.0124301               0.3382
        50                          0.0452567               1.2315
        51                          0.0558608               1.5200
        52                          0.0609738               1.6592
        53                          0.0860750               2.3422
        54                          0.0936155               2.5474
        55                          0.1087439               2.9591
       ...                                ...                  ...
        81                          0.6141486              16.7118
      -------------------------------------------------------------
                  HL-Gap            0.1572339 Eh            4.2786 eV
             Fermi-level           -0.3142122 Eh           -8.5501 eV

     #   Z        covCN         q      C6AA      α(0)
     1   6 C      2.959    -0.018    28.459     8.750
     2   6 C      2.913    -0.040    28.996     8.830
     3   6 C      2.908    -0.030    28.746     8.792
     4   6 C      2.908    -0.030    28.760     8.794
     5   6 C      2.908    -0.030    28.744     8.791
     6   6 C      2.911    -0.035    28.882     8.812
     7   6 C      3.659     0.178    18.009     6.090
     8   1 H      0.924     0.028     2.610     2.527
     9   1 H      0.925     0.057     2.236     2.338
    10   1 H      0.925     0.040     2.445     2.445
    11   7 N      2.674    -0.299    27.697     7.816
    12   6 C      3.730     0.015    20.420     6.451
    13   1 H      0.796     0.312     0.688     1.303
    14   6 C      3.797    -0.070    21.838     6.654
    15   1 H      0.923     0.036     2.508     2.476
    16   1 H      0.923     0.021     2.712     2.575
    17   1 H      0.924     0.050     2.319     2.381
    18   1 H      0.923     0.049     2.332     2.388
    19   8 O      1.650    -0.488    22.637     6.423
    20   8 O      1.602    -0.625    25.809     6.856
    21   1 H      0.800     0.329     0.640     1.257
    22   1 H      0.804     0.290     0.753     1.363
    23   8 O      1.598    -0.618    25.642     6.834
    24   1 H      0.799     0.324     0.653     1.270
    25   1 H      0.804     0.288     0.758     1.368
    26   1 H      0.923     0.018     2.758     2.597
    27   1 H      0.859     0.152     1.388     1.845
    28   6 C      3.796    -0.053    21.523     6.606
    29   1 H      0.923     0.031     2.573     2.509
    30   1 H      0.923     0.029     2.595     2.519
    31   1 H      0.925     0.042     2.422     2.434
    32   1 H      0.925     0.040     2.453     2.449
    33   6 C      3.745    -0.102    22.513     6.768
    34   1 H      0.923     0.036     2.509     2.477
    35   1 H      0.923     0.037     2.496     2.471
    36   1 H      0.923     0.035     2.511     2.478

 Mol. C6AA /au·bohr⁶  :      10807.031423
 Mol. C8AA /au·bohr⁸  :     237450.483731
 Mol. α(0) /au        :        158.737565


Wiberg/Mayer (AO) data.
largest (>0.10) Wiberg bond orders for each atom
          total WBO             WBO to atom ...
     1  C   3.985        C    6 1.420    C    2 1.411    C    7 0.974    C    4 0.110
     2  C   3.990        C    3 1.447    C    1 1.411    H    8 0.969    C    5 0.112
     3  C   3.990        C    2 1.447    C    4 1.435    H   32 0.971    C    6 0.111
     4  C   3.990        C    5 1.442    C    3 1.435    H   10 0.971    C    1 0.110
     5  C   3.990        C    4 1.442    C    6 1.438    H   31 0.971    C    2 0.112
     6  C   3.989        C    5 1.438    C    1 1.420    H    9 0.963    C    3 0.111
     7  C   3.951        O   19 1.011    C    1 0.974    N   11 0.963    H   26 0.951
     8  H   0.999        C    2 0.969
     9  H   0.997        C    6 0.963
    10  H   0.998        C    4 0.971
    11  N   3.142        C   12 0.988    C    7 0.963    H   27 0.953
    12  C   3.975        C   14 1.005    N   11 0.988    H   15 0.977    H   16 0.970
    13  H   0.903        O   23 0.811
    14  C   3.993        C   12 1.005    C   28 1.005    H   18 0.975    H   17 0.974
    15  H   0.998        C   12 0.977
    16  H   0.999        C   12 0.970
    17  H   0.997        C   14 0.974
    18  H   0.998        C   14 0.975
    19  O   1.951        C    7 1.011    H   21 0.821
    20  O   1.852        H   22 0.913    H   24 0.826
    21  H   0.891        O   19 0.821
    22  H   0.916        O   20 0.913
    23  O   1.870        H   25 0.914    H   13 0.811
    24  H   0.895        O   20 0.826
    25  H   0.917        O   23 0.914
    26  H   0.999        C    7 0.951
    27  H   0.977        N   11 0.953
    28  C   3.996        C   33 1.019    C   14 1.005    H   30 0.978    H   29 0.978
    29  H   0.999        C   28 0.978
    30  H   0.999        C   28 0.978
    31  H   0.998        C    5 0.971
    32  H   0.998        C    3 0.971
    33  C   3.996        C   28 1.019    H   36 0.988    H   35 0.988    H   34 0.987
    34  H   0.998        C   33 0.987
    35  H   0.999        C   33 0.988
    36  H   0.999        C   33 0.988
Topologies differ in total number of bonds
Writing topology from bond orders to xtbtopo.mol

molecular dipole:
                 x           y           z       tot (Debye)
 q only:       -0.171       0.552       0.911
   full:       -0.254       0.995       1.034       3.705
molecular quadrupole (traceless):
                xx          xy          yy          xz          yz          zz
 q only:        7.992       0.335      -0.588       0.838      -0.196      -7.404
  q+dip:        7.424       1.858       3.341      -0.825      -1.538     -10.766
   full:        7.106       1.510       1.684      -0.184      -0.946      -8.790


           -------------------------------------------------
          | TOTAL ENERGY              -49.382992479985 Eh   |
          | GRADIENT NORM               0.054284656006 Eh/α |
          | HOMO-LUMO GAP               4.278552051534 eV   |
           -------------------------------------------------

------------------------------------------------------------------------
 * finished run on 2020/08/07 at 11:25:00.045     
------------------------------------------------------------------------
 total:
 * wall-time:     0 d,  0 h,  0 min,  0.215 sec
 *  cpu-time:     0 d,  0 h,  0 min,  2.446 sec
 * ratio c/w:    11.361 speedup
 SCF:
 * wall-time:     0 d,  0 h,  0 min,  0.156 sec
 *  cpu-time:     0 d,  0 h,  0 min,  1.811 sec
 * ratio c/w:    11.599 speedup


-------------------------   --------------------
FINAL SINGLE POINT ENERGY       -49.382992479990
-------------------------   --------------------


----------------------------------------------------------------------------
                           ORCA NUMERICAL FREQUENCIES
                              (10-process run)
----------------------------------------------------------------------------

Number of atoms                ... 36
Central differences            ... used
Number of displacements        ... 216
Numerical increment            ... 5.000e-03 bohr
IR-spectrum generation         ... on
Raman-spectrum generation      ... off
Surface Crossing Hessian       ... off
List of participating nodes    ...  /tmp/slurm-scratch/freq.162/freq.hostnames

The output will be reduced. Please look at the following files:
SCF program output             ... >/tmp/slurm-scratch/freq.162/freq.lastscf
Integral program output        ... >/tmp/slurm-scratch/freq.162/freq.lastint
Gradient program output        ... >/tmp/slurm-scratch/freq.162/freq.lastgrad
Dipole moment program output   ... >/tmp/slurm-scratch/freq.162/freq.lastmom
AutoCI program output          ... >/tmp/slurm-scratch/freq.162/freq.lastautoci


         <<< Energy and Gradient at the input geometry >>>

        <<< Energy and Gradient at displaced geometries >>>
             <<<Displacing   2/coordinate 1 (+)>>>
             <<<Displacing   1/coordinate 1 (+)>>>
             <<<Displacing   4/coordinate 1 (+)>>>
             <<<Displacing   2/coordinate 2 (+)>>>
             <<<Displacing   1/coordinate 2 (+)>>>
             <<<Displacing   2/coordinate 3 (+)>>>
             <<<Displacing   3/coordinate 3 (+)>>>
             <<<Displacing   1/coordinate 3 (+)>>>
             <<<Displacing   2/coordinate 1 (-)>>>
             <<<Displacing   1/coordinate 1 (-)>>>
             <<<Displacing   4/coordinate 1 (-)>>>
             <<<Displacing   1/coordinate 2 (-)>>>
             <<<Displacing   2/coordinate 2 (-)>>>
             <<<Displacing   3/coordinate 3 (-)>>>
             <<<Displacing   3/coordinate 2 (+)>>>
             <<<Displacing   2/coordinate 3 (-)>>>
             <<<Displacing   1/coordinate 3 (-)>>>
             <<<Displacing   3/coordinate 1 (+)>>>
             <<<Displacing   3/coordinate 2 (-)>>>
             <<<Displacing   3/coordinate 1 (-)>>>
             <<<Displacing   5/coordinate 2 (+)>>>
             <<<Displacing   4/coordinate 3 (+)>>>
             <<<Displacing   5/coordinate 3 (+)>>>
             <<<Displacing   4/coordinate 3 (-)>>>
             <<<Displacing   5/coordinate 2 (-)>>>
             <<<Displacing   5/coordinate 3 (-)>>>
             <<<Displacing   6/coordinate 3 (+)>>>
             <<<Displacing   5/coordinate 1 (+)>>>
             <<<Displacing   4/coordinate 2 (+)>>>
             <<<Displacing   6/coordinate 2 (+)>>>
             <<<Displacing   5/coordinate 1 (-)>>>
             <<<Displacing   6/coordinate 3 (-)>>>
             <<<Displacing   4/coordinate 2 (-)>>>
             <<<Displacing   6/coordinate 2 (-)>>>
             <<<Displacing   7/coordinate 1 (+)>>>
             <<<Displacing   6/coordinate 1 (+)>>>
             <<<Displacing   7/coordinate 2 (+)>>>
             <<<Displacing   7/coordinate 1 (-)>>>
             <<<Displacing   6/coordinate 1 (-)>>>
             <<<Displacing   7/coordinate 2 (-)>>>
             <<<Displacing   7/coordinate 3 (+)>>>
             <<<Displacing   8/coordinate 1 (+)>>>
             <<<Displacing   7/coordinate 3 (-)>>>
             <<<Displacing   8/coordinate 1 (-)>>>
             <<<Displacing   8/coordinate 3 (+)>>>
             <<<Displacing   8/coordinate 2 (+)>>>
             <<<Displacing   9/coordinate 2 (+)>>>
             <<<Displacing   8/coordinate 3 (-)>>>
             <<<Displacing   8/coordinate 2 (-)>>>
             <<<Displacing   9/coordinate 2 (-)>>>
             <<<Displacing   9/coordinate 1 (+)>>>
             <<<Displacing  10/coordinate 2 (+)>>>
             <<<Displacing   9/coordinate 1 (-)>>>
             <<<Displacing  10/coordinate 3 (+)>>>
             <<<Displacing  10/coordinate 2 (-)>>>
             <<<Displacing  10/coordinate 1 (+)>>>
             <<<Displacing   9/coordinate 3 (+)>>>
             <<<Displacing  10/coordinate 3 (-)>>>
             <<<Displacing   9/coordinate 3 (-)>>>
             <<<Displacing  10/coordinate 1 (-)>>>
             <<<Displacing  11/coordinate 1 (+)>>>
             <<<Displacing  11/coordinate 2 (+)>>>
             <<<Displacing  11/coordinate 3 (+)>>>
             <<<Displacing  11/coordinate 3 (-)>>>
             <<<Displacing  11/coordinate 2 (-)>>>
             <<<Displacing  11/coordinate 1 (-)>>>
             <<<Displacing  12/coordinate 1 (+)>>>
             <<<Displacing  12/coordinate 3 (+)>>>
             <<<Displacing  12/coordinate 1 (-)>>>
             <<<Displacing  12/coordinate 2 (+)>>>
             <<<Displacing  13/coordinate 1 (+)>>>
             <<<Displacing  12/coordinate 3 (-)>>>
             <<<Displacing  13/coordinate 1 (-)>>>
             <<<Displacing  12/coordinate 2 (-)>>>
             <<<Displacing  13/coordinate 2 (+)>>>
             <<<Displacing  13/coordinate 3 (+)>>>
             <<<Displacing  13/coordinate 2 (-)>>>
             <<<Displacing  13/coordinate 3 (-)>>>
             <<<Displacing  14/coordinate 1 (+)>>>
             <<<Displacing  14/coordinate 1 (-)>>>
             <<<Displacing  14/coordinate 2 (+)>>>
             <<<Displacing  15/coordinate 1 (+)>>>
             <<<Displacing  15/coordinate 1 (-)>>>
             <<<Displacing  14/coordinate 2 (-)>>>
             <<<Displacing  14/coordinate 3 (+)>>>
             <<<Displacing  14/coordinate 3 (-)>>>
             <<<Displacing  16/coordinate 1 (+)>>>
             <<<Displacing  16/coordinate 2 (+)>>>
             <<<Displacing  16/coordinate 3 (+)>>>
             <<<Displacing  16/coordinate 1 (-)>>>
             <<<Displacing  15/coordinate 2 (+)>>>
             <<<Displacing  16/coordinate 2 (-)>>>
             <<<Displacing  16/coordinate 3 (-)>>>
             <<<Displacing  15/coordinate 2 (-)>>>
             <<<Displacing  15/coordinate 3 (+)>>>
             <<<Displacing  17/coordinate 1 (+)>>>
             <<<Displacing  15/coordinate 3 (-)>>>
             <<<Displacing  17/coordinate 1 (-)>>>
             <<<Displacing  17/coordinate 2 (+)>>>
             <<<Displacing  17/coordinate 2 (-)>>>
             <<<Displacing  17/coordinate 3 (+)>>>
             <<<Displacing  18/coordinate 1 (+)>>>
             <<<Displacing  17/coordinate 3 (-)>>>
             <<<Displacing  18/coordinate 1 (-)>>>
             <<<Displacing  18/coordinate 2 (+)>>>
             <<<Displacing  18/coordinate 2 (-)>>>
             <<<Displacing  18/coordinate 3 (+)>>>
             <<<Displacing  19/coordinate 1 (+)>>>
             <<<Displacing  19/coordinate 2 (+)>>>
             <<<Displacing  19/coordinate 1 (-)>>>
             <<<Displacing  19/coordinate 2 (-)>>>
             <<<Displacing  20/coordinate 2 (+)>>>
             <<<Displacing  18/coordinate 3 (-)>>>
             <<<Displacing  19/coordinate 3 (+)>>>
             <<<Displacing  20/coordinate 2 (-)>>>
             <<<Displacing  19/coordinate 3 (-)>>>
             <<<Displacing  20/coordinate 1 (+)>>>
             <<<Displacing  20/coordinate 1 (-)>>>
             <<<Displacing  20/coordinate 3 (+)>>>
             <<<Displacing  20/coordinate 3 (-)>>>
             <<<Displacing  21/coordinate 1 (+)>>>
             <<<Displacing  21/coordinate 1 (-)>>>
             <<<Displacing  21/coordinate 2 (+)>>>
             <<<Displacing  21/coordinate 2 (-)>>>
             <<<Displacing  21/coordinate 3 (+)>>>
             <<<Displacing  21/coordinate 3 (-)>>>
             <<<Displacing  22/coordinate 1 (+)>>>
             <<<Displacing  22/coordinate 2 (+)>>>
             <<<Displacing  22/coordinate 3 (+)>>>
             <<<Displacing  22/coordinate 1 (-)>>>
             <<<Displacing  22/coordinate 2 (-)>>>
             <<<Displacing  23/coordinate 1 (+)>>>
             <<<Displacing  22/coordinate 3 (-)>>>
             <<<Displacing  23/coordinate 1 (-)>>>
             <<<Displacing  23/coordinate 2 (+)>>>
             <<<Displacing  23/coordinate 2 (-)>>>
             <<<Displacing  23/coordinate 3 (+)>>>
             <<<Displacing  23/coordinate 3 (-)>>>
             <<<Displacing  24/coordinate 1 (+)>>>
             <<<Displacing  24/coordinate 1 (-)>>>
             <<<Displacing  24/coordinate 2 (+)>>>
             <<<Displacing  24/coordinate 2 (-)>>>
             <<<Displacing  24/coordinate 3 (+)>>>
             <<<Displacing  24/coordinate 3 (-)>>>
             <<<Displacing  25/coordinate 1 (+)>>>
             <<<Displacing  25/coordinate 1 (-)>>>
             <<<Displacing  25/coordinate 3 (+)>>>
             <<<Displacing  25/coordinate 3 (-)>>>
             <<<Displacing  26/coordinate 2 (+)>>>
             <<<Displacing  26/coordinate 1 (+)>>>
             <<<Displacing  26/coordinate 2 (-)>>>
             <<<Displacing  26/coordinate 1 (-)>>>
             <<<Displacing  25/coordinate 2 (+)>>>
             <<<Displacing  27/coordinate 1 (+)>>>
             <<<Displacing  25/coordinate 2 (-)>>>
             <<<Displacing  27/coordinate 1 (-)>>>
             <<<Displacing  26/coordinate 3 (+)>>>
             <<<Displacing  26/coordinate 3 (-)>>>
             <<<Displacing  27/coordinate 2 (+)>>>
             <<<Displacing  27/coordinate 2 (-)>>>
             <<<Displacing  27/coordinate 3 (+)>>>
             <<<Displacing  28/coordinate 1 (+)>>>
             <<<Displacing  27/coordinate 3 (-)>>>
             <<<Displacing  28/coordinate 1 (-)>>>
             <<<Displacing  28/coordinate 2 (+)>>>
             <<<Displacing  28/coordinate 2 (-)>>>
             <<<Displacing  29/coordinate 1 (+)>>>
             <<<Displacing  28/coordinate 3 (+)>>>
             <<<Displacing  29/coordinate 2 (+)>>>
             <<<Displacing  29/coordinate 1 (-)>>>
             <<<Displacing  28/coordinate 3 (-)>>>
             <<<Displacing  29/coordinate 3 (+)>>>
             <<<Displacing  29/coordinate 2 (-)>>>
             <<<Displacing  30/coordinate 1 (+)>>>
             <<<Displacing  29/coordinate 3 (-)>>>
             <<<Displacing  30/coordinate 1 (-)>>>
             <<<Displacing  30/coordinate 2 (+)>>>
             <<<Displacing  30/coordinate 2 (-)>>>
             <<<Displacing  30/coordinate 3 (+)>>>
             <<<Displacing  30/coordinate 3 (-)>>>
             <<<Displacing  31/coordinate 1 (+)>>>
             <<<Displacing  31/coordinate 2 (+)>>>
             <<<Displacing  31/coordinate 1 (-)>>>
             <<<Displacing  31/coordinate 2 (-)>>>
             <<<Displacing  32/coordinate 1 (+)>>>
             <<<Displacing  31/coordinate 3 (+)>>>
             <<<Displacing  32/coordinate 1 (-)>>>
             <<<Displacing  31/coordinate 3 (-)>>>
             <<<Displacing  33/coordinate 1 (+)>>>
             <<<Displacing  33/coordinate 1 (-)>>>
             <<<Displacing  33/coordinate 2 (+)>>>
             <<<Displacing  32/coordinate 2 (+)>>>
             <<<Displacing  32/coordinate 2 (-)>>>
             <<<Displacing  33/coordinate 2 (-)>>>
             <<<Displacing  32/coordinate 3 (+)>>>
             <<<Displacing  32/coordinate 3 (-)>>>
             <<<Displacing  33/coordinate 3 (+)>>>
             <<<Displacing  33/coordinate 3 (-)>>>
             <<<Displacing  34/coordinate 1 (+)>>>
             <<<Displacing  34/coordinate 1 (-)>>>
             <<<Displacing  34/coordinate 2 (+)>>>
             <<<Displacing  34/coordinate 3 (+)>>>
             <<<Displacing  34/coordinate 3 (-)>>>
             <<<Displacing  34/coordinate 2 (-)>>>
             <<<Displacing  35/coordinate 1 (+)>>>
             <<<Displacing  35/coordinate 2 (+)>>>
             <<<Displacing  35/coordinate 1 (-)>>>
             <<<Displacing  35/coordinate 2 (-)>>>
             <<<Displacing  36/coordinate 3 (+)>>>
             <<<Displacing  36/coordinate 1 (+)>>>
             <<<Displacing  35/coordinate 3 (+)>>>
             <<<Displacing  36/coordinate 3 (-)>>>
             <<<Displacing  35/coordinate 3 (-)>>>
             <<<Displacing  36/coordinate 1 (-)>>>
             <<<Displacing  36/coordinate 2 (+)>>>
             <<<Displacing  36/coordinate 2 (-)>>>

-----------------------
VIBRATIONAL FREQUENCIES
-----------------------

Scaling factor for frequencies =  1.000000000 (already applied!)

   0:         0.00 cm**-1
   1:         0.00 cm**-1
   2:         0.00 cm**-1
   3:         0.00 cm**-1
   4:         0.00 cm**-1
   5:         0.00 cm**-1
   6:        59.73 cm**-1
   7:        67.65 cm**-1
   8:        75.49 cm**-1
   9:        89.39 cm**-1
  10:       107.32 cm**-1
  11:       116.08 cm**-1
  12:       128.94 cm**-1
  13:       156.40 cm**-1
  14:       173.83 cm**-1
  15:       178.51 cm**-1
  16:       190.03 cm**-1
  17:       239.59 cm**-1
  18:       249.60 cm**-1
  19:       254.28 cm**-1
  20:       267.18 cm**-1
  21:       328.73 cm**-1
  22:       353.77 cm**-1
  23:       366.18 cm**-1
  24:       402.43 cm**-1
  25:       412.37 cm**-1
  26:       438.44 cm**-1
  27:       499.63 cm**-1
  28:       513.47 cm**-1
  29:       532.70 cm**-1
  30:       546.18 cm**-1
  31:       589.45 cm**-1
  32:       603.27 cm**-1
  33:       626.40 cm**-1
  34:       638.39 cm**-1
  35:       685.61 cm**-1
  36:       737.27 cm**-1
  37:       782.24 cm**-1
  38:       793.59 cm**-1
  39:       804.01 cm**-1
  40:       822.78 cm**-1
  41:       842.34 cm**-1
  42:       875.63 cm**-1
  43:       906.37 cm**-1
  44:       916.58 cm**-1
  45:       925.06 cm**-1
  46:       933.52 cm**-1
  47:       951.07 cm**-1
  48:       952.62 cm**-1
  49:       956.30 cm**-1
  50:       969.11 cm**-1
  51:       974.35 cm**-1
  52:      1005.79 cm**-1
  53:      1031.76 cm**-1
  54:      1059.58 cm**-1
  55:      1069.78 cm**-1
  56:      1091.90 cm**-1
  57:      1111.23 cm**-1
  58:      1124.07 cm**-1
  59:      1155.72 cm**-1
  60:      1180.50 cm**-1
  61:      1183.41 cm**-1
  62:      1200.60 cm**-1
  63:      1223.30 cm**-1
  64:      1227.46 cm**-1
  65:      1245.56 cm**-1
  66:      1262.95 cm**-1
  67:      1281.46 cm**-1
  68:      1285.02 cm**-1
  69:      1291.82 cm**-1
  70:      1302.92 cm**-1
  71:      1343.45 cm**-1
  72:      1356.95 cm**-1
  73:      1364.52 cm**-1
  74:      1379.20 cm**-1
  75:      1409.16 cm**-1
  76:      1433.56 cm**-1
  77:      1447.23 cm**-1
  78:      1473.08 cm**-1
  79:      1502.88 cm**-1
  80:      1507.69 cm**-1
  81:      1512.07 cm**-1
  82:      1515.53 cm**-1
  83:      1533.99 cm**-1
  84:      1541.99 cm**-1
  85:      1548.55 cm**-1
  86:      1560.98 cm**-1
  87:      2587.24 cm**-1
  88:      2818.79 cm**-1
  89:      2830.86 cm**-1
  90:      2868.64 cm**-1
  91:      2892.84 cm**-1
  92:      2900.16 cm**-1
  93:      2906.58 cm**-1
  94:      2908.07 cm**-1
  95:      2912.41 cm**-1
  96:      2916.91 cm**-1
  97:      2930.43 cm**-1
  98:      2934.53 cm**-1
  99:      2970.15 cm**-1
 100:      2981.82 cm**-1
 101:      2987.46 cm**-1
 102:      2998.26 cm**-1
 103:      3006.92 cm**-1
 104:      3020.95 cm**-1
 105:      3275.73 cm**-1
 106:      3417.61 cm**-1
 107:      3426.04 cm**-1


------------
NORMAL MODES
------------

These modes are the cartesian displacements weighted by the diagonal matrix
M(i,i)=1/sqrt(m[i]) where m[i] is the mass of the displaced atom
Thus, these vectors are normalized but *not* orthogonal

                  0          1          2          3          4          5    
      0       0.000000   0.000000   0.000000   0.000000   0.000000   0.000000
      1       0.000000   0.000000   0.000000   0.000000   0.000000   0.000000
      2       0.000000   0.000000   0.000000   0.000000   0.000000   0.000000
      3       0.000000   0.000000   0.000000   0.000000   0.000000   0.000000
      4       0.000000   0.000000   0.000000   0.000000   0.000000   0.000000
      5       0.000000   0.000000   0.000000   0.000000   0.000000   0.000000
      6       0.000000   0.000000   0.000000   0.000000   0.000000   0.000000
      7       0.000000   0.000000   0.000000   0.000000   0.000000   0.000000
      8       0.000000   0.000000   0.000000   0.000000   0.000000   0.000000
      9       0.000000   0.000000   0.000000   0.000000   0.000000   0.000000
     10       0.000000   0.000000   0.000000   0.000000   0.000000   0.000000
     11       0.000000   0.000000   0.000000   0.000000   0.000000   0.000000
     12       0.000000   0.000000   0.000000   0.000000   0.000000   0.000000
     13       0.000000   0.000000   0.000000   0.000000   0.000000   0.000000
     14       0.000000   0.000000   0.000000   0.000000   0.000000   0.000000
     15       0.000000   0.000000   0.000000   0.000000   0.000000   0.000000
     16       0.000000   0.000000   0.000000   0.000000   0.000000   0.000000
     17       0.000000   0.000000   0.000000   0.000000   0.000000   0.000000
     18       0.000000   0.000000   0.000000   0.000000   0.000000   0.000000
     19       0.000000   0.000000   0.000000   0.000000   0.000000   0.000000
     20       0.000000   0.000000   0.000000   0.000000   0.000000   0.000000
     21       0.000000   0.000000   0.000000   0.000000   0.000000   0.000000
     22       0.000000   0.000000   0.000000   0.000000   0.000000   0.000000
     23       0.000000   0.000000   0.000000   0.000000   0.000000   0.000000
     24       0.000000   0.000000   0.000000   0.000000   0.000000   0.000000
     25       0.000000   0.000000   0.000000   0.000000   0.000000   0.000000
     26       0.000000   0.000000   0.000000   0.000000   0.000000   0.000000
     27       0.000000   0.000000   0.000000   0.000000   0.000000   0.000000
     28       0.000000   0.000000   0.000000   0.000000   0.000000   0.000000
     29       0.000000   0.000000   0.000000   0.000000   0.000000   0.000000
     30       0.000000   0.000000   0.000000   0.000000   0.000000   0.000000
     31       0.000000   0.000000   0.000000   0.000000   0.000000   0.000000
     32       0.000000   0.000000   0.000000   0.000000   0.000000   0.000000
     33       0.000000   0.000000   0.000000   0.000000   0.000000   0.000000
     34       0.000000   0.000000   0.000000   0.000000   0.000000   0.000000
     35       0.000000   0.000000   0.000000   0.000000   0.000000   0.000000
     36       0.000000   0.000000   0.000000   0.000000   0.000000   0.000000
     37       0.000000   0.000000   0.000000   0.000000   0.000000   0.000000
     38       0.000000   0.000000   0.000000   0.000000   0.000000   0.000000
     39       0.000000   0.000000   0.000000   0.000000   0.000000   0.000000
     40       0.000000   0.000000   0.000000   0.000000   0.000000   0.000000
     41       0.000000   0.000000   0.000000   0.000000   0.000000   0.000000
     42       0.000000   0.000000   0.000000   0.000000   0.000000   0.000000
     43       0.000000   0.000000   0.000000   0.000000   0.000000   0.000000
     44       0.000000   0.000000   0.000000   0.000000   0.000000   0.000000
     45       0.000000   0.000000   0.000000   0.000000   0.000000   0.000000
     46       0.000000   0.000000   0.000000   0.000000   0.000000   0.000000
     47       0.000000   0.000000   0.000000   0.000000   0.000000   0.000000
     48       0.000000   0.000000   0.000000   0.000000   0.000000   0.000000
     49       0.000000   0.000000   0.000000   0.000000   0.000000   0.000000
     50       0.000000   0.000000   0.000000   0.000000   0.000000   0.000000
     51       0.000000   0.000000   0.000000   0.000000   0.000000   0.000000
     52       0.000000   0.000000   0.000000   0.000000   0.000000   0.000000
     53       0.000000   0.000000   0.000000   0.000000   0.000000   0.000000
     54       0.000000   0.000000   0.000000   0.000000   0.000000   0.000000
     55       0.000000   0.000000   0.000000   0.000000   0.000000   0.000000
     56       0.000000   0.000000   0.000000   0.000000   0.000000   0.000000
     57       0.000000   0.000000   0.000000   0.000000   0.000000   0.000000
     58       0.000000   0.000000   0.000000   0.000000   0.000000   0.000000
     59       0.000000   0.000000   0.000000   0.000000   0.000000   0.000000
     60       0.000000   0.000000   0.000000   0.000000   0.000000   0.000000
     61       0.000000   0.000000   0.000000   0.000000   0.000000   0.000000
     62       0.000000   0.000000   0.000000   0.000000   0.000000   0.000000
     63       0.000000   0.000000   0.000000   0.000000   0.000000   0.000000
     64       0.000000   0.000000   0.000000   0.000000   0.000000   0.000000
     65       0.000000   0.000000   0.000000   0.000000   0.000000   0.000000
     66       0.000000   0.000000   0.000000   0.000000   0.000000   0.000000
     67       0.000000   0.000000   0.000000   0.000000   0.000000   0.000000
     68       0.000000   0.000000   0.000000   0.000000   0.000000   0.000000
     69       0.000000   0.000000   0.000000   0.000000   0.000000   0.000000
     70       0.000000   0.000000   0.000000   0.000000   0.000000   0.000000
     71       0.000000   0.000000   0.000000   0.000000   0.000000   0.000000
     72       0.000000   0.000000   0.000000   0.000000   0.000000   0.000000
     73       0.000000   0.000000   0.000000   0.000000   0.000000   0.000000
     74       0.000000   0.000000   0.000000   0.000000   0.000000   0.000000
     75       0.000000   0.000000   0.000000   0.000000   0.000000   0.000000
     76       0.000000   0.000000   0.000000   0.000000   0.000000   0.000000
     77       0.000000   0.000000   0.000000   0.000000   0.000000   0.000000
     78       0.000000   0.000000   0.000000   0.000000   0.000000   0.000000
     79       0.000000   0.000000   0.000000   0.000000   0.000000   0.000000
     80       0.000000   0.000000   0.000000   0.000000   0.000000   0.000000
     81       0.000000   0.000000   0.000000   0.000000   0.000000   0.000000
     82       0.000000   0.000000   0.000000   0.000000   0.000000   0.000000
     83       0.000000   0.000000   0.000000   0.000000   0.000000   0.000000
     84       0.000000   0.000000   0.000000   0.000000   0.000000   0.000000
     85       0.000000   0.000000   0.000000   0.000000   0.000000   0.000000
     86       0.000000   0.000000   0.000000   0.000000   0.000000   0.000000
     87       0.000000   0.000000   0.000000   0.000000   0.000000   0.000000
     88       0.000000   0.000000   0.000000   0.000000   0.000000   0.000000
     89       0.000000   0.000000   0.000000   0.000000   0.000000   0.000000
     90       0.000000   0.000000   0.000000   0.000000   0.000000   0.000000
     91       0.000000   0.000000   0.000000   0.000000   0.000000   0.000000
     92       0.000000   0.000000   0.000000   0.000000   0.000000   0.000000
     93       0.000000   0.000000   0.000000   0.000000   0.000000   0.000000
     94       0.000000   0.000000   0.000000   0.000000   0.000000   0.000000
     95       0.000000   0.000000   0.000000   0.000000   0.000000   0.000000
     96       0.000000   0.000000   0.000000   0.000000   0.000000   0.000000
     97       0.000000   0.000000   0.000000   0.000000   0.000000   0.000000
     98       0.000000   0.000000   0.000000   0.000000   0.000000   0.000000
     99       0.000000   0.000000   0.000000   0.000000   0.000000   0.000000
    100       0.000000   0.000000   0.000000   0.000000   0.000000   0.000000
    101       0.000000   0.000000   0.000000   0.000000   0.000000   0.000000
    102       0.000000   0.000000   0.000000   0.000000   0.000000   0.000000
    103       0.000000   0.000000   0.000000   0.000000   0.000000   0.000000
    104       0.000000   0.000000   0.000000   0.000000   0.000000   0.000000
    105       0.000000   0.000000   0.000000   0.000000   0.000000   0.000000
    106       0.000000   0.000000   0.000000   0.000000   0.000000   0.000000
    107       0.000000   0.000000   0.000000   0.000000   0.000000   0.000000
                  6          7          8          9         10         11    
      0      -0.044637   0.031592  -0.041196  -0.008196  -0.019400  -0.016604
      1       0.018918  -0.021150  -0.004752   0.005146  -0.026755   0.011022
      2      -0.005142  -0.000106  -0.012940  -0.006877  -0.010567  -0.009239
      3      -0.073094   0.002824  -0.012041   0.030363   0.044440  -0.049476
      4      -0.002483  -0.046315   0.017503   0.035840  -0.002153   0.000495
      5       0.006406   0.042542  -0.023419  -0.038458   0.186288  -0.130475
      6      -0.068397   0.022451  -0.004166   0.034512   0.044184  -0.049117
      7      -0.037383  -0.087234   0.058050   0.089719   0.022738  -0.004357
      8       0.014953   0.111233   0.024849  -0.003078   0.192804  -0.125356
      9      -0.035675   0.071245  -0.025678   0.003121  -0.023027  -0.016069
     10      -0.052811  -0.104771   0.077459   0.114641   0.023328   0.001195
     11       0.011549   0.142637   0.086759   0.065812  -0.000762   0.005109
     12      -0.006995   0.101470  -0.054192  -0.034062  -0.086701   0.016261
     13      -0.032563  -0.080317   0.056184   0.085103   0.001279   0.009395
     14       0.002551   0.109386   0.103102   0.099474  -0.191912   0.126063
     15      -0.011120   0.082484  -0.062151  -0.037778  -0.086336   0.014205
     16       0.002984  -0.039688   0.015792   0.031362  -0.023254   0.014664
     17      -0.004951   0.038816   0.055035   0.065877  -0.200629   0.120996
     18      -0.052416   0.010498  -0.046661  -0.005439  -0.019636  -0.016356
     19       0.061092   0.038351  -0.048424  -0.055757  -0.056732   0.006640
     20      -0.026976  -0.074751  -0.070136  -0.020265  -0.043096  -0.017060
     21      -0.097981  -0.034197   0.003532   0.056662   0.090955  -0.074065
     22       0.009007  -0.033382   0.003070   0.015785  -0.000973  -0.002906
     23       0.007591   0.018870  -0.068690  -0.087666   0.321368  -0.219916
     24       0.014013   0.099894  -0.083593  -0.058842  -0.130170   0.037094
     25       0.019692  -0.023932  -0.000037   0.013584  -0.036044   0.020117
     26      -0.011161   0.010704   0.065361   0.087715  -0.336243   0.207085
     27      -0.032496   0.084544  -0.020514   0.005796  -0.023985  -0.014955
     28      -0.080130  -0.136308   0.107708   0.154651   0.042551  -0.002229
     29       0.016049   0.189771   0.119600   0.091034   0.001540   0.009251
     30      -0.035574   0.036161  -0.004190  -0.011569   0.021648   0.021740
     31       0.039748   0.080909  -0.025000  -0.057665  -0.073703  -0.159163
     32      -0.031765  -0.096583  -0.099149  -0.021408  -0.062161   0.001939
     33      -0.009908   0.052398  -0.014467  -0.022507   0.017729   0.023699
     34      -0.029115   0.031236  -0.002905  -0.029439  -0.063965  -0.143849
     35      -0.039773  -0.121891  -0.127722  -0.012256  -0.093277   0.022357
     36       0.066163  -0.203459   0.184492  -0.258785  -0.030012  -0.019578
     37       0.102122   0.110091  -0.032638  -0.103243   0.014039  -0.111222
     38       0.013589  -0.113335  -0.134807  -0.028988   0.102635   0.181660
     39      -0.064389   0.026591   0.014955   0.007819   0.054950   0.077311
     40      -0.086769   0.000668   0.019699   0.002056  -0.030788  -0.093297
     41       0.020783  -0.000997   0.019146  -0.007672  -0.050733  -0.009561
     42       0.012419   0.054493  -0.046378  -0.041810   0.011365   0.011059
     43      -0.001881   0.101906   0.092219  -0.025571  -0.025428  -0.163135
     44      -0.065297  -0.175770  -0.192616  -0.010982  -0.120622   0.040173
     45       0.028567   0.082381  -0.010684  -0.031997   0.001524   0.012598
     46      -0.071721  -0.050759  -0.096616  -0.026226  -0.097745  -0.114199
     47      -0.065307  -0.175323  -0.190347  -0.011192  -0.117455   0.042146
     48      -0.071846   0.067498   0.107582   0.026749   0.113105   0.117237
     49      -0.098308  -0.031747  -0.021771  -0.009372  -0.039977  -0.079770
     50       0.031642   0.015058   0.030269  -0.003129  -0.056702  -0.028973
     51      -0.116964  -0.050117  -0.053010   0.025083   0.042196   0.114674
     52      -0.058492   0.041572   0.054052   0.007165  -0.030823  -0.121995
     53       0.035394   0.020134   0.036490  -0.002824  -0.051989  -0.026059
     54      -0.043230   0.028786  -0.084947  -0.036052  -0.057792  -0.064760
     55       0.093130   0.055857  -0.075636  -0.083748  -0.064321   0.062651
     56      -0.066215  -0.081223  -0.062008  -0.008219  -0.060499  -0.141712
     57       0.308229  -0.132563  -0.013971   0.368791   0.012366  -0.081132
     58       0.198247   0.068893  -0.109862  -0.085672   0.094648   0.227148
     59      -0.021605  -0.066933  -0.080485  -0.019444   0.084126  -0.069498
     60       0.043626   0.011770  -0.072026   0.045836  -0.014440  -0.031629
     61       0.098227   0.047503  -0.066721  -0.059231  -0.044653   0.039020
     62      -0.059137  -0.091037  -0.052202   0.020614  -0.029437  -0.169031
     63       0.328020  -0.133711  -0.021587   0.410076   0.018533  -0.088559
     64       0.247818   0.055869  -0.118858   0.002713   0.106451   0.214355
     65      -0.019059  -0.026986  -0.120410   0.050271   0.096345  -0.097711
     66       0.120921  -0.276685   0.230929  -0.313544  -0.035149  -0.017816
     67       0.110379   0.110050  -0.032450  -0.106557   0.042962  -0.098393
     68       0.029213  -0.114074  -0.127117  -0.044838   0.132907   0.185471
     69       0.271088  -0.168944   0.047938   0.227644  -0.010684  -0.074346
     70       0.178494   0.081413  -0.082955  -0.110457   0.083476   0.134873
     71      -0.013963  -0.073234  -0.089815  -0.017295   0.086512  -0.025068
     72       0.122072  -0.303612   0.253552  -0.361170  -0.038186  -0.016243
     73       0.063664   0.137524  -0.035683  -0.139078   0.052522  -0.099242
     74       0.030526  -0.171005  -0.079038  -0.146961   0.126611   0.189904
     75      -0.085792  -0.050719  -0.053347   0.019927  -0.025821  -0.007425
     76       0.084349   0.036922  -0.070354  -0.072383  -0.054725   0.081801
     77      -0.004342  -0.087923  -0.098858  -0.036954  -0.043444   0.080918
     78      -0.005956   0.059995  -0.005939  -0.020681   0.037725   0.044241
     79       0.064778   0.119895  -0.043004  -0.067334  -0.070451  -0.188660
     80      -0.034285  -0.124765  -0.077753  -0.017729  -0.048360   0.069851
     81      -0.032175   0.047949   0.012145  -0.012058   0.036356   0.038873
     82      -0.161945  -0.036914   0.048198   0.050744   0.031915   0.014154
     83       0.044404   0.068944   0.132887  -0.012135   0.010164   0.009514
     84      -0.016161   0.018238  -0.075755  -0.034608  -0.029098  -0.022671
     85      -0.163606  -0.029645   0.069708   0.062215   0.037664   0.021762
     86       0.042277   0.069378   0.134178  -0.016487   0.019400   0.016602
     87       0.014928   0.108636   0.079268  -0.033370   0.046134  -0.000344
     88      -0.172564  -0.049877   0.030434   0.047488   0.038227   0.027948
     89       0.040808   0.064755   0.126070  -0.015901   0.015124   0.015732
     90       0.016964   0.138035  -0.070129  -0.060139  -0.134369   0.040790
     91      -0.043588  -0.093180   0.070043   0.104126   0.002752   0.011816
     92       0.001158   0.133874   0.149123   0.149779  -0.328541   0.218891
     93      -0.089281  -0.000206   0.017712   0.061551   0.091855  -0.071617
     94      -0.052201  -0.105080   0.073789   0.110126   0.041028  -0.010622
     95       0.022967   0.137618   0.014120  -0.026997   0.333697  -0.214316
     96      -0.083551   0.027660   0.036678   0.025394   0.091725   0.134153
     97      -0.214908  -0.059697   0.069650   0.088854   0.086245   0.109870
     98       0.073665   0.138964   0.252699  -0.005803   0.052538   0.012077
     99      -0.062942   0.038364   0.033019   0.011029   0.072432   0.096831
    100      -0.258774  -0.078948   0.084983   0.120242   0.132837   0.193294
    101       0.083648   0.164148   0.294889  -0.007501   0.075626   0.017835
    102      -0.122677  -0.015750  -0.008642   0.044319   0.095276   0.180034
    103      -0.204485  -0.038896   0.104591   0.092275   0.092041   0.104838
    104       0.079536   0.151587   0.274658  -0.002959   0.056470   0.009990
    105      -0.099165   0.047362   0.102154   0.047197   0.146907   0.193827
    106      -0.216736  -0.076243   0.033105   0.080185   0.072643   0.100440
    107       0.077549   0.148733   0.270800  -0.002553   0.054328   0.009910
                 12         13         14         15         16         17    
      0      -0.045078   0.012616   0.012193  -0.013244   0.014420   0.008964
      1       0.032744   0.022161  -0.104461   0.035097  -0.055897   0.039232
      2       0.163452   0.001389   0.060211  -0.020161   0.044077   0.026984
      3      -0.098471   0.000896   0.066207  -0.036559   0.040123  -0.007033
      4       0.006137   0.013512  -0.062702   0.019333  -0.035209   0.024413
      5       0.081538  -0.000570   0.020517  -0.021041   0.017414   0.044705
      6      -0.136427   0.002298   0.049994  -0.031856   0.027888  -0.016315
      7      -0.032896  -0.004150   0.019407  -0.009659   0.007671  -0.016660
      8      -0.085142  -0.000777  -0.031243  -0.003645  -0.028871   0.002105
      9      -0.132125   0.019275  -0.025791  -0.003592  -0.013618   0.000565
     10      -0.047881  -0.011740   0.053396  -0.020012   0.024523  -0.032310
     11      -0.170825   0.000893  -0.038286   0.013622  -0.044086  -0.048006
     12      -0.077826   0.032992  -0.079053   0.018957  -0.035958   0.033932
     13      -0.022326  -0.002629   0.010554  -0.004115   0.003606  -0.013437
     14      -0.065410   0.003403   0.018408   0.009708   0.006660  -0.008598
     15      -0.040510   0.030863  -0.058382   0.012086  -0.020350   0.037132
     16       0.018293   0.014610  -0.070799   0.024786  -0.038402   0.026500
     17       0.102982   0.003833   0.068838  -0.006707   0.052350   0.033621
     18      -0.043136   0.010536   0.017461  -0.011400   0.006697   0.003412
     19       0.051679   0.028955  -0.120485   0.029064  -0.048982  -0.027348
     20       0.128348   0.012909   0.058433  -0.025524   0.008150  -0.047191
     21      -0.113816  -0.009615   0.121317  -0.059562   0.070187  -0.024472
     22       0.020788   0.018197  -0.088036   0.028105  -0.048320   0.036220
     23       0.128996  -0.000931   0.017167  -0.030505   0.018388   0.070397
     24      -0.012250   0.042833  -0.101570   0.028636  -0.040107   0.059250
     25       0.029425   0.022399  -0.102888   0.035398  -0.054282   0.040094
     26       0.161166   0.005734   0.100535  -0.005612   0.077019   0.048935
     27      -0.161188   0.020225  -0.040490   0.001321  -0.026235  -0.009577
     28      -0.077966  -0.024359   0.111415  -0.039962   0.053473  -0.057089
     29      -0.308444   0.000928  -0.082737   0.028071  -0.088947  -0.100923
     30       0.102048   0.001503  -0.006115  -0.004259   0.045547   0.041576
     31       0.062359   0.009540  -0.021449   0.002827   0.024648  -0.112712
     32       0.045397   0.016383   0.061155  -0.025536  -0.028824  -0.035443
     33       0.123005  -0.014729  -0.003179   0.015888  -0.006667   0.003878
     34      -0.003164   0.035807  -0.030069  -0.035162   0.138308   0.077927
     35      -0.119693   0.000395   0.091411   0.014287  -0.133987   0.174963
     36      -0.001778  -0.014106   0.029567  -0.004392  -0.010287   0.030921
     37       0.019620  -0.062146   0.150626   0.043353  -0.105743   0.002806
     38      -0.051812   0.093642  -0.185579  -0.033485   0.167175  -0.119379
     39       0.122664  -0.040162  -0.010859   0.009418   0.009429   0.078319
     40      -0.015495   0.025970  -0.028116  -0.041528   0.155489   0.156871
     41      -0.052778  -0.283739  -0.123171  -0.079090  -0.012256   0.036170
     42       0.196415   0.051441   0.024112   0.026760  -0.021954  -0.141025
     43       0.098411  -0.135276  -0.179130  -0.119857   0.261858  -0.088677
     44      -0.212609   0.115764   0.198324   0.076165  -0.223993   0.331347
     45       0.072612  -0.078528  -0.026547   0.032282  -0.069941   0.009811
     46      -0.116172   0.213453   0.122523   0.048201   0.022027   0.276831
     47      -0.199471   0.115765   0.193405   0.072587  -0.217886   0.313166
     48       0.138675  -0.036500   0.005577   0.102010   0.068516   0.012819
     49      -0.055475   0.243340   0.143509   0.116951   0.148390   0.192155
     50      -0.025400  -0.452332  -0.259402  -0.222704  -0.021609   0.019761
     51       0.103531  -0.081048  -0.027731  -0.086290  -0.102314   0.139720
     52       0.026167  -0.194583  -0.205093  -0.206999   0.163590   0.101671
     53      -0.026386  -0.433905  -0.242586  -0.198197  -0.015386   0.006096
     54      -0.086813   0.013106   0.041697  -0.033700   0.009649  -0.200248
     55       0.047853   0.028852  -0.116616   0.013095  -0.047888  -0.080206
     56       0.094065   0.009743   0.099472  -0.026744   0.011741  -0.150353
     57       0.028765   0.005854  -0.013502   0.010886  -0.007714   0.000523
     58      -0.064800  -0.037487   0.206088  -0.079485   0.073565   0.018105
     59      -0.003040   0.016627  -0.075220   0.074852  -0.070363   0.085271
     60      -0.044720   0.014946   0.008404  -0.014103   0.015878  -0.116797
     61       0.046827   0.032707  -0.141827   0.030305  -0.050630  -0.059118
     62       0.085823   0.010558   0.090565  -0.011541   0.014824  -0.123719
     63       0.033648   0.003644  -0.000578   0.009730  -0.006775   0.005431
     64      -0.053154  -0.041018   0.243920  -0.085069   0.082942   0.026682
     65       0.003254   0.008936  -0.098833   0.089526  -0.105063   0.107823
     66      -0.045665  -0.006926   0.006360   0.002265  -0.014752  -0.004825
     67       0.004108  -0.062282   0.123044   0.060502  -0.117379   0.022812
     68      -0.069581   0.078864  -0.178592  -0.007416   0.123028  -0.075475
     69       0.018960   0.006705  -0.012381   0.013099  -0.007176  -0.007494
     70      -0.051913  -0.059589   0.219492  -0.037538  -0.006907   0.065025
     71      -0.009296   0.022740  -0.065779   0.052228  -0.035233   0.068810
     72      -0.059240  -0.002700  -0.006257   0.002079  -0.009497  -0.028875
     73       0.017912  -0.067526   0.123203   0.066634  -0.124927   0.035111
     74      -0.098475   0.088298  -0.207053  -0.008238   0.135716  -0.126383
     75      -0.102999   0.018378   0.004973   0.002071  -0.042872   0.043290
     76       0.043069   0.032770  -0.136575   0.026980  -0.067408  -0.013455
     77       0.104934   0.019004   0.034357  -0.024295  -0.027387  -0.016498
     78       0.191717  -0.001456  -0.021747   0.012478   0.015048  -0.050961
     79       0.104602   0.000265   0.013239   0.013779  -0.005122  -0.239236
     80       0.084756   0.027779  -0.002846  -0.022037  -0.021173   0.040066
     81       0.133129  -0.016606  -0.011939   0.018974   0.059810   0.114961
     82      -0.022876   0.002361   0.004815  -0.007381   0.047624   0.060709
     83      -0.045960  -0.066466   0.036250   0.191742   0.127234  -0.036534
     84       0.108591  -0.143092  -0.080757  -0.028660   0.124772   0.206823
     85       0.016504   0.014472  -0.080122  -0.267877  -0.130997   0.089143
     86      -0.071870  -0.048655   0.118154   0.407549   0.253738  -0.079768
     87       0.154734   0.147781   0.039735   0.061799   0.144046   0.162246
     88      -0.062873  -0.016720   0.099597   0.272374   0.202910  -0.007452
     89      -0.071172  -0.065877   0.104257   0.382709   0.238188  -0.077218
     90      -0.064803   0.044518  -0.135457   0.041957  -0.066468   0.055676
     91      -0.036227  -0.007518   0.036028  -0.012893   0.016879  -0.024744
     92      -0.120528   0.005347   0.019476   0.020139   0.004450  -0.020607
     93      -0.168111  -0.009586   0.094966  -0.049358   0.049288  -0.039499
     94      -0.047410  -0.012038   0.053140  -0.021575   0.024980  -0.031935
     95      -0.153920  -0.001476  -0.068151  -0.001958  -0.057989  -0.000949
     96       0.150487  -0.041529   0.010785   0.035747  -0.092104  -0.039418
     97      -0.011468  -0.028596   0.029338   0.017150  -0.102346  -0.104119
     98       0.034155   0.157347   0.002505  -0.101974  -0.067818   0.014696
     99       0.145277  -0.020385   0.003501   0.025249  -0.030839   0.026979
    100       0.001783  -0.061995   0.053436   0.053363  -0.230062  -0.258342
    101       0.044056   0.234399   0.049575  -0.026597  -0.022693  -0.024312
    102       0.134075  -0.162958   0.001896   0.074805  -0.154236  -0.118491
    103       0.024480   0.045106  -0.018679  -0.191169  -0.233747  -0.045742
    104       0.057637   0.203092  -0.029843  -0.239996  -0.157285   0.051444
    105       0.186487   0.039917   0.043987   0.021626  -0.205418  -0.149232
    106      -0.048092  -0.093903   0.071464   0.211421   0.045601  -0.135271
    107       0.057116   0.195401  -0.035782  -0.251851  -0.165610   0.056635
                 18         19         20         21         22         23    
      0       0.060802   0.049609  -0.010231   0.000837  -0.000038   0.019445
      1      -0.059782   0.103172  -0.118398   0.031256  -0.003543  -0.127554
      2       0.132673   0.051481   0.015796   0.007774  -0.000924   0.080039
      3       0.127427   0.043246   0.035312  -0.005054   0.001154   0.108097
      4      -0.023783   0.087754  -0.083147   0.031789  -0.003110  -0.078919
      5       0.168281   0.088223   0.011339  -0.057919   0.000904  -0.127558
      6       0.089993   0.031452   0.029360   0.005842   0.001089   0.135058
      7       0.024751   0.001620   0.023061   0.005968  -0.000293   0.023525
      8      -0.013724   0.000597  -0.000305  -0.026210   0.001172  -0.090270
      9       0.016133   0.084458  -0.055091   0.055136  -0.001862   0.146731
     10       0.030693  -0.041636   0.062153  -0.005224   0.000934   0.049668
     11      -0.195527  -0.111304  -0.007623   0.053814  -0.000282   0.094921
     12       0.012877   0.143828  -0.110198   0.042061  -0.002303   0.003122
     13       0.005706  -0.009100   0.018682  -0.005707   0.000124  -0.037026
     14       0.004714  -0.027157   0.024866  -0.025750   0.004107  -0.059706
     15       0.060865   0.146713  -0.085037   0.023645  -0.001558  -0.003890
     16      -0.045401   0.070653  -0.084080   0.014809  -0.002427  -0.149064
     17       0.192978   0.064096   0.047056  -0.066939   0.004759  -0.102712
     18       0.001556   0.010535  -0.015658   0.002639  -0.000517  -0.058921
     19      -0.005463   0.012533   0.036356  -0.013914  -0.000169   0.052297
     20      -0.020396  -0.001693  -0.000243   0.128236  -0.007289   0.134262
     21       0.192695   0.023550   0.091864  -0.012835   0.002175   0.195574
     22      -0.042290   0.103982  -0.109426   0.029961  -0.003636  -0.139110
     23       0.238403   0.138956   0.004958  -0.083772   0.000189  -0.241173
     24       0.058903   0.210237  -0.131434   0.041636  -0.003290  -0.052134
     25      -0.057497   0.112416  -0.122656   0.032244  -0.003943  -0.169649
     26       0.287775   0.088233   0.087069  -0.104475   0.007531  -0.174294
     27      -0.037018   0.063224  -0.064820   0.074485  -0.002580   0.173976
     28       0.055356  -0.096949   0.122297  -0.016905   0.002599   0.121194
     29      -0.418290  -0.221018  -0.030789   0.135508  -0.002901   0.243902
     30      -0.004468  -0.004236   0.002557   0.045739  -0.004324   0.021259
     31      -0.035933   0.003667  -0.060989  -0.208568   0.012955   0.124110
     32      -0.030075  -0.018895   0.010745   0.131026  -0.005633   0.108518
     33      -0.033568  -0.029534  -0.018507  -0.038039   0.001179   0.022984
     34      -0.034367  -0.039470  -0.006324  -0.079394   0.007523   0.096914
     35      -0.006829  -0.122841  -0.037648  -0.107628   0.013130   0.006788
     36      -0.007156   0.007242   0.034074   0.066194  -0.002821  -0.000116
     37       0.102690  -0.114068  -0.094574   0.064999  -0.000082   0.021422
     38       0.028512  -0.064680  -0.140985  -0.111737   0.006192   0.049450
     39      -0.078324  -0.095155   0.012763   0.038207  -0.001571  -0.067284
     40      -0.057073  -0.085244   0.025555   0.022809   0.001455  -0.002241
     41       0.011994  -0.006460  -0.018778  -0.026756   0.017693  -0.000310
     42      -0.029236   0.035917  -0.017600   0.021712  -0.006892   0.100624
     43      -0.033307   0.079671   0.038138   0.123050  -0.000057   0.125236
     44      -0.008174  -0.226320  -0.071927  -0.273618   0.020576  -0.032469
     45      -0.011788  -0.035556  -0.067521  -0.220419   0.014284   0.001502
     46      -0.039531  -0.172593  -0.045720  -0.265050   0.014339   0.049115
     47      -0.010099  -0.215234  -0.066085  -0.245625   0.018689  -0.027578
     48      -0.074871  -0.058109   0.037681   0.115615  -0.033046  -0.128733
     49      -0.065212  -0.130001   0.013871  -0.039327  -0.035566   0.020948
     50       0.018514   0.021211  -0.014844   0.004104   0.053700  -0.005127
     51      -0.078112  -0.133307   0.011171   0.056246   0.026158  -0.126013
     52      -0.042267  -0.028562   0.028524   0.061697   0.041442   0.001180
     53       0.021137   0.027221  -0.016347   0.001945   0.047042  -0.003424
     54      -0.017841  -0.110730   0.178294  -0.018885  -0.003904  -0.304129
     55       0.076774  -0.085828   0.236162   0.043652  -0.004438   0.072732
     56      -0.168872   0.047937  -0.152155   0.029401  -0.003749  -0.054079
     57       0.011531  -0.020795  -0.008114   0.004443  -0.000433   0.004958
     58      -0.136892   0.135401   0.029666  -0.022746   0.000160  -0.013114
     59      -0.091794   0.145448   0.266036  -0.022106   0.004223   0.024005
     60       0.007214  -0.069469   0.188437   0.001071  -0.005805  -0.212898
     61       0.035543  -0.038022   0.176224   0.010007  -0.002988   0.055097
     62      -0.244460   0.125655  -0.244165  -0.022064  -0.001487  -0.089236
     63      -0.004854  -0.012167  -0.020516   0.002886   0.000704   0.015864
     64      -0.185338   0.163659  -0.025498  -0.033241   0.003548   0.014322
     65      -0.070691   0.133484   0.386951   0.002368   0.001628   0.029489
     66      -0.007903   0.019484   0.016480  -0.011874   0.001475   0.000493
     67       0.160942  -0.167091  -0.122830   0.109051  -0.002028  -0.020271
     68       0.096910  -0.128133  -0.155708  -0.023859   0.002384  -0.007022
     69       0.024421  -0.021457  -0.049755  -0.007245   0.000814   0.000527
     70      -0.110421   0.134619   0.134088   0.001746   0.000788   0.013725
     71      -0.119748   0.164199   0.229323  -0.033800   0.003897   0.010443
     72       0.006685  -0.002762  -0.020455  -0.032715   0.002201   0.001080
     73       0.225121  -0.252703  -0.180729   0.195369  -0.006777  -0.048711
     74       0.126176  -0.172812  -0.232175  -0.070418   0.004050  -0.005639
     75      -0.088884   0.073223  -0.145827   0.075177  -0.003939  -0.135351
     76       0.045243  -0.034259   0.152367   0.066430  -0.004744   0.092426
     77       0.027144  -0.049869   0.124128   0.244425  -0.013613   0.169843
     78      -0.026825   0.012405   0.004309   0.062840  -0.007926   0.034224
     79      -0.057310   0.011992  -0.114952  -0.312233   0.018503   0.173652
     80      -0.025127  -0.012353   0.088820   0.297655  -0.017575   0.053961
     81      -0.118136  -0.137887   0.014074  -0.004088  -0.000255  -0.028469
     82       0.001897  -0.013948   0.021687   0.090399  -0.008688  -0.079688
     83       0.001735   0.028246  -0.001757   0.001119  -0.043725   0.011327
     84      -0.147658  -0.191320   0.021322  -0.004120  -0.002268  -0.045165
     85       0.014637  -0.031313   0.009079   0.063251   0.026750  -0.078988
     86      -0.001846   0.053720   0.006232   0.020568  -0.070171   0.016334
     87      -0.157741  -0.173049   0.034405   0.026575  -0.001847  -0.036115
     88       0.003775   0.026259   0.025852   0.099077  -0.044598  -0.061666
     89      -0.000431   0.051824   0.003174   0.011455  -0.067324   0.020844
     90      -0.037514   0.178858  -0.171237   0.047552  -0.003295  -0.107553
     91       0.025080  -0.027694   0.046988  -0.008847   0.000835   0.007851
     92      -0.019652  -0.050135   0.033291  -0.033086   0.006055  -0.097088
     93       0.109535  -0.027425   0.093475  -0.020194   0.003102   0.153079
     94       0.041131  -0.038258   0.066994  -0.011004   0.001079   0.040868
     95      -0.052443   0.002507  -0.013438  -0.034823   0.001085  -0.156781
     96      -0.074183  -0.069857  -0.024890  -0.123775   0.011583   0.080983
     97       0.059731   0.071312  -0.017675  -0.014491  -0.000233   0.020436
     98      -0.002963  -0.006844  -0.000623   0.010720   0.007726  -0.002239
     99      -0.092465  -0.098238  -0.005936  -0.055862   0.043615   0.020605
    100       0.099842   0.138567  -0.057777  -0.146134   0.030343   0.149333
    101      -0.005448   0.017885   0.010901   0.123099   0.589500  -0.033949
    102      -0.047585  -0.037548  -0.056934  -0.280633  -0.367473   0.183478
    103       0.057618   0.033188  -0.023640  -0.075131  -0.332843   0.028650
    104      -0.003503  -0.031308  -0.005438  -0.033884  -0.224742   0.005841
    105      -0.049880  -0.020995  -0.044910  -0.144998   0.371407   0.144645
    106       0.054563   0.095913  -0.006361   0.062619   0.315488  -0.005749
    107      -0.002906  -0.034095  -0.006315  -0.046411  -0.296867   0.008322
                 24         25         26         27         28         29    
      0       0.003977   0.033391   0.068422   0.003188   0.000541  -0.010488
      1      -0.001978  -0.017366   0.050966  -0.000360  -0.009008  -0.027333
      2       0.009771   0.054011   0.073900  -0.000101  -0.037931  -0.285806
      3       0.044939  -0.014685  -0.060304   0.000205   0.004260   0.008068
      4       0.005972  -0.040510  -0.005677  -0.002376  -0.013586  -0.053295
      5       0.207012  -0.035529  -0.023581  -0.001697  -0.002829  -0.041584
      6      -0.050788  -0.016503  -0.078107   0.000603   0.007726   0.042693
      7      -0.010945  -0.020010  -0.043442  -0.001435  -0.003583  -0.032393
      8      -0.209450  -0.016555  -0.014368   0.001561   0.013984   0.139912
      9      -0.005325  -0.035438  -0.093876  -0.002517  -0.012333  -0.095202
     10       0.001572   0.002886  -0.019500  -0.000162   0.001664  -0.012085
     11       0.004207   0.060802   0.090886  -0.001053  -0.020025  -0.171704
     12       0.042651  -0.046258  -0.049258  -0.000840  -0.002991  -0.000577
     13       0.012032   0.005664   0.030544   0.001311   0.003640   0.017322
     14       0.204896  -0.029645  -0.040741  -0.001127   0.019024   0.149622
     15      -0.050120  -0.033305  -0.035547   0.000256  -0.004889  -0.032570
     16      -0.009528  -0.006733   0.081454   0.000641  -0.006409   0.001512
     17      -0.206340  -0.014823  -0.012901   0.002639  -0.003491  -0.037902
     18       0.007534   0.049636   0.140530   0.002977   0.003322   0.061338
     19      -0.000292   0.019886  -0.066320   0.005076   0.024779   0.024811
     20      -0.001816  -0.006040   0.040984  -0.001961  -0.008296   0.044939
     21       0.095701  -0.038658  -0.152447  -0.001728   0.011207   0.028556
     22       0.020508  -0.037377   0.030870  -0.001686  -0.012419  -0.027644
     23       0.436406  -0.088942  -0.067327  -0.003682   0.023856   0.166178
     24      -0.106744  -0.070524  -0.065513  -0.007056  -0.020061  -0.035019
     25      -0.018765  -0.029610   0.062698  -0.004195  -0.020502  -0.026162
     26      -0.443989  -0.039991  -0.045791   0.006497   0.025827   0.164639
     27      -0.005279  -0.023889  -0.075854  -0.002919  -0.014685  -0.112329
     28      -0.000079   0.016847  -0.034346   0.000172   0.006163   0.007294
     29       0.003468   0.113407   0.156451  -0.002898  -0.030195  -0.246082
     30       0.010423   0.123825   0.216641   0.007961   0.024721   0.069209
     31       0.003489   0.107525  -0.075951  -0.005972  -0.014729   0.027819
     32      -0.005135  -0.048020   0.015077  -0.002653  -0.008573   0.131417
     33       0.008813   0.185738   0.075290   0.003710   0.014187   0.070637
     34       0.002638  -0.085263   0.182735   0.003529   0.009828   0.039622
     35       0.002221   0.039347  -0.003975   0.000341  -0.000750  -0.001826
[...]
     75      -0.000221  -0.003573   0.000847  -0.001640  -0.000348   0.000172
     76       0.006197  -0.038351   0.010864   0.002796  -0.000257   0.000011
     77      -0.003737   0.025402  -0.007518  -0.004318   0.000035  -0.000081
     78       0.001361  -0.001220   0.001348   0.532921  -0.002132   0.001274
     79      -0.001124   0.000295  -0.000771  -0.672380   0.003564  -0.001926
     80      -0.000791   0.000231  -0.000322  -0.508270   0.001571  -0.001117
     81      -0.000019   0.000053   0.000001  -0.000021  -0.000025  -0.000003
     82      -0.000064   0.000368  -0.000043   0.000051   0.000006  -0.000007
     83       0.000001  -0.000035   0.000006   0.000042   0.000004   0.000002
     84       0.000226  -0.000956   0.000182  -0.000266   0.000059  -0.000122
     85       0.000591  -0.002940   0.000459  -0.000283  -0.000064  -0.000115
     86       0.000665  -0.003462   0.000514  -0.000353  -0.000133  -0.000046
     87       0.000082  -0.000240   0.000042   0.000191   0.000314  -0.000100
     88       0.000365  -0.002104   0.000257   0.000399   0.000297  -0.000106
     89      -0.000504   0.003107  -0.000374  -0.000458  -0.000256   0.000053
     90       0.137935   0.049274   0.054601  -0.000573  -0.000026   0.000238
     91       0.307827   0.108667   0.122612  -0.000887  -0.000051   0.000550
     92      -0.044614  -0.015909  -0.017587   0.000250   0.000059  -0.000096
     93       0.297710   0.070745   0.005644  -0.001056  -0.000044  -0.000208
     94      -0.444084  -0.105628  -0.008672   0.001123   0.000012   0.000342
     95      -0.043184  -0.010287  -0.000765   0.000164   0.000032   0.000009
     96      -0.000016   0.000063  -0.000002  -0.000017  -0.000023   0.000013
     97      -0.000056   0.000246  -0.000052   0.000025  -0.000026   0.000046
     98      -0.000018   0.000031  -0.000008   0.000019   0.000025   0.000006
     99       0.000025  -0.000599  -0.000026   0.000031   0.000261  -0.000066
    100      -0.000011  -0.000290  -0.000015   0.000050   0.000073  -0.000057
    101       0.000005   0.000027   0.000009  -0.000021  -0.000049   0.000013
    102       0.000049  -0.000031   0.000015   0.000033  -0.000053   0.000036
    103       0.000208  -0.000929   0.000252  -0.000161   0.000227  -0.000208
    104      -0.000184   0.000837  -0.000211   0.000251  -0.000380   0.000115
    105       0.000107  -0.000184   0.000059   0.000055   0.000015  -0.000025
    106       0.000424  -0.001431   0.000397  -0.000467   0.000100  -0.000340
    107       0.000413  -0.001296   0.000346  -0.000530   0.000183  -0.000182


-----------
IR SPECTRUM  
-----------

 Mode    freq (cm**-1)   T**2         TX         TY         TZ
-------------------------------------------------------------------
   6:        59.73    0.000000  (  0.000000   0.000000   0.000000)
   7:        67.65    0.000000  (  0.000000   0.000000   0.000000)
   8:        75.49    0.000000  (  0.000000   0.000000   0.000000)
   9:        89.39    0.000000  (  0.000000   0.000000   0.000000)
  10:       107.32    0.000000  (  0.000000   0.000000   0.000000)
  11:       116.08    0.000000  (  0.000000   0.000000   0.000000)
  12:       128.94    0.000000  (  0.000000   0.000000   0.000000)
  13:       156.40    0.000000  (  0.000000   0.000000   0.000000)
  14:       173.83    0.000000  (  0.000000   0.000000   0.000000)
  15:       178.51    0.000000  (  0.000000   0.000000   0.000000)
  16:       190.03    0.000000  (  0.000000   0.000000   0.000000)
  17:       239.59    0.000000  (  0.000000   0.000000   0.000000)
  18:       249.60    0.000000  (  0.000000   0.000000   0.000000)
  19:       254.28    0.000000  (  0.000000   0.000000   0.000000)
  20:       267.18    0.000000  (  0.000000   0.000000   0.000000)
  21:       328.73    0.000000  (  0.000000   0.000000   0.000000)
  22:       353.77    0.000000  (  0.000000   0.000000   0.000000)
  23:       366.18    0.000000  (  0.000000   0.000000   0.000000)
  24:       402.43    0.000000  (  0.000000   0.000000   0.000000)
  25:       412.37    0.000000  (  0.000000   0.000000   0.000000)
  26:       438.44    0.000000  (  0.000000   0.000000   0.000000)
  27:       499.63    0.000000  (  0.000000   0.000000   0.000000)
  28:       513.47    0.000000  (  0.000000   0.000000   0.000000)
  29:       532.70    0.000000  (  0.000000   0.000000   0.000000)
  30:       546.18    0.000000  (  0.000000   0.000000   0.000000)
  31:       589.45    0.000000  (  0.000000   0.000000   0.000000)
  32:       603.27    0.000000  (  0.000000   0.000000   0.000000)
  33:       626.40    0.000000  (  0.000000   0.000000   0.000000)
  34:       638.39    0.000000  (  0.000000   0.000000   0.000000)
  35:       685.61    0.000000  (  0.000000   0.000000   0.000000)
  36:       737.27    0.000000  (  0.000000   0.000000   0.000000)
  37:       782.24    0.000000  (  0.000000   0.000000   0.000000)
  38:       793.59    0.000000  (  0.000000   0.000000   0.000000)
  39:       804.01    0.000000  (  0.000000   0.000000   0.000000)
  40:       822.78    0.000000  (  0.000000   0.000000   0.000000)
  41:       842.34    0.000000  (  0.000000   0.000000   0.000000)
  42:       875.63    0.000000  (  0.000000   0.000000   0.000000)
  43:       906.37    0.000000  (  0.000000   0.000000   0.000000)
  44:       916.58    0.000000  (  0.000000   0.000000   0.000000)
  45:       925.06    0.000000  (  0.000000   0.000000   0.000000)
  46:       933.52    0.000000  (  0.000000   0.000000   0.000000)
  47:       951.07    0.000000  (  0.000000   0.000000   0.000000)
  48:       952.62    0.000000  (  0.000000   0.000000   0.000000)
  49:       956.30    0.000000  (  0.000000   0.000000   0.000000)
  50:       969.11    0.000000  (  0.000000   0.000000   0.000000)
  51:       974.35    0.000000  (  0.000000   0.000000   0.000000)
  52:      1005.79    0.000000  (  0.000000   0.000000   0.000000)
  53:      1031.76    0.000000  (  0.000000   0.000000   0.000000)
  54:      1059.58    0.000000  (  0.000000   0.000000   0.000000)
  55:      1069.78    0.000000  (  0.000000   0.000000   0.000000)
  56:      1091.90    0.000000  (  0.000000   0.000000   0.000000)
  57:      1111.23    0.000000  (  0.000000   0.000000   0.000000)
  58:      1124.07    0.000000  (  0.000000   0.000000   0.000000)
  59:      1155.72    0.000000  (  0.000000   0.000000   0.000000)
  60:      1180.50    0.000000  (  0.000000   0.000000   0.000000)
  61:      1183.41    0.000000  (  0.000000   0.000000   0.000000)
  62:      1200.60    0.000000  (  0.000000   0.000000   0.000000)
  63:      1223.30    0.000000  (  0.000000   0.000000   0.000000)
  64:      1227.46    0.000000  (  0.000000   0.000000   0.000000)
  65:      1245.56    0.000000  (  0.000000   0.000000   0.000000)
  66:      1262.95    0.000000  (  0.000000   0.000000   0.000000)
  67:      1281.46    0.000000  (  0.000000   0.000000   0.000000)
  68:      1285.02    0.000000  (  0.000000   0.000000   0.000000)
  69:      1291.82    0.000000  (  0.000000   0.000000   0.000000)
  70:      1302.92    0.000000  (  0.000000   0.000000   0.000000)
  71:      1343.45    0.000000  (  0.000000   0.000000   0.000000)
  72:      1356.95    0.000000  (  0.000000   0.000000   0.000000)
  73:      1364.52    0.000000  (  0.000000   0.000000   0.000000)
  74:      1379.20    0.000000  (  0.000000   0.000000   0.000000)
  75:      1409.16    0.000000  (  0.000000   0.000000   0.000000)
  76:      1433.56    0.000000  (  0.000000   0.000000   0.000000)
  77:      1447.23    0.000000  (  0.000000   0.000000   0.000000)
  78:      1473.08    0.000000  (  0.000000   0.000000   0.000000)
  79:      1502.88    0.000000  (  0.000000   0.000000   0.000000)
  80:      1507.69    0.000000  (  0.000000   0.000000   0.000000)
  81:      1512.07    0.000000  (  0.000000   0.000000   0.000000)
  82:      1515.53    0.000000  (  0.000000   0.000000   0.000000)
  83:      1533.99    0.000000  (  0.000000   0.000000   0.000000)
  84:      1541.99    0.000000  (  0.000000   0.000000   0.000000)
  85:      1548.55    0.000000  (  0.000000   0.000000   0.000000)
  86:      1560.98    0.000000  (  0.000000   0.000000   0.000000)
  87:      2587.24    0.000000  (  0.000000   0.000000   0.000000)
  88:      2818.79    0.000000  (  0.000000   0.000000   0.000000)
  89:      2830.86    0.000000  (  0.000000   0.000000   0.000000)
  90:      2868.64    0.000000  (  0.000000   0.000000   0.000000)
  91:      2892.84    0.000000  (  0.000000   0.000000   0.000000)
  92:      2900.16    0.000000  (  0.000000   0.000000   0.000000)
  93:      2906.58    0.000000  (  0.000000   0.000000   0.000000)
  94:      2908.07    0.000000  (  0.000000   0.000000   0.000000)
  95:      2912.41    0.000000  (  0.000000   0.000000   0.000000)
  96:      2916.91    0.000000  (  0.000000   0.000000   0.000000)
  97:      2930.43    0.000000  (  0.000000   0.000000   0.000000)
  98:      2934.53    0.000000  (  0.000000   0.000000   0.000000)
  99:      2970.15    0.000000  (  0.000000   0.000000   0.000000)
 100:      2981.82    0.000000  (  0.000000   0.000000   0.000000)
 101:      2987.46    0.000000  (  0.000000   0.000000   0.000000)
 102:      2998.26    0.000000  (  0.000000   0.000000   0.000000)
 103:      3006.92    0.000000  (  0.000000   0.000000   0.000000)
 104:      3020.95    0.000000  (  0.000000   0.000000   0.000000)
 105:      3275.73    0.000000  (  0.000000   0.000000   0.000000)
 106:      3417.61    0.000000  (  0.000000   0.000000   0.000000)
 107:      3426.04    0.000000  (  0.000000   0.000000   0.000000)

The first frequency considered to be a vibration is 6
The total number of vibrations considered is 102


--------------------------
THERMOCHEMISTRY AT 298.15K
--------------------------

Temperature         ... 298.15 K
Pressure            ... 1.00 atm
Total Mass          ... 215.29 AMU

Throughout the following assumptions are being made:
  (1) The electronic state is orbitally nondegenerate
  (2) There are no thermally accessible electronically excited states
  (3) Hindered rotations indicated by low frequency modes are not
      treated as such but are treated as vibrations and this may
      cause some error
  (4) All equations used are the standard statistical mechanics
      equations for an ideal gas
  (5) All vibrations are strictly harmonic

freq.      59.73  E(vib)   ...       0.51 
freq.      67.65  E(vib)   ...       0.50 
freq.      75.49  E(vib)   ...       0.49 
freq.      89.39  E(vib)   ...       0.47 
freq.     107.32  E(vib)   ...       0.45 
freq.     116.08  E(vib)   ...       0.44 
freq.     128.94  E(vib)   ...       0.43 
freq.     156.40  E(vib)   ...       0.40 
freq.     173.83  E(vib)   ...       0.38 
freq.     178.51  E(vib)   ...       0.37 
freq.     190.03  E(vib)   ...       0.36 
freq.     239.59  E(vib)   ...       0.31 
freq.     249.60  E(vib)   ...       0.31 
freq.     254.28  E(vib)   ...       0.30 
freq.     267.18  E(vib)   ...       0.29 
freq.     328.73  E(vib)   ...       0.24 
freq.     353.77  E(vib)   ...       0.22 
freq.     366.18  E(vib)   ...       0.22 
freq.     402.43  E(vib)   ...       0.19 
freq.     412.37  E(vib)   ...       0.19 
freq.     438.44  E(vib)   ...       0.17 
freq.     499.63  E(vib)   ...       0.14 
freq.     513.47  E(vib)   ...       0.13 
freq.     532.70  E(vib)   ...       0.13 
freq.     546.18  E(vib)   ...       0.12 
freq.     589.45  E(vib)   ...       0.10 
freq.     603.27  E(vib)   ...       0.10 
freq.     626.40  E(vib)   ...       0.09 
freq.     638.39  E(vib)   ...       0.09 
freq.     685.61  E(vib)   ...       0.07 
freq.     737.27  E(vib)   ...       0.06 
freq.     782.24  E(vib)   ...       0.05 
freq.     793.59  E(vib)   ...       0.05 
freq.     804.01  E(vib)   ...       0.05 
freq.     822.78  E(vib)   ...       0.05 
freq.     842.34  E(vib)   ...       0.04 
freq.     875.63  E(vib)   ...       0.04 
freq.     906.37  E(vib)   ...       0.03 
freq.     916.58  E(vib)   ...       0.03 
freq.     925.06  E(vib)   ...       0.03 
freq.     933.52  E(vib)   ...       0.03 
freq.     951.07  E(vib)   ...       0.03 
freq.     952.62  E(vib)   ...       0.03 
freq.     956.30  E(vib)   ...       0.03 
freq.     969.11  E(vib)   ...       0.03 
freq.     974.35  E(vib)   ...       0.03 
freq.    1005.79  E(vib)   ...       0.02 
freq.    1031.76  E(vib)   ...       0.02 
freq.    1059.58  E(vib)   ...       0.02 
freq.    1069.78  E(vib)   ...       0.02 
freq.    1091.90  E(vib)   ...       0.02 
freq.    1111.23  E(vib)   ...       0.01 
freq.    1124.07  E(vib)   ...       0.01 
freq.    1155.72  E(vib)   ...       0.01 
freq.    1180.50  E(vib)   ...       0.01 
freq.    1183.41  E(vib)   ...       0.01 
freq.    1200.60  E(vib)   ...       0.01 
freq.    1223.30  E(vib)   ...       0.01 
freq.    1227.46  E(vib)   ...       0.01 
freq.    1245.56  E(vib)   ...       0.01 
freq.    1262.95  E(vib)   ...       0.01 
freq.    1281.46  E(vib)   ...       0.01 
freq.    1285.02  E(vib)   ...       0.01 
freq.    1291.82  E(vib)   ...       0.01 
freq.    1302.92  E(vib)   ...       0.01 
freq.    1343.45  E(vib)   ...       0.01 
freq.    1356.95  E(vib)   ...       0.01 
freq.    1364.52  E(vib)   ...       0.01 
freq.    1379.20  E(vib)   ...       0.01 
freq.    1409.16  E(vib)   ...       0.00 
freq.    1433.56  E(vib)   ...       0.00 
freq.    1447.23  E(vib)   ...       0.00 
freq.    1473.08  E(vib)   ...       0.00 
freq.    1502.88  E(vib)   ...       0.00 
freq.    1507.69  E(vib)   ...       0.00 
freq.    1512.07  E(vib)   ...       0.00 
freq.    1515.53  E(vib)   ...       0.00 
freq.    1533.99  E(vib)   ...       0.00 
freq.    1541.99  E(vib)   ...       0.00 
freq.    1548.55  E(vib)   ...       0.00 
freq.    1560.98  E(vib)   ...       0.00 
freq.    2587.24  E(vib)   ...       0.00 
freq.    2818.79  E(vib)   ...       0.00 
freq.    2830.86  E(vib)   ...       0.00 
freq.    2868.64  E(vib)   ...       0.00 
freq.    2892.84  E(vib)   ...       0.00 
freq.    2900.16  E(vib)   ...       0.00 
freq.    2906.58  E(vib)   ...       0.00 
freq.    2908.07  E(vib)   ...       0.00 
freq.    2912.41  E(vib)   ...       0.00 
freq.    2916.91  E(vib)   ...       0.00 
freq.    2930.43  E(vib)   ...       0.00 
freq.    2934.53  E(vib)   ...       0.00 
freq.    2970.15  E(vib)   ...       0.00 
freq.    2981.82  E(vib)   ...       0.00 
freq.    2987.46  E(vib)   ...       0.00 
freq.    2998.26  E(vib)   ...       0.00 
freq.    3006.92  E(vib)   ...       0.00 
freq.    3020.95  E(vib)   ...       0.00 
freq.    3275.73  E(vib)   ...       0.00 
freq.    3417.61  E(vib)   ...       0.00 
freq.    3426.04  E(vib)   ...       0.00 

------------
INNER ENERGY
------------

The inner energy is: U= E(el) + E(ZPE) + E(vib) + E(rot) + E(trans)
    E(el)   - is the total energy from the electronic structure calculation
              = E(kin-el) + E(nuc-el) + E(el-el) + E(nuc-nuc)
    E(ZPE)  - the the zero temperature vibrational energy from the frequency calculation
    E(vib)  - the the finite temperature correction to E(ZPE) due to population
              of excited vibrational states
    E(rot)  - is the rotational thermal energy
    E(trans)- is the translational thermal energy

Summary of contributions to the inner energy U:
Electronic energy                ...    -49.38299248 Eh
Zero point energy                ...      0.30138321 Eh     189.12 kcal/mol
Thermal vibrational correction   ...      0.01454371 Eh       9.13 kcal/mol
Thermal rotational correction    ...      0.00141627 Eh       0.89 kcal/mol
Thermal translational correction ...      0.00141627 Eh       0.89 kcal/mol
-----------------------------------------------------------------------
Total thermal energy                    -49.06423302 Eh


Summary of corrections to the electronic energy:
(perhaps to be used in another calculation)
Total thermal correction                  0.01737625 Eh      10.90 kcal/mol
Non-thermal (ZPE) correction              0.30138321 Eh     189.12 kcal/mol
-----------------------------------------------------------------------
Total correction                          0.31875946 Eh     200.02 kcal/mol


--------
ENTHALPY
--------

The enthalpy is H = U + kB*T
                kB is Boltzmann's constant
Total free energy                 ...    -49.06423302 Eh 
Thermal Enthalpy correction       ...      0.00094421 Eh       0.59 kcal/mol
-----------------------------------------------------------------------
Total Enthalpy                    ...    -49.06328881 Eh


Note: Only C1 symmetry has been detected, increase convergence thresholds 
      if your molecule has a higher symmetry. Symmetry factor of 1.0 is   
      used for the rotational entropy correction. 
 

Note: Rotational entropy computed according to Herzberg 
Infrared and Raman Spectra, Chapter V,1, Van Nostrand Reinhold, 1945 
Point Group:  C1, Symmetry Number:   1  
Rotational constants in cm-1:     0.033950     0.008909     0.008043 

Vibrational entropy computed according to the QRRHO of S. Grimme
Chem.Eur.J. 2012 18 9955


-------
ENTROPY
-------

The entropy contributions are T*S = T*(S(el)+S(vib)+S(rot)+S(trans))
     S(el)   - electronic entropy
     S(vib)  - vibrational entropy
     S(rot)  - rotational entropy
     S(trans)- translational entropy
The entropies will be listed as mutliplied by the temperature to get
units of energy

Electronic entropy                ...      0.00000000 Eh      0.00 kcal/mol
Vibrational entropy               ...      0.02526629 Eh     15.85 kcal/mol
Rotational entropy                ...      0.01561329 Eh      9.80 kcal/mol
Translational entropy             ...      0.01995728 Eh     12.52 kcal/mol
-----------------------------------------------------------------------
Final entropy term                ...      0.06083686 Eh     38.18 kcal/mol

In case the symmetry of your molecule has not been determined correctly
or in case you have a reason to use a different symmetry number we print 
out the resulting rotational entropy values for sn=1,12 :
 --------------------------------------------------------
|  sn= 1 | S(rot)=       0.01561329 Eh      9.80 kcal/mol|
|  sn= 2 | S(rot)=       0.01495884 Eh      9.39 kcal/mol|
|  sn= 3 | S(rot)=       0.01457601 Eh      9.15 kcal/mol|
|  sn= 4 | S(rot)=       0.01430438 Eh      8.98 kcal/mol|
|  sn= 5 | S(rot)=       0.01409369 Eh      8.84 kcal/mol|
|  sn= 6 | S(rot)=       0.01392155 Eh      8.74 kcal/mol|
|  sn= 7 | S(rot)=       0.01377600 Eh      8.64 kcal/mol|
|  sn= 8 | S(rot)=       0.01364993 Eh      8.57 kcal/mol|
|  sn= 9 | S(rot)=       0.01353872 Eh      8.50 kcal/mol|
|  sn=10 | S(rot)=       0.01343924 Eh      8.43 kcal/mol|
|  sn=11 | S(rot)=       0.01334925 Eh      8.38 kcal/mol|
|  sn=12 | S(rot)=       0.01326709 Eh      8.33 kcal/mol|
 --------------------------------------------------------


-------------------
GIBBS FREE ENERGY
-------------------

The Gibbs free energy is G = H - T*S

Total enthalpy                    ...    -49.06328881 Eh 
Total entropy correction          ...     -0.06083686 Eh    -38.18 kcal/mol
-----------------------------------------------------------------------
Final Gibbs free energy         ...    -49.12412567 Eh

For completeness - the Gibbs free energy minus the electronic energy
G-E(el)                           ...      0.25886681 Eh    162.44 kcal/mol


Total Time for Numerical Frequencies  :       108.510 sec
Time for Reference State(s)           :         0.218 sec
Time for Displacements                :        97.615 sec

Timings for individual modules:

Sum of individual times         ...        0.443 sec (=   0.007 min)
XTB module                      ...        0.443 sec (=   0.007 min) 100.0 %
                             ****ORCA TERMINATED NORMALLY****
TOTAL RUN TIME: 0 days 0 hours 1 minutes 49 seconds 790 msec
(SLURM) EXECUTION TIME: 109.813472029 seconds.
