(SLURM) JOB ID:         369

                                 *****************
                                 * O   R   C   A *
                                 *****************

           --- An Ab Initio, DFT and Semiempirical electronic structure package ---

                  #######################################################
                  #                        -***-                        #
                  #          Department of theory and spectroscopy      #
                  #               Directorship: Frank Neese             #
                  #        Max Planck Institute fuer Kohlenforschung    #
                  #                Kaiser Wilhelm Platz 1               #
                  #                 D-45470 Muelheim/Ruhr               #
                  #                      Germany                        #
                  #                                                     #
                  #                  All rights reserved                #
                  #                        -***-                        #
                  #######################################################


                         Program Version 4.2.1 -  RELEASE  -


 With contributions from (in alphabetic order):
   Daniel Aravena         : Magnetic Suceptibility
   Michael Atanasov       : Ab Initio Ligand Field Theory (pilot matlab implementation)
   Alexander A. Auer      : GIAO ZORA, VPT2
   Ute Becker             : Parallelization
   Giovanni Bistoni       : ED, misc. LED, open-shell LED, HFLD
   Martin Brehm           : Molecular dynamics
   Dmytro Bykov           : SCF Hessian
   Vijay G. Chilkuri      : MRCI spin determinant printing, contributions to CSF-ICE
   Dipayan Datta          : RHF DLPNO-CCSD density
   Achintya Kumar Dutta   : EOM-CC, STEOM-CC
   Dmitry Ganyushin       : Spin-Orbit,Spin-Spin,Magnetic field MRCI
   Miquel Garcia          : C-PCM Hessian, Gaussian charge scheme
   Yang Guo               : DLPNO-NEVPT2, CIM, IAO-localization
   Andreas Hansen         : Spin unrestricted coupled pair/coupled cluster methods
   Benjamin Helmich-Paris : CASSCF linear response (MC-RPA)
   Lee Huntington         : MR-EOM, pCC
   Robert Izsak           : Overlap fitted RIJCOSX, COSX-SCS-MP3, EOM
   Christian Kollmar      : KDIIS, OOCD, Brueckner-CCSD(T), CCSD density
   Simone Kossmann        : Meta GGA functionals, TD-DFT gradient, OOMP2, MP2 Hessian
   Martin Krupicka        : AUTO-CI
   Lucas Lang             : DCDCAS
   Dagmar Lenk            : GEPOL surface, SMD
   Dimitrios Liakos       : Extrapolation schemes; Compound Job, initial MDCI parallelization
   Dimitrios Manganas     : Further ROCIS development; embedding schemes
   Dimitrios Pantazis     : SARC Basis sets
   Taras Petrenko         : DFT Hessian,TD-DFT gradient, ASA, ECA, R-Raman, ABS, FL, XAS/XES, NRVS
   Peter Pinski           : DLPNO-MP2, DLPNO-MP2 Gradient
   Christoph Reimann      : Effective Core Potentials
   Marius Retegan         : Local ZFS, SOC
   Christoph Riplinger    : Optimizer, TS searches, QM/MM, DLPNO-CCSD(T), (RO)-DLPNO pert. Triples
   Tobias Risthaus        : Range-separated hybrids, TD-DFT gradient, RPA, STAB
   Michael Roemelt        : Original ROCIS implementation
   Masaaki Saitow         : Open-shell DLPNO-CCSD energy and density
   Barbara Sandhoefer     : DKH picture change effects
   Avijit Sen             : IP-ROCIS
   Kantharuban Sivalingam : CASSCF convergence, NEVPT2, FIC-MRCI
   Bernardo de Souza      : ESD, SOC TD-DFT
   Georgi Stoychev        : AutoAux, RI-MP2 NMR
   Willem Van den Heuvel  : Paramagnetic NMR
   Boris Wezisla          : Elementary symmetry handling
   Frank Wennmohs         : Technical directorship


 We gratefully acknowledge several colleagues who have allowed us to
 interface, adapt or use parts of their codes:
   Stefan Grimme, W. Hujo, H. Kruse,             : VdW corrections, initial TS optimization,
                  C. Bannwarth                     DFT functionals, gCP, sTDA/sTD-DF
   Ed Valeev, F. Pavosevic, A. Kumar             : LibInt (2-el integral package), F12 methods
   Garnet Chan, S. Sharma, J. Yang, R. Olivares  : DMRG
   Ulf Ekstrom                                   : XCFun DFT Library
   Mihaly Kallay                                 : mrcc  (arbitrary order and MRCC methods)
   Andreas Klamt, Michael Diedenhofen            : otool_cosmo (COSMO solvation model)
   Jiri Pittner, Ondrej Demel                    : Mk-CCSD
   Frank Weinhold                                : gennbo (NPA and NBO analysis)
   Christopher J. Cramer and Donald G. Truhlar   : smd solvation model
   Lars Goerigk                                  : TD-DFT with DH, B97 family of functionals
   V. Asgeirsson, H. Jonsson                     : NEB implementation
   FAccTs GmbH                                   : IRC, NEB, NEB-TS, Multilevel, MM, QM/MM, CI optimization
   S Lehtola, MJT Oliveira, MAL Marques          : LibXC Library


 Your calculation uses the libint2 library for the computation of 2-el integrals
 For citations please refer to: http://libint.valeyev.net

 Your ORCA version has been built with support for libXC version: 4.2.3
 For citations please refer to: https://tddft.org/programs/libxc/

 This ORCA versions uses:
   CBLAS   interface :  Fast vector & matrix operations
   LAPACKE interface :  Fast linear algebra routines
   SCALAPACK package :  Parallel linear algebra routines




***************************************
The coordinates will be read from file: init.xyz
***************************************


Your calculation utilizes the SMD solvation module
Please cite in your paper:
A.V. Marenich, C.J. Cramer, D.G. Truhlar J. Phys. Chem. B, 113, (2009), 6378 

Your calculation utilizes the semiempirical GFN2-xTB method
Please cite in your paper:
C. Bannwarth, Ehlert S., S. Grimme,  J. Chem. Theory Comput., 15, (2019), 1652.
   

----- Orbital basis set information -----
Your calculation utilizes the basis: def2-SVP
   F. Weigend and R. Ahlrichs, Phys. Chem. Chem. Phys. 7, 3297 (2005).

================================================================================
                                        WARNINGS
                       Please study these warnings very carefully!
================================================================================

WARNING: Gradients needed for Numerical Frequencies
  ===> : Setting RunTyp to EnGrad

WARNING: The environment variable RSH_COMMAND is not set!
  ===> : All Displacements for the Numerical Hessian calculation
         will be started on localhost

WARNING: Found dipole moment calculation with XTB calculation
  ===> : Switching off dipole moment calculation


INFO   : the flag for use of LIBINT has been found!

================================================================================
                                       INPUT FILE
================================================================================
NAME = /tmp/slurm-scratch/freq.369/freq.inp
|  1> ! XTB2 NumFreq
|  2> %maxcore 1450
|  3> 
|  4> * xyzfile 0 1 init.xyz
|  5> 
|  6> %cpcm
|  7>  smd true
|  8>  smdsolvent "ch2cl2"
|  9> end
| 10> %pal nprocs 8 end
| 11> 
| 12>                          ****END OF INPUT****
================================================================================

                     *******************************
                     * Energy+Gradient Calculation *
                     *******************************

      -----------------------------------------------------------      
     |                   =====================                   |     
     |                           x T B                           |     
     |                   =====================                   |     
     |                         S. Grimme                         |     
     |          Mulliken Center for Theoretical Chemistry        |     
     |                    University of Bonn                     |     
      -----------------------------------------------------------      

   * xtb version 6.3.0 (preview) compiled by 'ehlert@majestix' on 2020-01-15

   This program is distributed in the hope that it will be useful,
   but WITHOUT ANY WARRANTY; without even the implied warranty of
   MERCHANTABILITY or FITNESS FOR A PARTICULAR PURPOSE.
   
   FOR NON-COMMERCIAL, ACADEMIA USE ONLY.
   
   Cite this work as:
   * S. Grimme, C. Bannwarth, P. Shushkov, J. Chem. Theory Comput., 2017,
     13, 1989-2009. DOI: 10.1021/acs.jctc.7b00118
   * C. Bannwarth, S. Ehlert and S. Grimme., J. Chem. Theory Comput., 2019,
     15, 1652-1671. DOI: 10.1021/acs.jctc.8b01176
   * P. Pracht, E. Caldeweyher, S. Ehlert, S. Grimme, ChemRxiv, 2019, preprint.
     DOI: 10.26434/chemrxiv.8326202.v1
   * S. Grimme, S. Spicher unpublished
   
   for DFT-D4:
   * E. Caldeweyher, C. Bannwarth and S. Grimme, J. Chem. Phys., 2017,
     147, 034112. DOI: 10.1063/1.4993215
   * E. Caldeweyher, S. Ehlert, A. Hansen, H. Neugebauer, S. Spicher,
     C. Bannwarth and S. Grimme, J. Chem. Phys., 2019, 150, 154122.
     DOI: 10.1063/1.5090222
   
   for sTDA-xTB:
   * S. Grimme and C. Bannwarth, J. Chem. Phys., 2016, 145, 054103.
     DOI: 10.1063/1.4959605
   
   in the mass-spec context:
   * V. Asgeirsson, C. Bauer and S. Grimme, Chem. Sci., 2017, 8, 4879.
     DOI: 10.1039/c7sc00601b
   
   for metadynamics refer to:
   * S. Grimme, J. Chem. Theory Comput., 2019, 155, 2847-2862
     DOI: 10.1021/acs.jctc.9b00143
   
   with help from (in alphabetical order)
   C. Bannwarth, F. Bohle, G. Brandenburg, E. Caldeweyher, M. Checinski,
   S. Dohm, S. Ehlert, S. Ehrlich, F. März, H. Neugebauer, J. Pisarek,
   P. Pracht, P. Shushkov, and S. Spicher.
   
 * started run on 2021/02/04 at 05:15:51.575     

           -------------------------------------------------
          |                Calculation Setup                |
           -------------------------------------------------

          program call               : /opt/orca/otool_xtb /tmp/slurm-scratch/freq.369/freq_XTB.xyz --grad -c 0 -u 0 -P 8 --namespace /tmp/slurm-scratch/freq.369/freq --gbsa CH2Cl2
          hostname                   : headnode-pbs
          calculation namespace      : /tmp/slurm-scratch/freq.369/freq
          coordinate file            : /tmp/slurm-scratch/freq.369/freq_XTB.xyz
          omp threads                :                     8
          number of atoms            :                    36
          number of electrons        :                    88
          charge                     :                     0
          spin                       :                   0.0
          first test random number   :      0.82191766698984


molecular fragmentation (1/2 indicates fragments):
111111111111111111212222222111111111
# atoms in fragment 1/2:    28     8
 fragment masses (1/2) :      162.25       53.04
CMA distance (Bohr)    :   5.037
constraining FC (au)   :  0.0500

########################################################################
# WARNING! Please study the warnings concerning your input carefully
#  - Process number higher than OMP_NUM_THREADS, I hope you know what you are doing.
########################################################################

           ------------------------------------------------- 
          |                 G F N 2 - x T B                 |
          | Geometry, Frequencies, Noncovalent interactions |
          |            JCTC 2019 parametrisation            |
           ------------------------------------------------- 
             k(s)              :                1.8500
             k(p)              :                2.2300
             k(d)              :                2.2300
             k(f)              :                2.0000
             kEN (H0ij)        :               -2.0000
             D4 a1             :                0.5200
             D4 a2             :                5.0000
             D4 s6             :                1.0000
             D4 s8             :                2.7000
             D4 s9             :                5.0000
             alphaj            :                2.0000

  Z AO/shell   Hii/eV     exponent
  1     Wed Apr 25 08:07:45 CEST 2018   EN: 2.200 GM2: 0.406  GM3: 0.0800  RAES: 1.40
     1s    -10.707211    1.230000
  6     Wed Apr 25 08:07:45 CEST 2018   EN: 2.550 GM2: 0.538  GM3: 0.1500  RAES: 3.00
     2s    -13.970922    2.096432
     2p    -10.063292    1.800000
  7     Wed Apr 25 08:07:45 CEST 2018   EN: 3.040 GM2: 0.461  GM3:-0.0640  RAES: 1.90
     2s    -16.686243    2.339881
     2p    -12.523956    2.014332
  8     Wed Apr 25 08:07:45 CEST 2018   EN: 3.440 GM2: 0.452  GM3:-0.0517  RAES: 1.80
     2s    -20.229985    2.439742
     2p    -15.503117    2.137023

 Solvent             : CH2Cl2
 Using internal parameter file: .param_gbsa2_CH2Cl2
 Gsolv ref. state (COSMO-RS): gsolv [1 M gas/solution]
 temperature (mdtemp)       :    298.150000000000     
 dielectric constant        :    8.93000000000000     
 rho                        :    1.33000000000000     
 mass                       :    84.9300000000000     
 surface tension            :    15.5689454083859     
 probe radius               :   0.719875900000000     
 Gshift (Eh)                :   4.440829173451759E-003
 c1                         :    1.49173776000000     
 soset                      :   0.000000000000000E+000
 HB correction              :  F
           ------------------------------------------------- 
          |        Self-Consistent Charge Iterations        |
           ------------------------------------------------- 

          ...................................................
          :                      SETUP                      :
          :.................................................:
          :  # basis functions                  81          :
          :  # atomic orbitals                  81          :
          :  # shells                           51          :
          :  # electrons                        88          :
          :  max. iterations                   250          :
          :  Hamiltonian                  GFN2-xTB          :
          :  GBSA solvation                   true          :
          :  PC potential                    false          :
          :  electronic temp.          300.0000000     K    :
          :  accuracy                    1.0000000          :
          :  -> integral cutoff          0.2500000E+02      :
          :  -> integral neglect         0.1000000E-07      :
          :  -> SCF convergence          0.1000000E-05 Eh   :
          :  -> wf. convergence          0.1000000E-03 e    :
          :  Broyden damping             0.4000000          :
          ...................................................
  Checking positiv definite overlap ...  done.
 

 iter      E             dE          RMSdq      gap      omega  full diag
   1    -49.8726670 -0.498727E+02  0.391E+00    3.51       0.0  T
   2    -49.9589314 -0.862644E-01  0.224E+00    2.96       1.0  T
   3    -49.9597876 -0.856220E-03  0.925E-01    2.12       1.0  T
   4    -49.9635075 -0.371985E-02  0.382E-01    2.29       1.0  T
   5    -49.9665648 -0.305736E-02  0.838E-02    2.26       1.0  T
   6    -49.9666129 -0.480720E-04  0.366E-02    2.30       1.0  T
   7    -49.9666203 -0.735594E-05  0.178E-02    2.32       1.0  T
   8    -49.9666234 -0.310574E-05  0.608E-03    2.32       2.7  T
   9    -49.9666236 -0.200726E-06  0.212E-03    2.31       7.9  T
  10    -49.9666236 -0.609088E-07  0.102E-03    2.31      16.4  T
  11    -49.9666236 -0.342894E-08  0.361E-04    2.31      46.2  T
  12    -49.9666236 -0.112405E-08  0.124E-04    2.31     134.5  T

   *** convergence criteria satisfied after 12 iterations ***

         #    Occupation            Energy/Eh            Energy/eV
      -------------------------------------------------------------
         1        2.0000           -0.6871534             -18.6984
       ...           ...                  ...                  ...
        38        2.0000           -0.4299111             -11.6985
        39        2.0000           -0.4245838             -11.5535
        40        2.0000           -0.4207980             -11.4505
        41        2.0000           -0.4185353             -11.3889
        42        2.0000           -0.4069584             -11.0739
        43        2.0000           -0.3880953             -10.5606
        44        2.0000           -0.3800420             -10.3415 (HOMO)
        45                         -0.2949708              -8.0266 (LUMO)
        46                         -0.2397286              -6.5233
        47                         -0.2088423              -5.6829
        48                         -0.1023856              -2.7861
        49                         -0.0215381              -0.5861
       ...                                ...                  ...
        81                          0.6428395              17.4926
      -------------------------------------------------------------
                  HL-Gap            0.0850712 Eh            2.3149 eV
             Fermi-level           -0.3375064 Eh           -9.1840 eV

 SCC (total)                   0 d,  0 h,  0 min,  0.051 sec
 SCC setup                      ...        0 min,  0.002 sec (  3.255%)
 Dispersion                     ...        0 min,  0.001 sec (  1.058%)
 integral evaluation            ...        0 min,  0.010 sec ( 19.017%)
 zeroth order Hamiltonian       ...        0 min,  0.000 sec (  0.039%)
 iterations                     ...        0 min,  0.027 sec ( 52.538%)
 molecular gradient             ...        0 min,  0.012 sec ( 22.908%)
 printout                       ...        0 min,  0.001 sec (  1.043%)

         :::::::::::::::::::::::::::::::::::::::::::::::::::::
         ::                     SUMMARY                     ::
         :::::::::::::::::::::::::::::::::::::::::::::::::::::
         :: total energy             -49.342725034128 Eh    ::
         :: total w/o Gsasa/hb       -49.324496223447 Eh    ::
         :: gradient norm              0.029974584125 Eh/a0 ::
         :: HOMO-LUMO gap              2.314904458069 eV    ::
         ::.................................................::
         :: SCC energy               -49.984852449705 Eh    ::
         :: -> isotropic ES            0.177143889666 Eh    ::
         :: -> anisotropic ES         -0.024659468128 Eh    ::
         :: -> anisotropic XC          0.022857483643 Eh    ::
         :: -> dispersion             -0.028668419789 Eh    ::
         :: -> Gsolv                  -0.040815438454 Eh    ::
         ::    -> Gborn               -0.022586627773 Eh    ::
         ::    -> Gsasa               -0.022669639855 Eh    ::
         ::    -> Ghb                  0.000000000000 Eh    ::
         ::    -> Gshift               0.004440829173 Eh    ::
         :: repulsion energy           0.641933308952 Eh    ::
         :: add. restraining           0.000000000000 Eh    ::
         :::::::::::::::::::::::::::::::::::::::::::::::::::::

           -------------------------------------------------
          |                Property Printout                |
           -------------------------------------------------

    * Orbital Energies and Occupations

         #    Occupation            Energy/Eh            Energy/eV
      -------------------------------------------------------------
         1        2.0000           -0.6871534             -18.6984
       ...           ...                  ...                  ...
        32        2.0000           -0.4669718             -12.7069
        33        2.0000           -0.4516628             -12.2904
        34        2.0000           -0.4490680             -12.2198
        35        2.0000           -0.4422938             -12.0354
        36        2.0000           -0.4379846             -11.9182
        37        2.0000           -0.4372445             -11.8980
        38        2.0000           -0.4299111             -11.6985
        39        2.0000           -0.4245838             -11.5535
        40        2.0000           -0.4207980             -11.4505
        41        2.0000           -0.4185353             -11.3889
        42        2.0000           -0.4069584             -11.0739
        43        2.0000           -0.3880953             -10.5606
        44        2.0000           -0.3800420             -10.3415 (HOMO)
        45                         -0.2949708              -8.0266 (LUMO)
        46                         -0.2397286              -6.5233
        47                         -0.2088423              -5.6829
        48                         -0.1023856              -2.7861
        49                         -0.0215381              -0.5861
        50                          0.0264239               0.7190
        51                          0.0745385               2.0283
        52                          0.0903461               2.4584
        53                          0.0987766               2.6878
        54                          0.1126870               3.0664
        55                          0.1193699               3.2482
       ...                                ...                  ...
        81                          0.6428395              17.4926
      -------------------------------------------------------------
                  HL-Gap            0.0850712 Eh            2.3149 eV
             Fermi-level           -0.3375064 Eh           -9.1840 eV

     #   Z        covCN         q      C6AA      α(0)
     1   6 C      2.971     0.015    27.681     8.630
     2   6 C      2.917    -0.026    28.662     8.779
     3   6 C      2.915    -0.024    28.595     8.769
     4   6 C      2.916    -0.018    28.469     8.749
     5   6 C      2.914    -0.024    28.604     8.770
     6   6 C      2.924    -0.025    28.620     8.773
     7   6 C      2.850     0.094    25.905     8.342
     8   1 H      0.926     0.060     2.197     2.318
     9   1 H      0.925     0.058     2.227     2.334
    10   1 H      0.925     0.055     2.259     2.350
    11   7 N      2.682    -0.058    22.360     7.023
    12   6 C      3.746    -0.015    20.911     6.523
    13   1 H      0.859     0.248     0.892     1.480
    14   6 C      3.803    -0.071    21.848     6.655
    15   1 H      0.925     0.072     2.060     2.244
    16   1 H      0.924     0.078     2.005     2.214
    17   1 H      0.924     0.056     2.241     2.341
    18   1 H      0.924     0.055     2.258     2.350
    19   8 O      1.435    -0.691    27.718     7.094
    20   1 H      0.926     0.104     1.750     2.068
    21   1 H      0.805     0.247     0.904     1.494
    22   8 O      1.263    -0.808    31.396     7.530
    23   1 H      1.068     0.325     0.635     1.244
    24   1 H      0.805     0.216     1.037     1.600
    25   8 O      1.597    -0.656    26.574     6.957
    26   1 H      0.801     0.322     0.658     1.275
    27   1 H      0.805     0.270     0.818     1.421
    28   6 C      3.801    -0.055    21.561     6.611
    29   1 H      0.924     0.036     2.503     2.474
    30   1 H      0.924     0.040     2.448     2.447
    31   1 H      0.925     0.055     2.254     2.348
    32   1 H      0.925     0.052     2.289     2.366
    33   6 C      3.750    -0.105    22.577     6.777
    34   1 H      0.924     0.039     2.467     2.456
    35   1 H      0.924     0.040     2.450     2.448
    36   1 H      0.924     0.037     2.483     2.464

 Mol. C6AA /au·bohr⁶  :      10848.581892
 Mol. C8AA /au·bohr⁸  :     239941.541652
 Mol. α(0) /au        :        159.716571


Wiberg/Mayer (AO) data.
largest (>0.10) Wiberg bond orders for each atom
          total WBO             WBO to atom ...
     1  C   3.985        C    6 1.366    C    2 1.362    C    7 1.097
     2  C   3.989        C    3 1.464    C    1 1.362    H    8 0.958    C    5 0.105
     3  C   3.991        C    2 1.464    C    4 1.424    H   32 0.969    C    6 0.104
     4  C   3.986        C    5 1.432    C    3 1.424    H   10 0.970
     5  C   3.990        C    6 1.456    C    4 1.432    H   31 0.969    C    2 0.105
     6  C   3.986        C    5 1.456    C    1 1.366    H    9 0.967    C    3 0.104
     7  C   3.927        N   11 1.566    C    1 1.097    H   20 0.948    O   19 0.201
     8  H   0.996        C    2 0.958
     9  H   0.997        C    6 0.967
    10  H   0.996        C    4 0.970
    11  N   3.626        C    7 1.566    C   12 0.981    H   13 0.852
    12  C   3.952        C   14 0.999    N   11 0.981    H   15 0.968    H   16 0.950
    13  H   0.939        N   11 0.852
    14  C   3.989        C   28 1.006    C   12 0.999    H   18 0.975    H   17 0.973
    15  H   0.995        C   12 0.968
    16  H   0.991        C   12 0.950
    17  H   0.997        C   14 0.973
    18  H   0.997        C   14 0.975
    19  O   1.879        H   21 0.934    H   23 0.489    C    7 0.201    O   22 0.109
    20  H   0.989        C    7 0.948
    21  H   0.939        O   19 0.934
    22  O   1.657        H   24 0.949    H   23 0.400    H   26 0.135    O   19 0.109
    23  H   0.894        O   19 0.489    O   22 0.400
    24  H   0.953        O   22 0.949
    25  O   1.822        H   27 0.920    H   26 0.756
    26  H   0.896        O   25 0.756    O   22 0.135
    27  H   0.927        O   25 0.920
    28  C   3.995        C   33 1.020    C   14 1.006    H   29 0.977    H   30 0.977
    29  H   0.999        C   28 0.977
    30  H   0.998        C   28 0.977
    31  H   0.996        C    5 0.969
    32  H   0.997        C    3 0.969
    33  C   3.995        C   28 1.020    H   36 0.987    H   35 0.987    H   34 0.987
    34  H   0.998        C   33 0.987
    35  H   0.998        C   33 0.987
    36  H   0.999        C   33 0.987

molecular dipole:
                 x           y           z       tot (Debye)
 q only:        0.528      -2.742       1.309
   full:        0.660      -2.166       1.234       6.554
molecular quadrupole (traceless):
                xx          xy          yy          xz          yz          zz
 q only:        6.911      44.177     -17.367      -8.603      24.706      10.456
  q+dip:        2.060      31.994     -13.150      -9.365      23.855      11.090
   full:        1.218      33.862     -11.757      -9.466      22.018      10.540

           -------------------------------------------------
          |                Property Printout                |
           -------------------------------------------------

    * Orbital Energies and Occupations

         #    Occupation            Energy/Eh            Energy/eV
      -------------------------------------------------------------
         1        2.0000           -0.6871534             -18.6984
       ...           ...                  ...                  ...
        32        2.0000           -0.4669718             -12.7069
        33        2.0000           -0.4516628             -12.2904
        34        2.0000           -0.4490680             -12.2198
        35        2.0000           -0.4422938             -12.0354
        36        2.0000           -0.4379846             -11.9182
        37        2.0000           -0.4372445             -11.8980
        38        2.0000           -0.4299111             -11.6985
        39        2.0000           -0.4245838             -11.5535
        40        2.0000           -0.4207980             -11.4505
        41        2.0000           -0.4185353             -11.3889
        42        2.0000           -0.4069584             -11.0739
        43        2.0000           -0.3880953             -10.5606
        44        2.0000           -0.3800420             -10.3415 (HOMO)
        45                         -0.2949708              -8.0266 (LUMO)
        46                         -0.2397286              -6.5233
        47                         -0.2088423              -5.6829
        48                         -0.1023856              -2.7861
        49                         -0.0215381              -0.5861
        50                          0.0264239               0.7190
        51                          0.0745385               2.0283
        52                          0.0903461               2.4584
        53                          0.0987766               2.6878
        54                          0.1126870               3.0664
        55                          0.1193699               3.2482
       ...                                ...                  ...
        81                          0.6428395              17.4926
      -------------------------------------------------------------
                  HL-Gap            0.0850712 Eh            2.3149 eV
             Fermi-level           -0.3375064 Eh           -9.1840 eV

     #   Z        covCN         q      C6AA      α(0)
     1   6 C      2.971     0.015    27.681     8.630
     2   6 C      2.917    -0.026    28.662     8.779
     3   6 C      2.915    -0.024    28.595     8.769
     4   6 C      2.916    -0.018    28.469     8.749
     5   6 C      2.914    -0.024    28.604     8.770
     6   6 C      2.924    -0.025    28.620     8.773
     7   6 C      2.850     0.094    25.905     8.342
     8   1 H      0.926     0.060     2.197     2.318
     9   1 H      0.925     0.058     2.227     2.334
    10   1 H      0.925     0.055     2.259     2.350
    11   7 N      2.682    -0.058    22.360     7.023
    12   6 C      3.746    -0.015    20.911     6.523
    13   1 H      0.859     0.248     0.892     1.480
    14   6 C      3.803    -0.071    21.848     6.655
    15   1 H      0.925     0.072     2.060     2.244
    16   1 H      0.924     0.078     2.005     2.214
    17   1 H      0.924     0.056     2.241     2.341
    18   1 H      0.924     0.055     2.258     2.350
    19   8 O      1.435    -0.691    27.718     7.094
    20   1 H      0.926     0.104     1.750     2.068
    21   1 H      0.805     0.247     0.904     1.494
    22   8 O      1.263    -0.808    31.396     7.530
    23   1 H      1.068     0.325     0.635     1.244
    24   1 H      0.805     0.216     1.037     1.600
    25   8 O      1.597    -0.656    26.574     6.957
    26   1 H      0.801     0.322     0.658     1.275
    27   1 H      0.805     0.270     0.818     1.421
    28   6 C      3.801    -0.055    21.561     6.611
    29   1 H      0.924     0.036     2.503     2.474
    30   1 H      0.924     0.040     2.448     2.447
    31   1 H      0.925     0.055     2.254     2.348
    32   1 H      0.925     0.052     2.289     2.366
    33   6 C      3.750    -0.105    22.577     6.777
    34   1 H      0.924     0.039     2.467     2.456
    35   1 H      0.924     0.040     2.450     2.448
    36   1 H      0.924     0.037     2.483     2.464

 Mol. C6AA /au·bohr⁶  :      10848.581892
 Mol. C8AA /au·bohr⁸  :     239941.541652
 Mol. α(0) /au        :        159.716571


Wiberg/Mayer (AO) data.
largest (>0.10) Wiberg bond orders for each atom
          total WBO             WBO to atom ...
     1  C   3.985        C    6 1.366    C    2 1.362    C    7 1.097
     2  C   3.989        C    3 1.464    C    1 1.362    H    8 0.958    C    5 0.105
     3  C   3.991        C    2 1.464    C    4 1.424    H   32 0.969    C    6 0.104
     4  C   3.986        C    5 1.432    C    3 1.424    H   10 0.970
     5  C   3.990        C    6 1.456    C    4 1.432    H   31 0.969    C    2 0.105
     6  C   3.986        C    5 1.456    C    1 1.366    H    9 0.967    C    3 0.104
     7  C   3.927        N   11 1.566    C    1 1.097    H   20 0.948    O   19 0.201
     8  H   0.996        C    2 0.958
     9  H   0.997        C    6 0.967
    10  H   0.996        C    4 0.970
    11  N   3.626        C    7 1.566    C   12 0.981    H   13 0.852
    12  C   3.952        C   14 0.999    N   11 0.981    H   15 0.968    H   16 0.950
    13  H   0.939        N   11 0.852
    14  C   3.989        C   28 1.006    C   12 0.999    H   18 0.975    H   17 0.973
    15  H   0.995        C   12 0.968
    16  H   0.991        C   12 0.950
    17  H   0.997        C   14 0.973
    18  H   0.997        C   14 0.975
    19  O   1.879        H   21 0.934    H   23 0.489    C    7 0.201    O   22 0.109
    20  H   0.989        C    7 0.948
    21  H   0.939        O   19 0.934
    22  O   1.657        H   24 0.949    H   23 0.400    H   26 0.135    O   19 0.109
    23  H   0.894        O   19 0.489    O   22 0.400
    24  H   0.953        O   22 0.949
    25  O   1.822        H   27 0.920    H   26 0.756
    26  H   0.896        O   25 0.756    O   22 0.135
    27  H   0.927        O   25 0.920
    28  C   3.995        C   33 1.020    C   14 1.006    H   29 0.977    H   30 0.977
    29  H   0.999        C   28 0.977
    30  H   0.998        C   28 0.977
    31  H   0.996        C    5 0.969
    32  H   0.997        C    3 0.969
    33  C   3.995        C   28 1.020    H   36 0.987    H   35 0.987    H   34 0.987
    34  H   0.998        C   33 0.987
    35  H   0.998        C   33 0.987
    36  H   0.999        C   33 0.987

molecular dipole:
                 x           y           z       tot (Debye)
 q only:        0.528      -2.742       1.309
   full:        0.660      -2.166       1.234       6.554
molecular quadrupole (traceless):
                xx          xy          yy          xz          yz          zz
 q only:        6.911      44.177     -17.367      -8.603      24.706      10.456
  q+dip:        2.060      31.994     -13.150      -9.365      23.855      11.090
   full:        1.218      33.862     -11.757      -9.466      22.018      10.540


           -------------------------------------------------
          | TOTAL ENERGY              -49.342725034128 Eh   |
          | GRADIENT NORM               0.029974584125 Eh/α |
          | HOMO-LUMO GAP               2.314904458069 eV   |
           -------------------------------------------------

------------------------------------------------------------------------
 * finished run on 2021/02/04 at 05:15:51.728     
------------------------------------------------------------------------
 total:
 * wall-time:     0 d,  0 h,  0 min,  0.153 sec
 *  cpu-time:     0 d,  0 h,  0 min,  1.160 sec
 * ratio c/w:     7.602 speedup
 SCF:
 * wall-time:     0 d,  0 h,  0 min,  0.052 sec
 *  cpu-time:     0 d,  0 h,  0 min,  0.410 sec
 * ratio c/w:     7.939 speedup


-------------------------   --------------------
FINAL SINGLE POINT ENERGY       -49.342725034130
-------------------------   --------------------


----------------------------------------------------------------------------
                           ORCA NUMERICAL FREQUENCIES
                              (8-process run)
----------------------------------------------------------------------------

Number of atoms                ... 36
Central differences            ... used
Number of displacements        ... 216
Numerical increment            ... 5.000e-03 bohr
IR-spectrum generation         ... on
Raman-spectrum generation      ... off
Surface Crossing Hessian       ... off
List of participating nodes    ...  /tmp/slurm-scratch/freq.369/freq.hostnames

The output will be reduced. Please look at the following files:
SCF program output             ... >/tmp/slurm-scratch/freq.369/freq.lastscf
Integral program output        ... >/tmp/slurm-scratch/freq.369/freq.lastint
Gradient program output        ... >/tmp/slurm-scratch/freq.369/freq.lastgrad
Dipole moment program output   ... >/tmp/slurm-scratch/freq.369/freq.lastmom
AutoCI program output          ... >/tmp/slurm-scratch/freq.369/freq.lastautoci


         <<< Energy and Gradient at the input geometry >>>

        <<< Energy and Gradient at displaced geometries >>>
             <<<Displacing   1/coordinate 2 (+)>>>
             <<<Displacing   3/coordinate 2 (+)>>>
             <<<Displacing   1/coordinate 3 (+)>>>
             <<<Displacing   1/coordinate 1 (+)>>>
             <<<Displacing   2/coordinate 2 (+)>>>
             <<<Displacing   2/coordinate 3 (+)>>>
             <<<Displacing   3/coordinate 1 (+)>>>
             <<<Displacing   2/coordinate 1 (+)>>>
             <<<Displacing   1/coordinate 2 (-)>>>
             <<<Displacing   3/coordinate 2 (-)>>>
             <<<Displacing   1/coordinate 3 (-)>>>
             <<<Displacing   1/coordinate 1 (-)>>>
             <<<Displacing   2/coordinate 1 (-)>>>
             <<<Displacing   2/coordinate 3 (-)>>>
             <<<Displacing   2/coordinate 2 (-)>>>
             <<<Displacing   3/coordinate 1 (-)>>>
             <<<Displacing   3/coordinate 3 (+)>>>
             <<<Displacing   4/coordinate 1 (+)>>>
             <<<Displacing   4/coordinate 2 (+)>>>
             <<<Displacing   5/coordinate 1 (+)>>>
             <<<Displacing   3/coordinate 3 (-)>>>
             <<<Displacing   5/coordinate 2 (+)>>>
             <<<Displacing   4/coordinate 1 (-)>>>
             <<<Displacing   4/coordinate 3 (+)>>>
             <<<Displacing   6/coordinate 1 (+)>>>
             <<<Displacing   4/coordinate 2 (-)>>>
             <<<Displacing   5/coordinate 1 (-)>>>
             <<<Displacing   5/coordinate 3 (+)>>>
             <<<Displacing   5/coordinate 2 (-)>>>
             <<<Displacing   4/coordinate 3 (-)>>>
             <<<Displacing   6/coordinate 1 (-)>>>
             <<<Displacing   5/coordinate 3 (-)>>>
             <<<Displacing   7/coordinate 1 (+)>>>
             <<<Displacing   7/coordinate 2 (+)>>>
             <<<Displacing   7/coordinate 1 (-)>>>
             <<<Displacing   6/coordinate 2 (+)>>>
             <<<Displacing   6/coordinate 3 (+)>>>
             <<<Displacing   7/coordinate 2 (-)>>>
             <<<Displacing   7/coordinate 3 (+)>>>
             <<<Displacing   6/coordinate 2 (-)>>>
             <<<Displacing   8/coordinate 2 (+)>>>
             <<<Displacing   6/coordinate 3 (-)>>>
             <<<Displacing   7/coordinate 3 (-)>>>
             <<<Displacing   8/coordinate 2 (-)>>>
             <<<Displacing   8/coordinate 3 (+)>>>
             <<<Displacing   8/coordinate 1 (+)>>>
             <<<Displacing   8/coordinate 3 (-)>>>
             <<<Displacing   8/coordinate 1 (-)>>>
             <<<Displacing   9/coordinate 3 (+)>>>
             <<<Displacing   9/coordinate 1 (+)>>>
             <<<Displacing   9/coordinate 3 (-)>>>
             <<<Displacing   9/coordinate 1 (-)>>>
             <<<Displacing   9/coordinate 2 (+)>>>
             <<<Displacing   9/coordinate 2 (-)>>>
             <<<Displacing  10/coordinate 3 (+)>>>
             <<<Displacing  10/coordinate 2 (+)>>>
             <<<Displacing  10/coordinate 1 (+)>>>
             <<<Displacing  10/coordinate 3 (-)>>>
             <<<Displacing  10/coordinate 2 (-)>>>
             <<<Displacing  10/coordinate 1 (-)>>>
             <<<Displacing  11/coordinate 1 (+)>>>
             <<<Displacing  11/coordinate 2 (+)>>>
             <<<Displacing  11/coordinate 1 (-)>>>
             <<<Displacing  11/coordinate 2 (-)>>>
             <<<Displacing  12/coordinate 1 (+)>>>
             <<<Displacing  11/coordinate 3 (+)>>>
             <<<Displacing  12/coordinate 2 (+)>>>
             <<<Displacing  13/coordinate 1 (+)>>>
             <<<Displacing  12/coordinate 1 (-)>>>
             <<<Displacing  11/coordinate 3 (-)>>>
             <<<Displacing  12/coordinate 2 (-)>>>
             <<<Displacing  13/coordinate 1 (-)>>>
             <<<Displacing  12/coordinate 3 (+)>>>
             <<<Displacing  13/coordinate 2 (+)>>>
             <<<Displacing  12/coordinate 3 (-)>>>
             <<<Displacing  13/coordinate 2 (-)>>>
             <<<Displacing  13/coordinate 3 (+)>>>
             <<<Displacing  14/coordinate 1 (+)>>>
             <<<Displacing  13/coordinate 3 (-)>>>
             <<<Displacing  14/coordinate 1 (-)>>>
             <<<Displacing  14/coordinate 3 (+)>>>
             <<<Displacing  14/coordinate 2 (+)>>>
             <<<Displacing  15/coordinate 2 (+)>>>
             <<<Displacing  14/coordinate 3 (-)>>>
             <<<Displacing  14/coordinate 2 (-)>>>
             <<<Displacing  15/coordinate 1 (+)>>>
             <<<Displacing  16/coordinate 1 (+)>>>
             <<<Displacing  15/coordinate 2 (-)>>>
             <<<Displacing  15/coordinate 3 (+)>>>
             <<<Displacing  15/coordinate 1 (-)>>>
             <<<Displacing  16/coordinate 1 (-)>>>
             <<<Displacing  15/coordinate 3 (-)>>>
             <<<Displacing  16/coordinate 2 (+)>>>
             <<<Displacing  16/coordinate 2 (-)>>>
             <<<Displacing  16/coordinate 3 (+)>>>
             <<<Displacing  16/coordinate 3 (-)>>>
             <<<Displacing  17/coordinate 1 (+)>>>
             <<<Displacing  17/coordinate 2 (+)>>>
             <<<Displacing  17/coordinate 1 (-)>>>
             <<<Displacing  17/coordinate 3 (+)>>>
             <<<Displacing  18/coordinate 1 (+)>>>
             <<<Displacing  17/coordinate 2 (-)>>>
             <<<Displacing  17/coordinate 3 (-)>>>
             <<<Displacing  18/coordinate 1 (-)>>>
             <<<Displacing  18/coordinate 2 (+)>>>
             <<<Displacing  18/coordinate 3 (+)>>>
             <<<Displacing  18/coordinate 2 (-)>>>
             <<<Displacing  19/coordinate 1 (+)>>>
             <<<Displacing  18/coordinate 3 (-)>>>
             <<<Displacing  19/coordinate 2 (+)>>>
             <<<Displacing  19/coordinate 1 (-)>>>
             <<<Displacing  19/coordinate 2 (-)>>>
             <<<Displacing  19/coordinate 3 (+)>>>
             <<<Displacing  19/coordinate 3 (-)>>>
             <<<Displacing  20/coordinate 1 (+)>>>
             <<<Displacing  20/coordinate 2 (+)>>>
             <<<Displacing  20/coordinate 3 (+)>>>
             <<<Displacing  20/coordinate 1 (-)>>>
             <<<Displacing  20/coordinate 2 (-)>>>
             <<<Displacing  20/coordinate 3 (-)>>>
             <<<Displacing  21/coordinate 1 (+)>>>
             <<<Displacing  21/coordinate 3 (+)>>>
             <<<Displacing  22/coordinate 1 (+)>>>
             <<<Displacing  21/coordinate 1 (-)>>>
             <<<Displacing  21/coordinate 2 (+)>>>
             <<<Displacing  21/coordinate 3 (-)>>>
             <<<Displacing  22/coordinate 1 (-)>>>
             <<<Displacing  21/coordinate 2 (-)>>>
             <<<Displacing  23/coordinate 1 (+)>>>
             <<<Displacing  22/coordinate 2 (+)>>>
             <<<Displacing  23/coordinate 1 (-)>>>
             <<<Displacing  22/coordinate 3 (+)>>>
             <<<Displacing  22/coordinate 2 (-)>>>
             <<<Displacing  22/coordinate 3 (-)>>>
             <<<Displacing  23/coordinate 2 (+)>>>
             <<<Displacing  23/coordinate 2 (-)>>>
             <<<Displacing  24/coordinate 1 (+)>>>
             <<<Displacing  24/coordinate 2 (+)>>>
             <<<Displacing  24/coordinate 3 (+)>>>
             <<<Displacing  23/coordinate 3 (+)>>>
             <<<Displacing  24/coordinate 1 (-)>>>
             <<<Displacing  24/coordinate 2 (-)>>>
             <<<Displacing  24/coordinate 3 (-)>>>
             <<<Displacing  23/coordinate 3 (-)>>>
             <<<Displacing  25/coordinate 1 (+)>>>
             <<<Displacing  25/coordinate 2 (+)>>>
             <<<Displacing  25/coordinate 1 (-)>>>
             <<<Displacing  25/coordinate 3 (+)>>>
             <<<Displacing  25/coordinate 2 (-)>>>
             <<<Displacing  25/coordinate 3 (-)>>>
             <<<Displacing  26/coordinate 1 (+)>>>
             <<<Displacing  26/coordinate 2 (+)>>>
             <<<Displacing  27/coordinate 1 (+)>>>
             <<<Displacing  26/coordinate 1 (-)>>>
             <<<Displacing  26/coordinate 3 (+)>>>
             <<<Displacing  27/coordinate 2 (+)>>>
             <<<Displacing  26/coordinate 2 (-)>>>
             <<<Displacing  27/coordinate 1 (-)>>>
             <<<Displacing  26/coordinate 3 (-)>>>
             <<<Displacing  27/coordinate 2 (-)>>>
             <<<Displacing  27/coordinate 3 (+)>>>
             <<<Displacing  27/coordinate 3 (-)>>>
             <<<Displacing  28/coordinate 1 (+)>>>
             <<<Displacing  28/coordinate 2 (+)>>>
             <<<Displacing  28/coordinate 1 (-)>>>
             <<<Displacing  28/coordinate 3 (+)>>>
             <<<Displacing  28/coordinate 2 (-)>>>
             <<<Displacing  29/coordinate 3 (+)>>>
             <<<Displacing  29/coordinate 2 (+)>>>
             <<<Displacing  30/coordinate 1 (+)>>>
             <<<Displacing  29/coordinate 1 (+)>>>
             <<<Displacing  28/coordinate 3 (-)>>>
             <<<Displacing  29/coordinate 3 (-)>>>
             <<<Displacing  30/coordinate 1 (-)>>>
             <<<Displacing  29/coordinate 2 (-)>>>
             <<<Displacing  29/coordinate 1 (-)>>>
             <<<Displacing  30/coordinate 2 (+)>>>
             <<<Displacing  30/coordinate 2 (-)>>>
             <<<Displacing  31/coordinate 1 (+)>>>
             <<<Displacing  30/coordinate 3 (+)>>>
             <<<Displacing  31/coordinate 1 (-)>>>
             <<<Displacing  30/coordinate 3 (-)>>>
             <<<Displacing  31/coordinate 2 (+)>>>
             <<<Displacing  32/coordinate 2 (+)>>>
             <<<Displacing  31/coordinate 3 (+)>>>
             <<<Displacing  32/coordinate 1 (+)>>>
             <<<Displacing  31/coordinate 2 (-)>>>
             <<<Displacing  32/coordinate 2 (-)>>>
             <<<Displacing  31/coordinate 3 (-)>>>
             <<<Displacing  32/coordinate 3 (+)>>>
             <<<Displacing  32/coordinate 1 (-)>>>
             <<<Displacing  32/coordinate 3 (-)>>>
             <<<Displacing  33/coordinate 1 (+)>>>
             <<<Displacing  33/coordinate 1 (-)>>>
             <<<Displacing  33/coordinate 2 (+)>>>
             <<<Displacing  34/coordinate 2 (+)>>>
             <<<Displacing  33/coordinate 2 (-)>>>
             <<<Displacing  33/coordinate 3 (+)>>>
             <<<Displacing  34/coordinate 2 (-)>>>
             <<<Displacing  34/coordinate 1 (+)>>>
             <<<Displacing  33/coordinate 3 (-)>>>
             <<<Displacing  34/coordinate 1 (-)>>>
             <<<Displacing  34/coordinate 3 (+)>>>
             <<<Displacing  35/coordinate 1 (+)>>>
             <<<Displacing  34/coordinate 3 (-)>>>
             <<<Displacing  35/coordinate 1 (-)>>>
             <<<Displacing  35/coordinate 2 (+)>>>
             <<<Displacing  35/coordinate 2 (-)>>>
             <<<Displacing  35/coordinate 3 (+)>>>
             <<<Displacing  35/coordinate 3 (-)>>>
             <<<Displacing  36/coordinate 3 (+)>>>
             <<<Displacing  36/coordinate 2 (+)>>>
             <<<Displacing  36/coordinate 3 (-)>>>
             <<<Displacing  36/coordinate 1 (+)>>>
             <<<Displacing  36/coordinate 2 (-)>>>
             <<<Displacing  36/coordinate 1 (-)>>>

-----------------------
VIBRATIONAL FREQUENCIES
-----------------------

Scaling factor for frequencies =  1.000000000 (already applied!)

   0:         0.00 cm**-1
   1:         0.00 cm**-1
   2:         0.00 cm**-1
   3:         0.00 cm**-1
   4:         0.00 cm**-1
   5:         0.00 cm**-1
   6:      -529.54 cm**-1 ***imaginary mode***
   7:       -15.85 cm**-1 ***imaginary mode***
   8:        44.98 cm**-1
   9:        46.34 cm**-1
  10:        58.96 cm**-1
  11:        72.40 cm**-1
  12:        82.33 cm**-1
  13:        89.16 cm**-1
  14:       108.46 cm**-1
  15:       114.84 cm**-1
  16:       151.10 cm**-1
  17:       164.88 cm**-1
  18:       178.87 cm**-1
  19:       212.86 cm**-1
  20:       243.59 cm**-1
  21:       269.64 cm**-1
  22:       272.88 cm**-1
  23:       303.02 cm**-1
  24:       329.93 cm**-1
  25:       367.77 cm**-1
  26:       376.78 cm**-1
  27:       402.17 cm**-1
  28:       430.93 cm**-1
  29:       473.80 cm**-1
  30:       501.63 cm**-1
  31:       527.11 cm**-1
  32:       545.60 cm**-1
  33:       588.55 cm**-1
  34:       605.78 cm**-1
  35:       619.61 cm**-1
  36:       630.11 cm**-1
  37:       662.64 cm**-1
  38:       714.19 cm**-1
  39:       756.10 cm**-1
  40:       771.63 cm**-1
  41:       784.70 cm**-1
  42:       804.27 cm**-1
  43:       820.54 cm**-1
  44:       854.44 cm**-1
  45:       870.69 cm**-1
  46:       908.72 cm**-1
  47:       929.19 cm**-1
  48:       937.68 cm**-1
  49:       944.58 cm**-1
  50:       946.36 cm**-1
  51:       961.95 cm**-1
  52:       985.90 cm**-1
  53:      1034.99 cm**-1
  54:      1062.20 cm**-1
  55:      1070.59 cm**-1
  56:      1080.40 cm**-1
  57:      1106.14 cm**-1
  58:      1110.81 cm**-1
  59:      1123.98 cm**-1
  60:      1132.59 cm**-1
  61:      1179.26 cm**-1
  62:      1180.92 cm**-1
  63:      1204.10 cm**-1
  64:      1213.66 cm**-1
  65:      1246.05 cm**-1
  66:      1255.89 cm**-1
  67:      1273.78 cm**-1
  68:      1276.34 cm**-1
  69:      1276.90 cm**-1
  70:      1293.36 cm**-1
  71:      1306.24 cm**-1
  72:      1318.43 cm**-1
  73:      1337.82 cm**-1
  74:      1369.83 cm**-1
  75:      1420.40 cm**-1
  76:      1428.52 cm**-1
  77:      1447.84 cm**-1
  78:      1453.37 cm**-1
  79:      1486.40 cm**-1
  80:      1494.94 cm**-1
  81:      1503.32 cm**-1
  82:      1506.36 cm**-1
  83:      1510.62 cm**-1
  84:      1541.89 cm**-1
  85:      1562.06 cm**-1
  86:      1565.69 cm**-1
  87:      1602.79 cm**-1
  88:      2414.73 cm**-1
  89:      2945.78 cm**-1
  90:      2963.36 cm**-1
  91:      2968.45 cm**-1
  92:      2973.33 cm**-1
  93:      2981.74 cm**-1
  94:      2982.48 cm**-1
  95:      2989.59 cm**-1
  96:      3000.91 cm**-1
  97:      3009.50 cm**-1
  98:      3059.22 cm**-1
  99:      3062.41 cm**-1
 100:      3069.49 cm**-1
 101:      3077.55 cm**-1
 102:      3084.76 cm**-1
 103:      3090.18 cm**-1
 104:      3113.54 cm**-1
 105:      3600.68 cm**-1
 106:      3603.75 cm**-1
 107:      3626.83 cm**-1


------------
NORMAL MODES
------------

These modes are the cartesian displacements weighted by the diagonal matrix
M(i,i)=1/sqrt(m[i]) where m[i] is the mass of the displaced atom
Thus, these vectors are normalized but *not* orthogonal

                  0          1          2          3          4          5    
      0       0.000000   0.000000   0.000000   0.000000   0.000000   0.000000
      1       0.000000   0.000000   0.000000   0.000000   0.000000   0.000000
      2       0.000000   0.000000   0.000000   0.000000   0.000000   0.000000
      3       0.000000   0.000000   0.000000   0.000000   0.000000   0.000000
      4       0.000000   0.000000   0.000000   0.000000   0.000000   0.000000
      5       0.000000   0.000000   0.000000   0.000000   0.000000   0.000000
      6       0.000000   0.000000   0.000000   0.000000   0.000000   0.000000
      7       0.000000   0.000000   0.000000   0.000000   0.000000   0.000000
      8       0.000000   0.000000   0.000000   0.000000   0.000000   0.000000
      9       0.000000   0.000000   0.000000   0.000000   0.000000   0.000000
     10       0.000000   0.000000   0.000000   0.000000   0.000000   0.000000
     11       0.000000   0.000000   0.000000   0.000000   0.000000   0.000000
     12       0.000000   0.000000   0.000000   0.000000   0.000000   0.000000
     13       0.000000   0.000000   0.000000   0.000000   0.000000   0.000000
     14       0.000000   0.000000   0.000000   0.000000   0.000000   0.000000
     15       0.000000   0.000000   0.000000   0.000000   0.000000   0.000000
     16       0.000000   0.000000   0.000000   0.000000   0.000000   0.000000
     17       0.000000   0.000000   0.000000   0.000000   0.000000   0.000000
     18       0.000000   0.000000   0.000000   0.000000   0.000000   0.000000
     19       0.000000   0.000000   0.000000   0.000000   0.000000   0.000000
     20       0.000000   0.000000   0.000000   0.000000   0.000000   0.000000
     21       0.000000   0.000000   0.000000   0.000000   0.000000   0.000000
     22       0.000000   0.000000   0.000000   0.000000   0.000000   0.000000
     23       0.000000   0.000000   0.000000   0.000000   0.000000   0.000000
     24       0.000000   0.000000   0.000000   0.000000   0.000000   0.000000
     25       0.000000   0.000000   0.000000   0.000000   0.000000   0.000000
     26       0.000000   0.000000   0.000000   0.000000   0.000000   0.000000
     27       0.000000   0.000000   0.000000   0.000000   0.000000   0.000000
     28       0.000000   0.000000   0.000000   0.000000   0.000000   0.000000
     29       0.000000   0.000000   0.000000   0.000000   0.000000   0.000000
     30       0.000000   0.000000   0.000000   0.000000   0.000000   0.000000
     31       0.000000   0.000000   0.000000   0.000000   0.000000   0.000000
     32       0.000000   0.000000   0.000000   0.000000   0.000000   0.000000
     33       0.000000   0.000000   0.000000   0.000000   0.000000   0.000000
     34       0.000000   0.000000   0.000000   0.000000   0.000000   0.000000
     35       0.000000   0.000000   0.000000   0.000000   0.000000   0.000000
     36       0.000000   0.000000   0.000000   0.000000   0.000000   0.000000
     37       0.000000   0.000000   0.000000   0.000000   0.000000   0.000000
     38       0.000000   0.000000   0.000000   0.000000   0.000000   0.000000
     39       0.000000   0.000000   0.000000   0.000000   0.000000   0.000000
     40       0.000000   0.000000   0.000000   0.000000   0.000000   0.000000
     41       0.000000   0.000000   0.000000   0.000000   0.000000   0.000000
     42       0.000000   0.000000   0.000000   0.000000   0.000000   0.000000
     43       0.000000   0.000000   0.000000   0.000000   0.000000   0.000000
     44       0.000000   0.000000   0.000000   0.000000   0.000000   0.000000
     45       0.000000   0.000000   0.000000   0.000000   0.000000   0.000000
     46       0.000000   0.000000   0.000000   0.000000   0.000000   0.000000
     47       0.000000   0.000000   0.000000   0.000000   0.000000   0.000000
     48       0.000000   0.000000   0.000000   0.000000   0.000000   0.000000
     49       0.000000   0.000000   0.000000   0.000000   0.000000   0.000000
     50       0.000000   0.000000   0.000000   0.000000   0.000000   0.000000
     51       0.000000   0.000000   0.000000   0.000000   0.000000   0.000000
     52       0.000000   0.000000   0.000000   0.000000   0.000000   0.000000
     53       0.000000   0.000000   0.000000   0.000000   0.000000   0.000000
     54       0.000000   0.000000   0.000000   0.000000   0.000000   0.000000
     55       0.000000   0.000000   0.000000   0.000000   0.000000   0.000000
     56       0.000000   0.000000   0.000000   0.000000   0.000000   0.000000
     57       0.000000   0.000000   0.000000   0.000000   0.000000   0.000000
     58       0.000000   0.000000   0.000000   0.000000   0.000000   0.000000
     59       0.000000   0.000000   0.000000   0.000000   0.000000   0.000000
     60       0.000000   0.000000   0.000000   0.000000   0.000000   0.000000
     61       0.000000   0.000000   0.000000   0.000000   0.000000   0.000000
     62       0.000000   0.000000   0.000000   0.000000   0.000000   0.000000
     63       0.000000   0.000000   0.000000   0.000000   0.000000   0.000000
     64       0.000000   0.000000   0.000000   0.000000   0.000000   0.000000
     65       0.000000   0.000000   0.000000   0.000000   0.000000   0.000000
     66       0.000000   0.000000   0.000000   0.000000   0.000000   0.000000
     67       0.000000   0.000000   0.000000   0.000000   0.000000   0.000000
     68       0.000000   0.000000   0.000000   0.000000   0.000000   0.000000
     69       0.000000   0.000000   0.000000   0.000000   0.000000   0.000000
     70       0.000000   0.000000   0.000000   0.000000   0.000000   0.000000
     71       0.000000   0.000000   0.000000   0.000000   0.000000   0.000000
     72       0.000000   0.000000   0.000000   0.000000   0.000000   0.000000
     73       0.000000   0.000000   0.000000   0.000000   0.000000   0.000000
     74       0.000000   0.000000   0.000000   0.000000   0.000000   0.000000
     75       0.000000   0.000000   0.000000   0.000000   0.000000   0.000000
     76       0.000000   0.000000   0.000000   0.000000   0.000000   0.000000
     77       0.000000   0.000000   0.000000   0.000000   0.000000   0.000000
     78       0.000000   0.000000   0.000000   0.000000   0.000000   0.000000
     79       0.000000   0.000000   0.000000   0.000000   0.000000   0.000000
     80       0.000000   0.000000   0.000000   0.000000   0.000000   0.000000
     81       0.000000   0.000000   0.000000   0.000000   0.000000   0.000000
     82       0.000000   0.000000   0.000000   0.000000   0.000000   0.000000
     83       0.000000   0.000000   0.000000   0.000000   0.000000   0.000000
     84       0.000000   0.000000   0.000000   0.000000   0.000000   0.000000
     85       0.000000   0.000000   0.000000   0.000000   0.000000   0.000000
     86       0.000000   0.000000   0.000000   0.000000   0.000000   0.000000
     87       0.000000   0.000000   0.000000   0.000000   0.000000   0.000000
     88       0.000000   0.000000   0.000000   0.000000   0.000000   0.000000
     89       0.000000   0.000000   0.000000   0.000000   0.000000   0.000000
     90       0.000000   0.000000   0.000000   0.000000   0.000000   0.000000
     91       0.000000   0.000000   0.000000   0.000000   0.000000   0.000000
     92       0.000000   0.000000   0.000000   0.000000   0.000000   0.000000
     93       0.000000   0.000000   0.000000   0.000000   0.000000   0.000000
     94       0.000000   0.000000   0.000000   0.000000   0.000000   0.000000
     95       0.000000   0.000000   0.000000   0.000000   0.000000   0.000000
     96       0.000000   0.000000   0.000000   0.000000   0.000000   0.000000
     97       0.000000   0.000000   0.000000   0.000000   0.000000   0.000000
     98       0.000000   0.000000   0.000000   0.000000   0.000000   0.000000
     99       0.000000   0.000000   0.000000   0.000000   0.000000   0.000000
    100       0.000000   0.000000   0.000000   0.000000   0.000000   0.000000
    101       0.000000   0.000000   0.000000   0.000000   0.000000   0.000000
    102       0.000000   0.000000   0.000000   0.000000   0.000000   0.000000
    103       0.000000   0.000000   0.000000   0.000000   0.000000   0.000000
    104       0.000000   0.000000   0.000000   0.000000   0.000000   0.000000
    105       0.000000   0.000000   0.000000   0.000000   0.000000   0.000000
    106       0.000000   0.000000   0.000000   0.000000   0.000000   0.000000
    107       0.000000   0.000000   0.000000   0.000000   0.000000   0.000000
                  6          7          8          9         10         11    
      0      -0.012766   0.040671   0.026252  -0.027040  -0.020251  -0.001455
      1      -0.023023   0.011546  -0.000331  -0.005581  -0.040442   0.000030
      2       0.013316   0.001412   0.001974  -0.021710   0.059655   0.020717
      3      -0.006708   0.011450   0.094566   0.005924   0.001759   0.042699
      4      -0.000709   0.004496   0.160227   0.115316  -0.035968   0.020584
      5       0.006870  -0.008568  -0.076104  -0.090191   0.068354   0.027857
      6      -0.000990  -0.006402   0.101367   0.015443   0.055084   0.075747
      7       0.005795   0.028499   0.154588   0.178098   0.048526   0.001757
      8      -0.000828  -0.001721  -0.079517  -0.112089   0.011044   0.009840
      9      -0.000493   0.003610   0.039034  -0.007830   0.087554   0.063232
     10       0.000002   0.059162  -0.010157   0.120657   0.129963  -0.038192
     11      -0.002497   0.014826  -0.007174  -0.065859  -0.053384  -0.015578
     12       0.001517   0.033309  -0.031999  -0.042158   0.066032   0.018756
     13       0.001128   0.068950  -0.176480  -0.004625   0.125100  -0.060693
     14      -0.004392   0.023237   0.072814   0.004135  -0.061331  -0.022720
     15       0.000717   0.051843  -0.037094  -0.050356   0.012739  -0.013256
     16      -0.004612   0.046528  -0.168919  -0.064342   0.041067  -0.040702
     17      -0.001147   0.016085   0.074071   0.024094  -0.004346  -0.005200
     18      -0.051969   0.061460   0.015295  -0.029045  -0.055113  -0.029141
     19      -0.136201  -0.023694   0.021201  -0.046735  -0.084840   0.009441
     20       0.095410  -0.002085   0.002845  -0.010039   0.095715   0.036826
     21      -0.005706   0.003153   0.149053   0.027833  -0.025854   0.051498
     22       0.003422  -0.019677   0.294475   0.163591  -0.100554   0.047276
     23      -0.000506  -0.022849  -0.144249  -0.132066   0.121469   0.044448
     24      -0.003967   0.073961  -0.090192  -0.073764  -0.002304  -0.047496
     25      -0.011842   0.053378  -0.293039  -0.156833   0.041363  -0.057086
     26       0.003211   0.022534   0.132927   0.075817  -0.012146  -0.011115
     27      -0.003005  -0.011227   0.045511   0.000434   0.128480   0.087471
     28      -0.002568   0.076156  -0.010829   0.170919   0.195971  -0.052227
     29      -0.000584   0.020856  -0.011498  -0.083810  -0.097613  -0.028782
     30      -0.001321   0.060712   0.015285  -0.029464  -0.055705  -0.030294
     31       0.019025  -0.084466   0.025627  -0.048776  -0.051022   0.004119
     32       0.000381  -0.012218   0.021091  -0.015791   0.102320   0.043886
     33       0.005567   0.094922  -0.005204  -0.012161  -0.048171  -0.001423
     34      -0.002675  -0.133568   0.079189  -0.066815   0.020655  -0.029678
     35       0.005851  -0.021087   0.019793  -0.023170   0.076655   0.032966
     36      -0.028932   0.027129   0.020362  -0.031146  -0.033293  -0.033920
     37       0.059335  -0.096000  -0.015171  -0.036000  -0.032843   0.031106
     38      -0.015735  -0.028398   0.055820  -0.026262   0.103892   0.021770
     39       0.000696  -0.051486   0.053946  -0.047200  -0.022828  -0.103466
     40      -0.000259   0.120751  -0.029056  -0.014877  -0.065185   0.134798
     41       0.002628   0.001409  -0.006467  -0.038097  -0.030873   0.018512
     42       0.002239   0.048365   0.010506  -0.013366  -0.018890  -0.024566
     43       0.007473  -0.340470   0.184367  -0.114171   0.119612  -0.174841
     44      -0.006305   0.112761  -0.056117   0.016635   0.019430   0.135832
     45       0.002103   0.290914  -0.086282   0.036799  -0.084533   0.141346
     46       0.014884  -0.167922   0.109730  -0.077602   0.062259  -0.056202
     47       0.040016  -0.181707   0.116557  -0.067581   0.171699  -0.085935
     48       0.000848   0.000830   0.050498  -0.059470  -0.044452  -0.169639
     49       0.003042   0.313178  -0.133235   0.031860  -0.183296   0.322479
     50       0.000206  -0.119225   0.081057  -0.089882   0.052376  -0.204769
     51      -0.004859  -0.232739   0.126586  -0.093134   0.001536  -0.238788
     52      -0.003556   0.150309  -0.069222   0.002029  -0.134451   0.233827
     53       0.000207   0.147314  -0.115423   0.015543  -0.167047   0.264661
     54       0.028774  -0.005957   0.000246  -0.032718  -0.026164  -0.070746
     55       0.111387   0.000116   0.052216  -0.074792  -0.135059   0.015472
     56      -0.072946   0.000696   0.029902  -0.028646   0.009094   0.036186
     57      -0.020488   0.091429   0.005137  -0.028513  -0.076092  -0.039864
     58      -0.019018  -0.007447   0.038650  -0.076462  -0.109711   0.000940
     59       0.027171   0.005923  -0.015807   0.010454   0.099667   0.034737
     60       0.012992  -0.024700  -0.048490   0.064949  -0.030624  -0.072641
     61       0.165576   0.022975   0.099607  -0.175652  -0.113934   0.028107
     62      -0.079257   0.013850   0.074025  -0.112308  -0.001139   0.029004
     63      -0.069087  -0.074786  -0.139060   0.190039  -0.030627  -0.063647
     64      -0.012229  -0.100282  -0.103515   0.075379  -0.107337   0.066169
     65       0.058757   0.016334  -0.047410   0.333167  -0.077649  -0.049420
     66       0.689166  -0.039697  -0.072191   0.085128  -0.032641  -0.059089
     67      -0.437568  -0.048994  -0.021774  -0.005571  -0.116962   0.033386
     68      -0.245656   0.009539  -0.009520   0.159984  -0.036577  -0.010824
     69      -0.222182  -0.073813  -0.115491   0.167313  -0.043891  -0.085640
     70       0.008480  -0.092243  -0.105493   0.204289  -0.157496   0.001937
     71       0.150631   0.018477  -0.060800   0.387245  -0.086460  -0.057847
     72       0.042749  -0.058326  -0.103932   0.021949   0.055396   0.021328
     73       0.009456  -0.169793  -0.069043  -0.038792   0.041352   0.054529
     74      -0.047969  -0.022380   0.025221   0.068859   0.127981   0.011595
     75       0.180428  -0.069723  -0.135575   0.101095   0.018449  -0.003737
     76       0.027103  -0.143171  -0.074142   0.005281  -0.010854   0.055433
     77      -0.203606  -0.011093   0.000469   0.167234   0.056844  -0.017261
     78       0.106209  -0.079067  -0.123739  -0.010669   0.096832   0.050447
     79       0.061402  -0.184841  -0.044096  -0.122014   0.102487   0.059234
     80      -0.076885  -0.015532   0.006300   0.117961   0.094273   0.012514
     81       0.001485  -0.019551   0.017195  -0.001499  -0.003624   0.081389
     82       0.001236   0.069337   0.063300  -0.053271   0.104252  -0.105663
     83       0.000382  -0.005548  -0.006748  -0.058006  -0.088433  -0.038229
     84       0.001495   0.070291  -0.014440   0.026258   0.000830   0.151671
     85       0.002246   0.041109   0.103052  -0.070052   0.175006  -0.205255
     86       0.002493  -0.098200   0.079297  -0.101035   0.036176  -0.249734
     87       0.000270  -0.031531   0.003316   0.020319   0.009837   0.186184
     88       0.000503  -0.035003   0.129639  -0.082668   0.201574  -0.229187
     89       0.000671   0.073470  -0.076581  -0.012844  -0.160205   0.163224
     90       0.002138   0.041552  -0.081122  -0.060341   0.091345   0.008420
     91       0.005639   0.094099  -0.306254  -0.050569   0.188744  -0.092693
     92      -0.003496   0.035484   0.130135   0.040032  -0.112459  -0.042236
     93       0.003013  -0.028337   0.156470   0.041209   0.071075   0.110840
     94       0.010722   0.022764   0.279699   0.273122   0.052512   0.017944
     95      -0.002853  -0.008825  -0.139886  -0.166129   0.016326   0.016273
     96       0.001260  -0.084869   0.038092  -0.019377  -0.006635   0.043267
     97       0.000876   0.183374   0.020378  -0.033130   0.057523  -0.061863
     98       0.001033   0.003936  -0.026440  -0.082429  -0.217139  -0.089420
     99       0.001763  -0.075089   0.024179   0.007309   0.026249   0.145969
    100       0.002221   0.168648   0.062691  -0.047589   0.150234  -0.173866
    101       0.000736   0.001488  -0.028063  -0.095180  -0.259127  -0.125107
    102       0.000430  -0.165087   0.064931  -0.044318  -0.014261  -0.014771
    103       0.000769   0.196580  -0.003688  -0.024605   0.007017  -0.001204
    104       0.000891   0.064427  -0.084333  -0.055150  -0.310508   0.052206
    105       0.000738  -0.061068   0.040311  -0.034426  -0.034505  -0.029482
    106       0.001375   0.267223  -0.028680  -0.012931  -0.019164   0.020173
    107       0.000209  -0.046500   0.019015  -0.115132  -0.177051  -0.233807
                 12         13         14         15         16         17    
      0       0.007624   0.022243  -0.015520  -0.048910  -0.008602  -0.039793
      1      -0.029697   0.002818   0.003005  -0.107154   0.120138  -0.036254
      2       0.054187  -0.001121   0.003324   0.007071  -0.013789   0.070491
      3       0.055609   0.015369  -0.003144  -0.046908   0.032122  -0.001747
      4      -0.030947   0.035379  -0.004541  -0.068138   0.104081  -0.033135
      5       0.077976  -0.027886   0.014642  -0.020758   0.017105   0.087552
      6       0.117998  -0.007240   0.014821  -0.010564   0.048049   0.059341
      7      -0.010085   0.031947  -0.004476   0.056601  -0.006254   0.005340
      8       0.030680  -0.011256   0.002344  -0.076715   0.034877   0.039016
      9       0.132040  -0.024608   0.018723   0.016450   0.018126   0.073602
     10       0.016612  -0.009453   0.002446   0.129840  -0.095201   0.033926
     11      -0.042951   0.034115  -0.021319  -0.101290   0.018397  -0.018713
     12       0.084642  -0.018060   0.004640  -0.003618  -0.008870   0.018193
     13       0.017926  -0.042788   0.006209   0.046487  -0.040168  -0.015933
     14      -0.068109   0.060873  -0.031238  -0.053575  -0.033888  -0.012228
     15       0.021156   0.007325  -0.012932  -0.036985  -0.021365  -0.040172
     16      -0.005898  -0.032298   0.006078  -0.071915   0.072697  -0.051215
     17      -0.018389   0.040449  -0.018649  -0.001526  -0.049988   0.037910
     18      -0.032027   0.034839  -0.021366  -0.024472  -0.021738  -0.017871
     19      -0.028708  -0.012259   0.015202  -0.065525   0.085223  -0.025056
     20       0.078015  -0.007651   0.005272  -0.017354   0.007300   0.053740
     21       0.045645   0.029152  -0.006451  -0.065137   0.049288  -0.015675
     22      -0.045134   0.064945  -0.010011  -0.115616   0.153172  -0.060410
     23       0.129333  -0.066807   0.032114  -0.008444   0.030634   0.129337
     24      -0.016070   0.014326  -0.024115  -0.046956  -0.048606  -0.076622
     25      -0.003150  -0.058610   0.011130  -0.114705   0.104766  -0.076311
     26      -0.039000   0.062030  -0.027681   0.023227  -0.085558   0.036801
     27       0.178554  -0.042736   0.032439   0.050955   0.018764   0.120739
     28       0.037489  -0.015692   0.004516   0.243468  -0.197846   0.083460
     29      -0.080041   0.048129  -0.031235  -0.152705   0.043054  -0.063195
     30      -0.032477   0.029829  -0.019989  -0.019157  -0.025177  -0.008633
     31      -0.027904  -0.130896   0.034862  -0.021633   0.002442   0.038450
     32       0.084267   0.016150  -0.005492  -0.075898  -0.004196  -0.086826
     33      -0.020796   0.051874  -0.015917  -0.018991   0.023940   0.145109
     34      -0.012945  -0.163537   0.028354  -0.005870  -0.230134  -0.076954
     35       0.071042   0.008627  -0.006254  -0.083554   0.020218  -0.155802
     36      -0.051730   0.014256  -0.022352  -0.025007  -0.066238  -0.065994
     37       0.018962  -0.132850   0.025603  -0.041848   0.019876   0.097787
     38       0.039477   0.009075  -0.001043  -0.062915  -0.050730  -0.179768
     39       0.003703   0.065767   0.064760  -0.042173  -0.042898   0.101950
     40      -0.070774  -0.196429  -0.113012   0.039872  -0.124766   0.004481
     41       0.029053  -0.015153  -0.021572  -0.050882   0.033821  -0.153576
     42       0.000817   0.077786   0.026739  -0.038565   0.051824   0.210323
     43       0.041706  -0.144038   0.134208  -0.042344  -0.391338  -0.187083
     44       0.045121   0.017477  -0.055875  -0.071315   0.188235   0.006923
     45      -0.060037   0.029163  -0.124895   0.009143   0.094857   0.239943
     46       0.000027  -0.172244   0.033446  -0.006417  -0.328503  -0.137123
     47       0.114765   0.001817   0.056827  -0.097694  -0.200797  -0.312457
     48       0.011592   0.116925   0.001192  -0.018918   0.015054   0.170483
     49      -0.144684  -0.277873  -0.177199   0.083743  -0.087319   0.047283
     50       0.100050   0.102162  -0.022195  -0.067827   0.053118  -0.126761
     51       0.030421   0.079947   0.151057  -0.056622  -0.130331   0.063207
     52      -0.118583  -0.271800  -0.089611   0.057684  -0.167956  -0.007654
     53      -0.070085  -0.157683  -0.025220  -0.010866  -0.000179  -0.153513
     54      -0.047234  -0.192631   0.041940   0.194977   0.149288  -0.100376
     55      -0.027449   0.065193   0.024084   0.118294   0.103747  -0.063077
     56       0.130300   0.057396   0.029251   0.359470   0.011500  -0.011878
     57      -0.047026   0.069772  -0.025213  -0.001140   0.000571   0.016215
     58      -0.042712   0.035340   0.017015  -0.015832   0.082448  -0.086999
     59       0.076663  -0.019017   0.001614  -0.037424   0.023333   0.117155
     60      -0.014943  -0.165635   0.022509   0.067936   0.095006  -0.067164
     61      -0.058343   0.074621   0.026629   0.126542   0.091709  -0.033865
     62       0.101110   0.003754   0.060389   0.570553   0.114426  -0.092992
     63       0.061597  -0.091563  -0.002147  -0.013314   0.037851  -0.050826
     64       0.156863   0.277494  -0.033394   0.011644  -0.061897   0.003947
     65       0.063640  -0.084502   0.015451  -0.052300   0.002054   0.025553
     66       0.020142  -0.120234   0.014438   0.092249   0.079273  -0.054773
     67       0.053214   0.148392   0.000009   0.064831   0.037463  -0.053708
     68       0.097042  -0.023174   0.023318   0.146716   0.009915   0.000692
     69       0.138482  -0.181840   0.018930   0.031204   0.066975  -0.079293
     70       0.215986   0.097170  -0.013721  -0.122046  -0.039649  -0.004892
     71       0.039451  -0.092528   0.010108  -0.120070  -0.006795   0.038590
     72      -0.239540   0.248942  -0.051785   0.088870  -0.068066  -0.105996
     73      -0.042953  -0.012701   0.030487  -0.018562   0.107465   0.158948
     74      -0.393755  -0.008795   0.024561   0.014165   0.046360   0.058447
     75      -0.103474   0.149970  -0.038576   0.048377  -0.036234  -0.069801
     76       0.009722   0.066603   0.010978  -0.006981   0.046969   0.110327
     77      -0.238305  -0.055676   0.026396  -0.015140   0.038341   0.040301
     78      -0.274157   0.171200  -0.029155   0.092855  -0.004749   0.045148
     79      -0.155588   0.010092   0.030804  -0.007337   0.121007   0.133005
     80      -0.325550  -0.034900   0.027530   0.007311   0.046421   0.095809
     81      -0.020671  -0.026994   0.096833  -0.079621  -0.071359  -0.025305
     82       0.050162   0.003475  -0.172681  -0.012837   0.012607   0.025159
     83       0.013119  -0.008817  -0.026910  -0.013727   0.008905  -0.072777
     84      -0.034765   0.040003   0.322629  -0.143162  -0.084055  -0.112006
     85       0.101894   0.080180  -0.210603  -0.033757   0.076737   0.026928
     86       0.112464   0.096698  -0.201831  -0.020958   0.129302  -0.027503
     87      -0.031552  -0.119101   0.024512  -0.084318  -0.070608  -0.109289
     88       0.121755   0.010626  -0.414377  -0.000264   0.107735   0.039225
     89      -0.058752  -0.098222   0.116981  -0.028834  -0.073034  -0.160188
     90       0.095314  -0.031400   0.007052   0.011883  -0.026859   0.020011
     91       0.039342  -0.075171   0.010406   0.088656  -0.094036  -0.016364
     92      -0.127016   0.096184  -0.048866  -0.063327  -0.056526  -0.051260
     93       0.156210  -0.012229   0.026017   0.000160   0.078822   0.095475
     94      -0.010167   0.059111  -0.008843   0.105327  -0.032288   0.021322
     95       0.050149  -0.032919   0.011124  -0.105704   0.069052   0.046232
     96      -0.012455  -0.091341  -0.089145  -0.031181  -0.066946   0.037855
     97       0.014914   0.105375   0.156405  -0.066460  -0.043692   0.001643
     98      -0.040444  -0.024104   0.012709   0.062129  -0.106008   0.136162
     99      -0.016528  -0.134107  -0.062310  -0.068804  -0.058272  -0.121708
    100       0.082667   0.212892   0.102620  -0.099736   0.088959   0.003690
    101      -0.054141  -0.023745   0.009210   0.092922  -0.142860   0.232669
    102      -0.002404  -0.166874  -0.325301   0.035214  -0.063699   0.139065
    103      -0.022125   0.054455   0.201565  -0.052057  -0.115898  -0.000908
    104      -0.115671  -0.088495   0.202748   0.060553  -0.245848   0.086900
    105      -0.012635  -0.020956  -0.018578  -0.022962  -0.076454   0.146206
    106      -0.041113   0.125020   0.412525  -0.087826  -0.146517  -0.014520
    107       0.008798   0.028394  -0.143022   0.089022  -0.024870   0.257726
                 18         19         20         21         22         23    
      0       0.097368   0.048259   0.070645  -0.052912  -0.023134  -0.009506
      1      -0.140300   0.059938   0.027400   0.019320   0.008508   0.017372
      2      -0.067608  -0.079893  -0.006619  -0.004559   0.001124   0.011305
      3      -0.007333   0.023981   0.089818  -0.049215  -0.021753  -0.013223
      4      -0.127302   0.087063   0.080638   0.055224   0.012851  -0.014281
      5      -0.128911  -0.117946  -0.029257  -0.029760  -0.002044   0.034273
      6      -0.091580  -0.043407   0.041659  -0.032008  -0.009107   0.013560
      7      -0.027339  -0.009117   0.015654   0.008074   0.000107  -0.010228
      8      -0.101974  -0.051467   0.023987  -0.035596  -0.009184   0.019163
      9      -0.066000  -0.078400   0.006775  -0.054249  -0.013409   0.028292
     10       0.058025  -0.096016  -0.069245  -0.063028  -0.016590   0.024076
     11      -0.019973   0.014611   0.106909  -0.056117  -0.025454  -0.011664
     12       0.032731  -0.005316   0.056917  -0.042405  -0.016908   0.000966
     13       0.028182   0.013472   0.033009  -0.011368  -0.008539  -0.011632
     14       0.049761  -0.024777   0.060261  -0.086638  -0.032842   0.000128
     15       0.113750   0.054847   0.100066  -0.051829  -0.025916  -0.020807
     16      -0.080160   0.088573   0.091797   0.030417   0.004318  -0.013836
     17       0.016743  -0.083711   0.010426  -0.079629  -0.025604   0.016367
     18       0.088397   0.007867   0.019295  -0.047690  -0.012126   0.027214
     19      -0.129798   0.003100  -0.059539  -0.048295  -0.008348   0.054065
     20      -0.048213  -0.039679   0.028884   0.053091   0.013018  -0.031770
     21      -0.018616   0.044318   0.111645  -0.034690  -0.019267  -0.019751
     22      -0.165040   0.129741   0.137871   0.091583   0.019594  -0.018929
     23      -0.206745  -0.174682  -0.073128  -0.043385  -0.000091   0.053435
     24       0.184171   0.086420   0.145043  -0.085944  -0.042424  -0.036194
     25      -0.100713   0.137392   0.132974   0.056721   0.010051  -0.027540
     26       0.066515  -0.100826   0.003943  -0.113565  -0.037361   0.018000
     27      -0.118876  -0.145208  -0.052674  -0.056217  -0.007451   0.050956
     28       0.146103  -0.216268  -0.177720  -0.127633  -0.029871   0.059624
     29      -0.005140   0.089985   0.173880  -0.038376  -0.026082  -0.035825
     30       0.084026   0.009982   0.003932  -0.041749  -0.008838   0.025807
     31      -0.088163   0.048527  -0.146965  -0.110780  -0.029265   0.007118
     32       0.022891  -0.004588   0.047857   0.111478   0.022873  -0.034497
     33       0.006446   0.018943  -0.045257   0.044797   0.025720  -0.003085
     34      -0.045624   0.002338   0.072006  -0.012310  -0.025654   0.005631
     35       0.068427   0.006892  -0.021864   0.054576   0.010743  -0.018932
     36       0.142930   0.027462   0.020283  -0.042601  -0.014756   0.042804
     37      -0.119475   0.174115  -0.211815  -0.168832  -0.041266  -0.067961
     38       0.072405  -0.079480   0.104575   0.145928   0.024961   0.020503
     39      -0.008422   0.032172  -0.070671   0.030270   0.029758   0.000156
     40      -0.008320   0.002642   0.019917   0.031350  -0.017672   0.002930
     41       0.095205   0.028663  -0.177386  -0.022629   0.002502   0.011686
     42      -0.047996   0.021794  -0.051240   0.067754   0.037531  -0.015712
     43      -0.059249  -0.016819   0.209188  -0.009568  -0.030952   0.003866
     44       0.026651   0.025795  -0.146650   0.074707   0.027068  -0.030001
     45       0.014618   0.003068  -0.028426   0.122202   0.039560  -0.018528
     46      -0.029193  -0.017847   0.189110   0.018906  -0.027814   0.002402
     47       0.093632  -0.023150   0.189463   0.073445  -0.000771  -0.017144
     48      -0.007726   0.037905  -0.108319  -0.003091   0.057710   0.011316
     49       0.012729   0.002773  -0.023120   0.057275  -0.054236   0.010139
     50       0.076442   0.033941  -0.171640  -0.074494   0.059296   0.015285
     51      -0.038769   0.035390  -0.058298  -0.022301   0.032377   0.010578
     52      -0.012184   0.001646   0.015249   0.038083  -0.056267   0.010143
     53       0.102855   0.024748  -0.187928   0.017249  -0.067047   0.018669
     54      -0.007440  -0.093121   0.013807   0.028688   0.005842  -0.016781
[...]
     72       0.000448  -0.000697   0.000917  -0.000384  -0.007509  -0.000528
     73       0.000905  -0.000478   0.000804   0.001722   0.032508   0.001297
     74      -0.000654   0.001153  -0.001338   0.002649   0.051211   0.002092
     75      -0.013296   0.013272  -0.019269  -0.001154  -0.008683   0.005919
     76      -0.014536   0.014935  -0.020591   0.000080   0.006356   0.001321
     77       0.018488  -0.019444   0.027204   0.002241   0.025433   0.003076
     78      -0.004900   0.000841  -0.004686   0.006825   0.127626   0.006241
     79       0.009129  -0.008526   0.014004  -0.027564  -0.524218  -0.021954
     80      -0.000898  -0.005661   0.004319  -0.044044  -0.836472  -0.035024
     81       0.000175  -0.000066   0.000183  -0.000010  -0.000012  -0.000002
     82      -0.000023  -0.000028  -0.000060  -0.000023  -0.000033  -0.000023
     83      -0.000466   0.000215  -0.000491   0.000020   0.000005   0.000020
     84       0.000867  -0.000469   0.000852  -0.000105  -0.000125  -0.000126
     85      -0.002984   0.001604  -0.002850   0.000310   0.000362   0.000258
     86       0.001631  -0.000988   0.001571  -0.000197  -0.000256  -0.000242
     87      -0.002994   0.001104  -0.003209   0.000175   0.000106   0.000020
     88       0.003255  -0.001228   0.003626  -0.000152   0.000026  -0.000003
     89       0.003684  -0.001406   0.004203  -0.000165   0.000084  -0.000053
     90      -0.142032  -0.002200  -0.022677   0.000073  -0.000050   0.000199
     91       0.050396   0.001011   0.008064  -0.000019  -0.000030  -0.000071
     92      -0.007448   0.000256  -0.001071   0.000074  -0.000066   0.000018
     93       0.106777   0.063616  -0.002549  -0.000001   0.000178   0.000117
     94      -0.147968  -0.087706   0.002458   0.000019  -0.000295  -0.000131
     95      -0.208948  -0.123546   0.003024   0.000063  -0.000434  -0.000133
     96      -0.000107   0.000060  -0.000096  -0.000005  -0.000010   0.000000
     97      -0.000184   0.000079  -0.000185  -0.000014  -0.000013  -0.000006
     98      -0.000184   0.000104  -0.000180   0.000003   0.000005   0.000002
     99       0.002203  -0.001206   0.002085   0.000083   0.000128  -0.000012
    100       0.000883  -0.000492   0.000863   0.000037   0.000077   0.000005
    101       0.003476  -0.001840   0.003290   0.000024   0.000055  -0.000025
    102      -0.000443   0.000175  -0.000384   0.000040   0.000035   0.000021
    103       0.001576  -0.000586   0.001478   0.000087   0.000095   0.000095
    104      -0.000925   0.000370  -0.000882  -0.000041  -0.000018  -0.000045
    105      -0.000089   0.000031  -0.000235   0.000046  -0.000036  -0.000020
    106      -0.000052  -0.000023   0.000079   0.000006   0.000066   0.000008
    107      -0.000045   0.000010   0.000067  -0.000015   0.000075   0.000020


-----------
IR SPECTRUM  
-----------

 Mode    freq (cm**-1)   T**2         TX         TY         TZ
-------------------------------------------------------------------
   8:        44.98    0.000000  (  0.000000   0.000000   0.000000)
   9:        46.34    0.000000  (  0.000000   0.000000   0.000000)
  10:        58.96    0.000000  (  0.000000   0.000000   0.000000)
  11:        72.40    0.000000  (  0.000000   0.000000   0.000000)
  12:        82.33    0.000000  (  0.000000   0.000000   0.000000)
  13:        89.16    0.000000  (  0.000000   0.000000   0.000000)
  14:       108.46    0.000000  (  0.000000   0.000000   0.000000)
  15:       114.84    0.000000  (  0.000000   0.000000   0.000000)
  16:       151.10    0.000000  (  0.000000   0.000000   0.000000)
  17:       164.88    0.000000  (  0.000000   0.000000   0.000000)
  18:       178.87    0.000000  (  0.000000   0.000000   0.000000)
  19:       212.86    0.000000  (  0.000000   0.000000   0.000000)
  20:       243.59    0.000000  (  0.000000   0.000000   0.000000)
  21:       269.64    0.000000  (  0.000000   0.000000   0.000000)
  22:       272.88    0.000000  (  0.000000   0.000000   0.000000)
  23:       303.02    0.000000  (  0.000000   0.000000   0.000000)
  24:       329.93    0.000000  (  0.000000   0.000000   0.000000)
  25:       367.77    0.000000  (  0.000000   0.000000   0.000000)
  26:       376.78    0.000000  (  0.000000   0.000000   0.000000)
  27:       402.17    0.000000  (  0.000000   0.000000   0.000000)
  28:       430.93    0.000000  (  0.000000   0.000000   0.000000)
  29:       473.80    0.000000  (  0.000000   0.000000   0.000000)
  30:       501.63    0.000000  (  0.000000   0.000000   0.000000)
  31:       527.11    0.000000  (  0.000000   0.000000   0.000000)
  32:       545.60    0.000000  (  0.000000   0.000000   0.000000)
  33:       588.55    0.000000  (  0.000000   0.000000   0.000000)
  34:       605.78    0.000000  (  0.000000   0.000000   0.000000)
  35:       619.61    0.000000  (  0.000000   0.000000   0.000000)
  36:       630.11    0.000000  (  0.000000   0.000000   0.000000)
  37:       662.64    0.000000  (  0.000000   0.000000   0.000000)
  38:       714.19    0.000000  (  0.000000   0.000000   0.000000)
  39:       756.10    0.000000  (  0.000000   0.000000   0.000000)
  40:       771.63    0.000000  (  0.000000   0.000000   0.000000)
  41:       784.70    0.000000  (  0.000000   0.000000   0.000000)
  42:       804.27    0.000000  (  0.000000   0.000000   0.000000)
  43:       820.54    0.000000  (  0.000000   0.000000   0.000000)
  44:       854.44    0.000000  (  0.000000   0.000000   0.000000)
  45:       870.69    0.000000  (  0.000000   0.000000   0.000000)
  46:       908.72    0.000000  (  0.000000   0.000000   0.000000)
  47:       929.19    0.000000  (  0.000000   0.000000   0.000000)
  48:       937.68    0.000000  (  0.000000   0.000000   0.000000)
  49:       944.58    0.000000  (  0.000000   0.000000   0.000000)
  50:       946.36    0.000000  (  0.000000   0.000000   0.000000)
  51:       961.95    0.000000  (  0.000000   0.000000   0.000000)
  52:       985.90    0.000000  (  0.000000   0.000000   0.000000)
  53:      1034.99    0.000000  (  0.000000   0.000000   0.000000)
  54:      1062.20    0.000000  (  0.000000   0.000000   0.000000)
  55:      1070.59    0.000000  (  0.000000   0.000000   0.000000)
  56:      1080.40    0.000000  (  0.000000   0.000000   0.000000)
  57:      1106.14    0.000000  (  0.000000   0.000000   0.000000)
  58:      1110.81    0.000000  (  0.000000   0.000000   0.000000)
  59:      1123.98    0.000000  (  0.000000   0.000000   0.000000)
  60:      1132.59    0.000000  (  0.000000   0.000000   0.000000)
  61:      1179.26    0.000000  (  0.000000   0.000000   0.000000)
  62:      1180.92    0.000000  (  0.000000   0.000000   0.000000)
  63:      1204.10    0.000000  (  0.000000   0.000000   0.000000)
  64:      1213.66    0.000000  (  0.000000   0.000000   0.000000)
  65:      1246.05    0.000000  (  0.000000   0.000000   0.000000)
  66:      1255.89    0.000000  (  0.000000   0.000000   0.000000)
  67:      1273.78    0.000000  (  0.000000   0.000000   0.000000)
  68:      1276.34    0.000000  (  0.000000   0.000000   0.000000)
  69:      1276.90    0.000000  (  0.000000   0.000000   0.000000)
  70:      1293.36    0.000000  (  0.000000   0.000000   0.000000)
  71:      1306.24    0.000000  (  0.000000   0.000000   0.000000)
  72:      1318.43    0.000000  (  0.000000   0.000000   0.000000)
  73:      1337.82    0.000000  (  0.000000   0.000000   0.000000)
  74:      1369.83    0.000000  (  0.000000   0.000000   0.000000)
  75:      1420.40    0.000000  (  0.000000   0.000000   0.000000)
  76:      1428.52    0.000000  (  0.000000   0.000000   0.000000)
  77:      1447.84    0.000000  (  0.000000   0.000000   0.000000)
  78:      1453.37    0.000000  (  0.000000   0.000000   0.000000)
  79:      1486.40    0.000000  (  0.000000   0.000000   0.000000)
  80:      1494.94    0.000000  (  0.000000   0.000000   0.000000)
  81:      1503.32    0.000000  (  0.000000   0.000000   0.000000)
  82:      1506.36    0.000000  (  0.000000   0.000000   0.000000)
  83:      1510.62    0.000000  (  0.000000   0.000000   0.000000)
  84:      1541.89    0.000000  (  0.000000   0.000000   0.000000)
  85:      1562.06    0.000000  (  0.000000   0.000000   0.000000)
  86:      1565.69    0.000000  (  0.000000   0.000000   0.000000)
  87:      1602.79    0.000000  (  0.000000   0.000000   0.000000)
  88:      2414.73    0.000000  (  0.000000   0.000000   0.000000)
  89:      2945.78    0.000000  (  0.000000   0.000000   0.000000)
  90:      2963.36    0.000000  (  0.000000   0.000000   0.000000)
  91:      2968.45    0.000000  (  0.000000   0.000000   0.000000)
  92:      2973.33    0.000000  (  0.000000   0.000000   0.000000)
  93:      2981.74    0.000000  (  0.000000   0.000000   0.000000)
  94:      2982.48    0.000000  (  0.000000   0.000000   0.000000)
  95:      2989.59    0.000000  (  0.000000   0.000000   0.000000)
  96:      3000.91    0.000000  (  0.000000   0.000000   0.000000)
  97:      3009.50    0.000000  (  0.000000   0.000000   0.000000)
  98:      3059.22    0.000000  (  0.000000   0.000000   0.000000)
  99:      3062.41    0.000000  (  0.000000   0.000000   0.000000)
 100:      3069.49    0.000000  (  0.000000   0.000000   0.000000)
 101:      3077.55    0.000000  (  0.000000   0.000000   0.000000)
 102:      3084.76    0.000000  (  0.000000   0.000000   0.000000)
 103:      3090.18    0.000000  (  0.000000   0.000000   0.000000)
 104:      3113.54    0.000000  (  0.000000   0.000000   0.000000)
 105:      3600.68    0.000000  (  0.000000   0.000000   0.000000)
 106:      3603.75    0.000000  (  0.000000   0.000000   0.000000)
 107:      3626.83    0.000000  (  0.000000   0.000000   0.000000)

The first frequency considered to be a vibration is 8
The total number of vibrations considered is 100


--------------------------
THERMOCHEMISTRY AT 298.15K
--------------------------

Temperature         ... 298.15 K
Pressure            ... 1.00 atm
Total Mass          ... 215.29 AMU

Throughout the following assumptions are being made:
  (1) The electronic state is orbitally nondegenerate
  (2) There are no thermally accessible electronically excited states
  (3) Hindered rotations indicated by low frequency modes are not
      treated as such but are treated as vibrations and this may
      cause some error
  (4) All equations used are the standard statistical mechanics
      equations for an ideal gas
  (5) All vibrations are strictly harmonic

freq.      44.98  E(vib)   ...       0.53 
freq.      46.34  E(vib)   ...       0.53 
freq.      58.96  E(vib)   ...       0.51 
freq.      72.40  E(vib)   ...       0.50 
freq.      82.33  E(vib)   ...       0.48 
freq.      89.16  E(vib)   ...       0.47 
freq.     108.46  E(vib)   ...       0.45 
freq.     114.84  E(vib)   ...       0.44 
freq.     151.10  E(vib)   ...       0.40 
freq.     164.88  E(vib)   ...       0.39 
freq.     178.87  E(vib)   ...       0.37 
freq.     212.86  E(vib)   ...       0.34 
freq.     243.59  E(vib)   ...       0.31 
freq.     269.64  E(vib)   ...       0.29 
freq.     272.88  E(vib)   ...       0.29 
freq.     303.02  E(vib)   ...       0.26 
freq.     329.93  E(vib)   ...       0.24 
freq.     367.77  E(vib)   ...       0.21 
freq.     376.78  E(vib)   ...       0.21 
freq.     402.17  E(vib)   ...       0.19 
freq.     430.93  E(vib)   ...       0.18 
freq.     473.80  E(vib)   ...       0.15 
freq.     501.63  E(vib)   ...       0.14 
freq.     527.11  E(vib)   ...       0.13 
freq.     545.60  E(vib)   ...       0.12 
freq.     588.55  E(vib)   ...       0.10 
freq.     605.78  E(vib)   ...       0.10 
freq.     619.61  E(vib)   ...       0.09 
freq.     630.11  E(vib)   ...       0.09 
freq.     662.64  E(vib)   ...       0.08 
freq.     714.19  E(vib)   ...       0.07 
freq.     756.10  E(vib)   ...       0.06 
freq.     771.63  E(vib)   ...       0.05 
freq.     784.70  E(vib)   ...       0.05 
freq.     804.27  E(vib)   ...       0.05 
freq.     820.54  E(vib)   ...       0.05 
freq.     854.44  E(vib)   ...       0.04 
freq.     870.69  E(vib)   ...       0.04 
freq.     908.72  E(vib)   ...       0.03 
freq.     929.19  E(vib)   ...       0.03 
freq.     937.68  E(vib)   ...       0.03 
freq.     944.58  E(vib)   ...       0.03 
freq.     946.36  E(vib)   ...       0.03 
freq.     961.95  E(vib)   ...       0.03 
freq.     985.90  E(vib)   ...       0.02 
freq.    1034.99  E(vib)   ...       0.02 
freq.    1062.20  E(vib)   ...       0.02 
freq.    1070.59  E(vib)   ...       0.02 
freq.    1080.40  E(vib)   ...       0.02 
freq.    1106.14  E(vib)   ...       0.02 
freq.    1110.81  E(vib)   ...       0.01 
freq.    1123.98  E(vib)   ...       0.01 
freq.    1132.59  E(vib)   ...       0.01 
freq.    1179.26  E(vib)   ...       0.01 
freq.    1180.92  E(vib)   ...       0.01 
freq.    1204.10  E(vib)   ...       0.01 
freq.    1213.66  E(vib)   ...       0.01 
freq.    1246.05  E(vib)   ...       0.01 
freq.    1255.89  E(vib)   ...       0.01 
freq.    1273.78  E(vib)   ...       0.01 
freq.    1276.34  E(vib)   ...       0.01 
freq.    1276.90  E(vib)   ...       0.01 
freq.    1293.36  E(vib)   ...       0.01 
freq.    1306.24  E(vib)   ...       0.01 
freq.    1318.43  E(vib)   ...       0.01 
freq.    1337.82  E(vib)   ...       0.01 
freq.    1369.83  E(vib)   ...       0.01 
freq.    1420.40  E(vib)   ...       0.00 
freq.    1428.52  E(vib)   ...       0.00 
freq.    1447.84  E(vib)   ...       0.00 
freq.    1453.37  E(vib)   ...       0.00 
freq.    1486.40  E(vib)   ...       0.00 
freq.    1494.94  E(vib)   ...       0.00 
freq.    1503.32  E(vib)   ...       0.00 
freq.    1506.36  E(vib)   ...       0.00 
freq.    1510.62  E(vib)   ...       0.00 
freq.    1541.89  E(vib)   ...       0.00 
freq.    1562.06  E(vib)   ...       0.00 
freq.    1565.69  E(vib)   ...       0.00 
freq.    1602.79  E(vib)   ...       0.00 
freq.    2414.73  E(vib)   ...       0.00 
freq.    2945.78  E(vib)   ...       0.00 
freq.    2963.36  E(vib)   ...       0.00 
freq.    2968.45  E(vib)   ...       0.00 
freq.    2973.33  E(vib)   ...       0.00 
freq.    2981.74  E(vib)   ...       0.00 
freq.    2982.48  E(vib)   ...       0.00 
freq.    2989.59  E(vib)   ...       0.00 
freq.    3000.91  E(vib)   ...       0.00 
freq.    3009.50  E(vib)   ...       0.00 
freq.    3059.22  E(vib)   ...       0.00 
freq.    3062.41  E(vib)   ...       0.00 
freq.    3069.49  E(vib)   ...       0.00 
freq.    3077.55  E(vib)   ...       0.00 
freq.    3084.76  E(vib)   ...       0.00 
freq.    3090.18  E(vib)   ...       0.00 
freq.    3113.54  E(vib)   ...       0.00 
freq.    3600.68  E(vib)   ...       0.00 
freq.    3603.75  E(vib)   ...       0.00 
freq.    3626.83  E(vib)   ...       0.00 

------------
INNER ENERGY
------------

The inner energy is: U= E(el) + E(ZPE) + E(vib) + E(rot) + E(trans)
    E(el)   - is the total energy from the electronic structure calculation
              = E(kin-el) + E(nuc-el) + E(el-el) + E(nuc-nuc)
    E(ZPE)  - the the zero temperature vibrational energy from the frequency calculation
    E(vib)  - the the finite temperature correction to E(ZPE) due to population
              of excited vibrational states
    E(rot)  - is the rotational thermal energy
    E(trans)- is the translational thermal energy

Summary of contributions to the inner energy U:
Electronic energy                ...    -49.34272503 Eh
Zero point energy                ...      0.29630853 Eh     185.94 kcal/mol
Thermal vibrational correction   ...      0.01514199 Eh       9.50 kcal/mol
Thermal rotational correction    ...      0.00141627 Eh       0.89 kcal/mol
Thermal translational correction ...      0.00141627 Eh       0.89 kcal/mol
-----------------------------------------------------------------------
Total thermal energy                    -49.02844197 Eh


Summary of corrections to the electronic energy:
(perhaps to be used in another calculation)
Total thermal correction                  0.01797454 Eh      11.28 kcal/mol
Non-thermal (ZPE) correction              0.29630853 Eh     185.94 kcal/mol
-----------------------------------------------------------------------
Total correction                          0.31428307 Eh     197.22 kcal/mol


--------
ENTHALPY
--------

The enthalpy is H = U + kB*T
                kB is Boltzmann's constant
Total free energy                 ...    -49.02844197 Eh 
Thermal Enthalpy correction       ...      0.00094421 Eh       0.59 kcal/mol
-----------------------------------------------------------------------
Total Enthalpy                    ...    -49.02749776 Eh


Note: Only C1 symmetry has been detected, increase convergence thresholds 
      if your molecule has a higher symmetry. Symmetry factor of 1.0 is   
      used for the rotational entropy correction. 
 

Note: Rotational entropy computed according to Herzberg 
Infrared and Raman Spectra, Chapter V,1, Van Nostrand Reinhold, 1945 
Point Group:  C1, Symmetry Number:   1  
Rotational constants in cm-1:     0.028604     0.008387     0.007950 

Vibrational entropy computed according to the QRRHO of S. Grimme
Chem.Eur.J. 2012 18 9955


-------
ENTROPY
-------

The entropy contributions are T*S = T*(S(el)+S(vib)+S(rot)+S(trans))
     S(el)   - electronic entropy
     S(vib)  - vibrational entropy
     S(rot)  - rotational entropy
     S(trans)- translational entropy
The entropies will be listed as mutliplied by the temperature to get
units of energy

Electronic entropy                ...      0.00000000 Eh      0.00 kcal/mol
Vibrational entropy               ...      0.02671027 Eh     16.76 kcal/mol
Rotational entropy                ...      0.01572819 Eh      9.87 kcal/mol
Translational entropy             ...      0.01995728 Eh     12.52 kcal/mol
-----------------------------------------------------------------------
Final entropy term                ...      0.06239575 Eh     39.15 kcal/mol

In case the symmetry of your molecule has not been determined correctly
or in case you have a reason to use a different symmetry number we print 
out the resulting rotational entropy values for sn=1,12 :
 --------------------------------------------------------
|  sn= 1 | S(rot)=       0.01572819 Eh      9.87 kcal/mol|
|  sn= 2 | S(rot)=       0.01507374 Eh      9.46 kcal/mol|
|  sn= 3 | S(rot)=       0.01469090 Eh      9.22 kcal/mol|
|  sn= 4 | S(rot)=       0.01441928 Eh      9.05 kcal/mol|
|  sn= 5 | S(rot)=       0.01420859 Eh      8.92 kcal/mol|
|  sn= 6 | S(rot)=       0.01403645 Eh      8.81 kcal/mol|
|  sn= 7 | S(rot)=       0.01389090 Eh      8.72 kcal/mol|
|  sn= 8 | S(rot)=       0.01376482 Eh      8.64 kcal/mol|
|  sn= 9 | S(rot)=       0.01365362 Eh      8.57 kcal/mol|
|  sn=10 | S(rot)=       0.01355414 Eh      8.51 kcal/mol|
|  sn=11 | S(rot)=       0.01346415 Eh      8.45 kcal/mol|
|  sn=12 | S(rot)=       0.01338199 Eh      8.40 kcal/mol|
 --------------------------------------------------------


-------------------
GIBBS FREE ENERGY
-------------------

The Gibbs free energy is G = H - T*S

Total enthalpy                    ...    -49.02749776 Eh 
Total entropy correction          ...     -0.06239575 Eh    -39.15 kcal/mol
-----------------------------------------------------------------------
Final Gibbs free energy         ...    -49.08989350 Eh

For completeness - the Gibbs free energy minus the electronic energy
G-E(el)                           ...      0.25283153 Eh    158.65 kcal/mol


Total Time for Numerical Frequencies  :       148.151 sec
Time for Reference State(s)           :         0.190 sec
Time for Displacements                :       136.677 sec

Timings for individual modules:

Sum of individual times         ...        0.352 sec (=   0.006 min)
XTB module                      ...        0.352 sec (=   0.006 min) 100.0 %
                             ****ORCA TERMINATED NORMALLY****
TOTAL RUN TIME: 0 days 0 hours 2 minutes 28 seconds 956 msec
(SLURM) EXECUTION TIME: 148.990609083 seconds.
