(SLURM) JOB ID:         116

                                 *****************
                                 * O   R   C   A *
                                 *****************

           --- An Ab Initio, DFT and Semiempirical electronic structure package ---

                  #######################################################
                  #                        -***-                        #
                  #          Department of theory and spectroscopy      #
                  #               Directorship: Frank Neese             #
                  #        Max Planck Institute fuer Kohlenforschung    #
                  #                Kaiser Wilhelm Platz 1               #
                  #                 D-45470 Muelheim/Ruhr               #
                  #                      Germany                        #
                  #                                                     #
                  #                  All rights reserved                #
                  #                        -***-                        #
                  #######################################################


                         Program Version 4.2.1 -  RELEASE  -


 With contributions from (in alphabetic order):
   Daniel Aravena         : Magnetic Suceptibility
   Michael Atanasov       : Ab Initio Ligand Field Theory (pilot matlab implementation)
   Alexander A. Auer      : GIAO ZORA, VPT2
   Ute Becker             : Parallelization
   Giovanni Bistoni       : ED, misc. LED, open-shell LED, HFLD
   Martin Brehm           : Molecular dynamics
   Dmytro Bykov           : SCF Hessian
   Vijay G. Chilkuri      : MRCI spin determinant printing, contributions to CSF-ICE
   Dipayan Datta          : RHF DLPNO-CCSD density
   Achintya Kumar Dutta   : EOM-CC, STEOM-CC
   Dmitry Ganyushin       : Spin-Orbit,Spin-Spin,Magnetic field MRCI
   Miquel Garcia          : C-PCM Hessian, Gaussian charge scheme
   Yang Guo               : DLPNO-NEVPT2, CIM, IAO-localization
   Andreas Hansen         : Spin unrestricted coupled pair/coupled cluster methods
   Benjamin Helmich-Paris : CASSCF linear response (MC-RPA)
   Lee Huntington         : MR-EOM, pCC
   Robert Izsak           : Overlap fitted RIJCOSX, COSX-SCS-MP3, EOM
   Christian Kollmar      : KDIIS, OOCD, Brueckner-CCSD(T), CCSD density
   Simone Kossmann        : Meta GGA functionals, TD-DFT gradient, OOMP2, MP2 Hessian
   Martin Krupicka        : AUTO-CI
   Lucas Lang             : DCDCAS
   Dagmar Lenk            : GEPOL surface, SMD
   Dimitrios Liakos       : Extrapolation schemes; Compound Job, initial MDCI parallelization
   Dimitrios Manganas     : Further ROCIS development; embedding schemes
   Dimitrios Pantazis     : SARC Basis sets
   Taras Petrenko         : DFT Hessian,TD-DFT gradient, ASA, ECA, R-Raman, ABS, FL, XAS/XES, NRVS
   Peter Pinski           : DLPNO-MP2, DLPNO-MP2 Gradient
   Christoph Reimann      : Effective Core Potentials
   Marius Retegan         : Local ZFS, SOC
   Christoph Riplinger    : Optimizer, TS searches, QM/MM, DLPNO-CCSD(T), (RO)-DLPNO pert. Triples
   Tobias Risthaus        : Range-separated hybrids, TD-DFT gradient, RPA, STAB
   Michael Roemelt        : Original ROCIS implementation
   Masaaki Saitow         : Open-shell DLPNO-CCSD energy and density
   Barbara Sandhoefer     : DKH picture change effects
   Avijit Sen             : IP-ROCIS
   Kantharuban Sivalingam : CASSCF convergence, NEVPT2, FIC-MRCI
   Bernardo de Souza      : ESD, SOC TD-DFT
   Georgi Stoychev        : AutoAux, RI-MP2 NMR
   Willem Van den Heuvel  : Paramagnetic NMR
   Boris Wezisla          : Elementary symmetry handling
   Frank Wennmohs         : Technical directorship


 We gratefully acknowledge several colleagues who have allowed us to
 interface, adapt or use parts of their codes:
   Stefan Grimme, W. Hujo, H. Kruse,             : VdW corrections, initial TS optimization,
                  C. Bannwarth                     DFT functionals, gCP, sTDA/sTD-DF
   Ed Valeev, F. Pavosevic, A. Kumar             : LibInt (2-el integral package), F12 methods
   Garnet Chan, S. Sharma, J. Yang, R. Olivares  : DMRG
   Ulf Ekstrom                                   : XCFun DFT Library
   Mihaly Kallay                                 : mrcc  (arbitrary order and MRCC methods)
   Andreas Klamt, Michael Diedenhofen            : otool_cosmo (COSMO solvation model)
   Jiri Pittner, Ondrej Demel                    : Mk-CCSD
   Frank Weinhold                                : gennbo (NPA and NBO analysis)
   Christopher J. Cramer and Donald G. Truhlar   : smd solvation model
   Lars Goerigk                                  : TD-DFT with DH, B97 family of functionals
   V. Asgeirsson, H. Jonsson                     : NEB implementation
   FAccTs GmbH                                   : IRC, NEB, NEB-TS, Multilevel, MM, QM/MM, CI optimization
   S Lehtola, MJT Oliveira, MAL Marques          : LibXC Library


 Your calculation uses the libint2 library for the computation of 2-el integrals
 For citations please refer to: http://libint.valeyev.net

 Your ORCA version has been built with support for libXC version: 4.2.3
 For citations please refer to: https://tddft.org/programs/libxc/

 This ORCA versions uses:
   CBLAS   interface :  Fast vector & matrix operations
   LAPACKE interface :  Fast linear algebra routines
   SCALAPACK package :  Parallel linear algebra routines




***************************************
The coordinates will be read from file: init.xyz
***************************************


Your calculation utilizes the SMD solvation module
Please cite in your paper:
A.V. Marenich, C.J. Cramer, D.G. Truhlar J. Phys. Chem. B, 113, (2009), 6378 

Your calculation utilizes the semiempirical GFN2-xTB method
Please cite in your paper:
C. Bannwarth, Ehlert S., S. Grimme,  J. Chem. Theory Comput., 15, (2019), 1652.
   

----- Orbital basis set information -----
Your calculation utilizes the basis: def2-SVP
   F. Weigend and R. Ahlrichs, Phys. Chem. Chem. Phys. 7, 3297 (2005).

================================================================================
                                        WARNINGS
                       Please study these warnings very carefully!
================================================================================

WARNING: Gradients needed for Numerical Frequencies
  ===> : Setting RunTyp to EnGrad

WARNING: The environment variable RSH_COMMAND is not set!
  ===> : All Displacements for the Numerical Hessian calculation
         will be started on localhost

WARNING: Found dipole moment calculation with XTB calculation
  ===> : Switching off dipole moment calculation


INFO   : the flag for use of LIBINT has been found!

================================================================================
                                       INPUT FILE
================================================================================
NAME = /tmp/slurm-scratch/freq.116/freq.inp
|  1> ! XTB2 NumFreq
|  2> %maxcore 1450
|  3> 
|  4> * xyzfile 0 1 init.xyz
|  5> 
|  6> %cpcm
|  7>  smd true
|  8>  smdsolvent "ch2cl2"
|  9> end
| 10> %pal nprocs 8 end
| 11> 
| 12>                          ****END OF INPUT****
================================================================================

                     *******************************
                     * Energy+Gradient Calculation *
                     *******************************

      -----------------------------------------------------------      
     |                   =====================                   |     
     |                           x T B                           |     
     |                   =====================                   |     
     |                         S. Grimme                         |     
     |          Mulliken Center for Theoretical Chemistry        |     
     |                    University of Bonn                     |     
      -----------------------------------------------------------      

   * xtb version 6.3.0 (preview) compiled by 'ehlert@majestix' on 2020-01-15

   This program is distributed in the hope that it will be useful,
   but WITHOUT ANY WARRANTY; without even the implied warranty of
   MERCHANTABILITY or FITNESS FOR A PARTICULAR PURPOSE.
   
   FOR NON-COMMERCIAL, ACADEMIA USE ONLY.
   
   Cite this work as:
   * S. Grimme, C. Bannwarth, P. Shushkov, J. Chem. Theory Comput., 2017,
     13, 1989-2009. DOI: 10.1021/acs.jctc.7b00118
   * C. Bannwarth, S. Ehlert and S. Grimme., J. Chem. Theory Comput., 2019,
     15, 1652-1671. DOI: 10.1021/acs.jctc.8b01176
   * P. Pracht, E. Caldeweyher, S. Ehlert, S. Grimme, ChemRxiv, 2019, preprint.
     DOI: 10.26434/chemrxiv.8326202.v1
   * S. Grimme, S. Spicher unpublished
   
   for DFT-D4:
   * E. Caldeweyher, C. Bannwarth and S. Grimme, J. Chem. Phys., 2017,
     147, 034112. DOI: 10.1063/1.4993215
   * E. Caldeweyher, S. Ehlert, A. Hansen, H. Neugebauer, S. Spicher,
     C. Bannwarth and S. Grimme, J. Chem. Phys., 2019, 150, 154122.
     DOI: 10.1063/1.5090222
   
   for sTDA-xTB:
   * S. Grimme and C. Bannwarth, J. Chem. Phys., 2016, 145, 054103.
     DOI: 10.1063/1.4959605
   
   in the mass-spec context:
   * V. Asgeirsson, C. Bauer and S. Grimme, Chem. Sci., 2017, 8, 4879.
     DOI: 10.1039/c7sc00601b
   
   for metadynamics refer to:
   * S. Grimme, J. Chem. Theory Comput., 2019, 155, 2847-2862
     DOI: 10.1021/acs.jctc.9b00143
   
   with help from (in alphabetical order)
   C. Bannwarth, F. Bohle, G. Brandenburg, E. Caldeweyher, M. Checinski,
   S. Dohm, S. Ehlert, S. Ehrlich, F. März, H. Neugebauer, J. Pisarek,
   P. Pracht, P. Shushkov, and S. Spicher.
   
 * started run on 2020/08/22 at 01:31:22.715     

           -------------------------------------------------
          |                Calculation Setup                |
           -------------------------------------------------

          program call               : /opt/orca/otool_xtb /tmp/slurm-scratch/freq.116/freq_XTB.xyz --grad -c 0 -u 0 -P 8 --namespace /tmp/slurm-scratch/freq.116/freq --gbsa CH2Cl2
          hostname                   : headnode-pbs
          calculation namespace      : /tmp/slurm-scratch/freq.116/freq
          coordinate file            : /tmp/slurm-scratch/freq.116/freq_XTB.xyz
          omp threads                :                     8
          number of atoms            :                    49
          number of electrons        :                   112
          charge                     :                     0
          spin                       :                   0.0
          first test random number   :      0.93520574760273


molecular fragmentation (1/2 indicates fragments):
1111111111111111111112221111122222222222222221111
# atoms in fragment 1/2:    30    19
 fragment masses (1/2) :      179.26       91.15
CMA distance (Bohr)    :   9.196
constraining FC (au)   :  0.0500

########################################################################
# WARNING! Please study the warnings concerning your input carefully
#  - Process number higher than OMP_NUM_THREADS, I hope you know what you are doing.
########################################################################

           ------------------------------------------------- 
          |                 G F N 2 - x T B                 |
          | Geometry, Frequencies, Noncovalent interactions |
          |            JCTC 2019 parametrisation            |
           ------------------------------------------------- 
             k(s)              :                1.8500
             k(p)              :                2.2300
             k(d)              :                2.2300
             k(f)              :                2.0000
             kEN (H0ij)        :               -2.0000
             D4 a1             :                0.5200
             D4 a2             :                5.0000
             D4 s6             :                1.0000
             D4 s8             :                2.7000
             D4 s9             :                5.0000
             alphaj            :                2.0000

  Z AO/shell   Hii/eV     exponent
  1     Wed Apr 25 08:07:45 CEST 2018   EN: 2.200 GM2: 0.406  GM3: 0.0800  RAES: 1.40
     1s    -10.707211    1.230000
  6     Wed Apr 25 08:07:45 CEST 2018   EN: 2.550 GM2: 0.538  GM3: 0.1500  RAES: 3.00
     2s    -13.970922    2.096432
     2p    -10.063292    1.800000
  7     Wed Apr 25 08:07:45 CEST 2018   EN: 3.040 GM2: 0.461  GM3:-0.0640  RAES: 1.90
     2s    -16.686243    2.339881
     2p    -12.523956    2.014332
  8     Wed Apr 25 08:07:45 CEST 2018   EN: 3.440 GM2: 0.452  GM3:-0.0517  RAES: 1.80
     2s    -20.229985    2.439742
     2p    -15.503117    2.137023

 Solvent             : CH2Cl2
 Using internal parameter file: .param_gbsa2_CH2Cl2
 Gsolv ref. state (COSMO-RS): gsolv [1 M gas/solution]
 temperature (mdtemp)       :    298.150000000000     
 dielectric constant        :    8.93000000000000     
 rho                        :    1.33000000000000     
 mass                       :    84.9300000000000     
 surface tension            :    15.5689454083859     
 probe radius               :   0.719875900000000     
 Gshift (Eh)                :   4.440829173451759E-003
 c1                         :    1.49173776000000     
 soset                      :   0.000000000000000E+000
 HB correction              :  F
           ------------------------------------------------- 
          |        Self-Consistent Charge Iterations        |
           ------------------------------------------------- 

          ...................................................
          :                      SETUP                      :
          :.................................................:
          :  # basis functions                 106          :
          :  # atomic orbitals                 106          :
          :  # shells                           68          :
          :  # electrons                       112          :
          :  max. iterations                   250          :
          :  Hamiltonian                  GFN2-xTB          :
          :  GBSA solvation                   true          :
          :  PC potential                    false          :
          :  electronic temp.          300.0000000     K    :
          :  accuracy                    1.0000000          :
          :  -> integral cutoff          0.2500000E+02      :
          :  -> integral neglect         0.1000000E-07      :
          :  -> SCF convergence          0.1000000E-05 Eh   :
          :  -> wf. convergence          0.1000000E-03 e    :
          :  Broyden damping             0.4000000          :
          ...................................................
  Checking positiv definite overlap ...  done.
 

 iter      E             dE          RMSdq      gap      omega  full diag
   1    -62.1428153 -0.621428E+02  0.329E+00    3.80       0.0  T
   2    -62.2068862 -0.640710E-01  0.185E+00    3.81       1.0  T
   3    -62.2075783 -0.692075E-03  0.637E-01    3.66       1.0  T
   4    -62.2088653 -0.128700E-02  0.221E-01    3.65       1.0  T
   5    -62.2109606 -0.209526E-02  0.655E-02    3.64       1.0  T
   6    -62.2109954 -0.348610E-04  0.265E-02    3.64       1.0  T
   7    -62.2109968 -0.138340E-05  0.100E-02    3.64       1.4  T
   8    -62.2109985 -0.167903E-05  0.317E-03    3.64       4.5  T
   9    -62.2109987 -0.178703E-06  0.146E-03    3.64       9.8  T
  10    -62.2109987 -0.408372E-08  0.543E-04    3.64      26.3  T
  11    -62.2109987 -0.531774E-08  0.187E-04    3.64      76.4  T

   *** convergence criteria satisfied after 11 iterations ***

         #    Occupation            Energy/Eh            Energy/eV
      -------------------------------------------------------------
         1        2.0000           -0.7013243             -19.0840
       ...           ...                  ...                  ...
        50        2.0000           -0.4246476             -11.5552
        51        2.0000           -0.4209467             -11.4545
        52        2.0000           -0.4169662             -11.3462
        53        2.0000           -0.4067931             -11.0694
        54        2.0000           -0.4033615             -10.9760
        55        2.0000           -0.3776182             -10.2755
        56        2.0000           -0.3641879              -9.9101 (HOMO)
        57                         -0.2302594              -6.2657 (LUMO)
        58                         -0.2277809              -6.1982
        59                         -0.1031995              -2.8082
        60                         -0.0101269              -0.2756
        61                          0.0156605               0.4261
       ...                                ...                  ...
       106                          0.6437291              17.5168
      -------------------------------------------------------------
                  HL-Gap            0.1339286 Eh            3.6444 eV
             Fermi-level           -0.2972237 Eh           -8.0879 eV

 SCC (total)                   0 d,  0 h,  0 min,  0.122 sec
 SCC setup                      ...        0 min,  0.003 sec (  2.111%)
 Dispersion                     ...        0 min,  0.001 sec (  0.800%)
 integral evaluation            ...        0 min,  0.019 sec ( 15.421%)
 zeroth order Hamiltonian       ...        0 min,  0.000 sec (  0.017%)
 iterations                     ...        0 min,  0.078 sec ( 63.740%)
 molecular gradient             ...        0 min,  0.021 sec ( 17.187%)
 printout                       ...        0 min,  0.001 sec (  0.655%)

         :::::::::::::::::::::::::::::::::::::::::::::::::::::
         ::                     SUMMARY                     ::
         :::::::::::::::::::::::::::::::::::::::::::::::::::::
         :: total energy             -61.400623407410 Eh    ::
         :: total w/o Gsasa/hb       -61.375508973172 Eh    ::
         :: gradient norm              0.027092618374 Eh/a0 ::
         :: HOMO-LUMO gap              3.644382301213 eV    ::
         ::.................................................::
         :: SCC energy               -62.236113130390 Eh    ::
         :: -> isotropic ES            0.090201163432 Eh    ::
         :: -> anisotropic ES          0.003705274407 Eh    ::
         :: -> anisotropic XC          0.034920988046 Eh    ::
         :: -> dispersion             -0.038671901461 Eh    ::
         :: -> Gsolv                  -0.032463623850 Eh    ::
         ::    -> Gborn               -0.007349189612 Eh    ::
         ::    -> Gsasa               -0.029555263412 Eh    ::
         ::    -> Ghb                  0.000000000000 Eh    ::
         ::    -> Gshift               0.004440829173 Eh    ::
         :: repulsion energy           0.834892451173 Eh    ::
         :: add. restraining           0.000000000000 Eh    ::
         :::::::::::::::::::::::::::::::::::::::::::::::::::::

           -------------------------------------------------
          |                Property Printout                |
           -------------------------------------------------

    * Orbital Energies and Occupations

         #    Occupation            Energy/Eh            Energy/eV
      -------------------------------------------------------------
         1        2.0000           -0.7013243             -19.0840
       ...           ...                  ...                  ...
        44        2.0000           -0.4417504             -12.0206
        45        2.0000           -0.4384918             -11.9320
        46        2.0000           -0.4376332             -11.9086
        47        2.0000           -0.4354768             -11.8499
        48        2.0000           -0.4347466             -11.8301
        49        2.0000           -0.4249464             -11.5634
        50        2.0000           -0.4246476             -11.5552
        51        2.0000           -0.4209467             -11.4545
        52        2.0000           -0.4169662             -11.3462
        53        2.0000           -0.4067931             -11.0694
        54        2.0000           -0.4033615             -10.9760
        55        2.0000           -0.3776182             -10.2755
        56        2.0000           -0.3641879              -9.9101 (HOMO)
        57                         -0.2302594              -6.2657 (LUMO)
        58                         -0.2277809              -6.1982
        59                         -0.1031995              -2.8082
        60                         -0.0101269              -0.2756
        61                          0.0156605               0.4261
        62                          0.0283727               0.7721
        63                          0.0626180               1.7039
        64                          0.0843211               2.2945
        65                          0.0939703               2.5571
        66                          0.1011974               2.7537
        67                          0.1038718               2.8265
       ...                                ...                  ...
       106                          0.6437291              17.5168
      -------------------------------------------------------------
                  HL-Gap            0.1339286 Eh            3.6444 eV
             Fermi-level           -0.2972237 Eh           -8.0879 eV

     #   Z        covCN         q      C6AA      α(0)
     1   6 C      2.968    -0.014    28.364     8.736
     2   6 C      2.918    -0.036    28.901     8.816
     3   6 C      2.915    -0.032    28.805     8.801
     4   6 C      2.915    -0.031    28.783     8.798
     5   6 C      2.914    -0.029    28.726     8.789
     6   6 C      2.920    -0.036    28.903     8.816
     7   6 C      3.666     0.177    18.010     6.086
     8   1 H      0.926     0.044     2.400     2.422
     9   1 H      0.925     0.039     2.460     2.453
    10   1 H      0.925     0.041     2.439     2.442
    11   7 N      2.683    -0.291    27.493     7.787
    12   6 C      3.740     0.018    20.352     6.437
    13   1 H      0.859     0.186     1.178     1.700
    14   6 C      3.803    -0.070    21.835     6.653
    15   1 H      0.924     0.031     2.573     2.509
    16   1 H      0.924     0.012     2.854     2.642
    17   1 H      0.924     0.038     2.471     2.458
    18   1 H      0.924     0.044     2.396     2.421
    19   8 O      1.648    -0.503    22.953     6.467
    20   1 H      0.924     0.021     2.712     2.575
    21   1 H      0.805     0.302     0.716     1.330
    22   8 O      1.608    -0.620    25.677     6.839
    23   1 H      0.803     0.317     0.672     1.288
    24   1 H      0.805     0.287     0.762     1.371
    25   1 H      0.925     0.043     2.413     2.429
    26   1 H      0.925     0.039     2.467     2.456
    27   6 C      3.800    -0.053    21.523     6.605
    28   1 H      0.924     0.030     2.585     2.514
    29   1 H      0.924     0.032     2.553     2.499
    30   7 N      2.627    -0.379    29.787     8.106
    31   1 H      0.860     0.169     1.281     1.773
    32   1 H      0.860     0.138     1.482     1.907
    33   6 C      3.731     0.016    20.391     6.446
    34   1 H      0.924     0.030     2.585     2.514
    35   1 H      0.924     0.032     2.565     2.505
    36   6 C      3.800    -0.067    21.783     6.645
    37   1 H      0.924     0.030     2.588     2.516
    38   1 H      0.924     0.028     2.614     2.528
    39   6 C      3.799    -0.054    21.544     6.609
    40   1 H      0.924     0.031     2.575     2.510
    41   1 H      0.924     0.031     2.567     2.505
    42   6 C      3.749    -0.101    22.501     6.765
    43   1 H      0.924     0.034     2.527     2.486
    44   1 H      0.924     0.036     2.496     2.471
    45   1 H      0.924     0.034     2.526     2.485
    46   6 C      3.750    -0.103    22.540     6.771
    47   1 H      0.924     0.035     2.511     2.478
    48   1 H      0.924     0.037     2.488     2.466
    49   1 H      0.924     0.037     2.490     2.468

 Mol. C6AA /au·bohr⁶  :      19046.723950
 Mol. C8AA /au·bohr⁸  :     412737.971904
 Mol. α(0) /au        :        210.093801


Wiberg/Mayer (AO) data.
largest (>0.10) Wiberg bond orders for each atom
          total WBO             WBO to atom ...
     1  C   3.985        C    2 1.426    C    6 1.407    C    7 0.977    C    4 0.110
     2  C   3.991        C    3 1.434    C    1 1.426    H    8 0.967    C    5 0.111
     3  C   3.991        C    4 1.447    C    2 1.434    H   26 0.971    C    6 0.113
     4  C   3.991        C    3 1.447    C    5 1.431    H   10 0.971    C    1 0.110
     5  C   3.991        C    6 1.452    C    4 1.431    H   25 0.970    C    2 0.111
     6  C   3.990        C    5 1.452    C    1 1.407    H    9 0.969    C    3 0.113
     7  C   3.946        N   11 1.051    C    1 0.977    H   20 0.954    O   19 0.910
     8  H   0.998        C    2 0.967
     9  H   0.998        C    6 0.969
    10  H   0.998        C    4 0.971
    11  N   3.104        C    7 1.051    C   12 1.000    H   13 0.910
    12  C   3.982        C   14 1.004    N   11 1.000    H   15 0.973    H   16 0.969
    13  H   0.965        N   11 0.910
    14  C   3.994        C   27 1.007    C   12 1.004    H   18 0.976    H   17 0.974
    15  H   0.999        C   12 0.973
    16  H   1.000        C   12 0.969
    17  H   0.998        C   14 0.974
    18  H   0.998        C   14 0.976
    19  O   1.952        C    7 0.910    H   21 0.893
    20  H   0.999        C    7 0.954
    21  H   0.909        O   19 0.893
    22  O   1.825        H   24 0.917    H   23 0.856
    23  H   0.900        O   22 0.856
    24  H   0.918        O   22 0.917
    25  H   0.998        C    5 0.970
    26  H   0.998        C    3 0.971
    27  C   3.997        C   46 1.019    C   14 1.007    H   29 0.978    H   28 0.978
    28  H   0.999        C   27 0.978
    29  H   0.999        C   27 0.978
    30  N   3.031        C   33 1.021    H   32 0.967    H   31 0.942
    31  H   0.972        N   30 0.942
    32  H   0.981        N   30 0.967
    33  C   3.983        N   30 1.021    C   36 0.996    H   35 0.975    H   34 0.974
    34  H   0.999        C   33 0.974
    35  H   0.999        C   33 0.975
    36  C   3.996        C   39 1.007    C   33 0.996    H   37 0.977    H   38 0.977
    37  H   0.999        C   36 0.977
    38  H   0.999        C   36 0.977
    39  C   3.997        C   42 1.019    C   36 1.007    H   40 0.978    H   41 0.978
    40  H   0.999        C   39 0.978
    41  H   0.999        C   39 0.978
    42  C   3.996        C   39 1.019    H   43 0.988    H   45 0.988    H   44 0.987
    43  H   0.999        C   42 0.988
    44  H   0.998        C   42 0.987
    45  H   0.999        C   42 0.988
    46  C   3.996        C   27 1.019    H   47 0.988    H   49 0.988    H   48 0.987
    47  H   0.999        C   46 0.988
    48  H   0.998        C   46 0.987
    49  H   0.999        C   46 0.988

molecular dipole:
                 x           y           z       tot (Debye)
 q only:        0.249      -0.549      -0.043
   full:        0.241      -0.147      -0.128       0.788
molecular quadrupole (traceless):
                xx          xy          yy          xz          yz          zz
 q only:        5.816       5.611      -7.906       1.571       0.879       2.089
  q+dip:        3.897       0.913     -10.213       1.176      -0.036       6.315
   full:        6.023       3.189     -11.150       0.236      -0.709       5.126

           -------------------------------------------------
          |                Property Printout                |
           -------------------------------------------------

    * Orbital Energies and Occupations

         #    Occupation            Energy/Eh            Energy/eV
      -------------------------------------------------------------
         1        2.0000           -0.7013243             -19.0840
       ...           ...                  ...                  ...
        44        2.0000           -0.4417504             -12.0206
        45        2.0000           -0.4384918             -11.9320
        46        2.0000           -0.4376332             -11.9086
        47        2.0000           -0.4354768             -11.8499
        48        2.0000           -0.4347466             -11.8301
        49        2.0000           -0.4249464             -11.5634
        50        2.0000           -0.4246476             -11.5552
        51        2.0000           -0.4209467             -11.4545
        52        2.0000           -0.4169662             -11.3462
        53        2.0000           -0.4067931             -11.0694
        54        2.0000           -0.4033615             -10.9760
        55        2.0000           -0.3776182             -10.2755
        56        2.0000           -0.3641879              -9.9101 (HOMO)
        57                         -0.2302594              -6.2657 (LUMO)
        58                         -0.2277809              -6.1982
        59                         -0.1031995              -2.8082
        60                         -0.0101269              -0.2756
        61                          0.0156605               0.4261
        62                          0.0283727               0.7721
        63                          0.0626180               1.7039
        64                          0.0843211               2.2945
        65                          0.0939703               2.5571
        66                          0.1011974               2.7537
        67                          0.1038718               2.8265
       ...                                ...                  ...
       106                          0.6437291              17.5168
      -------------------------------------------------------------
                  HL-Gap            0.1339286 Eh            3.6444 eV
             Fermi-level           -0.2972237 Eh           -8.0879 eV

     #   Z        covCN         q      C6AA      α(0)
     1   6 C      2.968    -0.014    28.364     8.736
     2   6 C      2.918    -0.036    28.901     8.816
     3   6 C      2.915    -0.032    28.805     8.801
     4   6 C      2.915    -0.031    28.783     8.798
     5   6 C      2.914    -0.029    28.726     8.789
     6   6 C      2.920    -0.036    28.903     8.816
     7   6 C      3.666     0.177    18.010     6.086
     8   1 H      0.926     0.044     2.400     2.422
     9   1 H      0.925     0.039     2.460     2.453
    10   1 H      0.925     0.041     2.439     2.442
    11   7 N      2.683    -0.291    27.493     7.787
    12   6 C      3.740     0.018    20.352     6.437
    13   1 H      0.859     0.186     1.178     1.700
    14   6 C      3.803    -0.070    21.835     6.653
    15   1 H      0.924     0.031     2.573     2.509
    16   1 H      0.924     0.012     2.854     2.642
    17   1 H      0.924     0.038     2.471     2.458
    18   1 H      0.924     0.044     2.396     2.421
    19   8 O      1.648    -0.503    22.953     6.467
    20   1 H      0.924     0.021     2.712     2.575
    21   1 H      0.805     0.302     0.716     1.330
    22   8 O      1.608    -0.620    25.677     6.839
    23   1 H      0.803     0.317     0.672     1.288
    24   1 H      0.805     0.287     0.762     1.371
    25   1 H      0.925     0.043     2.413     2.429
    26   1 H      0.925     0.039     2.467     2.456
    27   6 C      3.800    -0.053    21.523     6.605
    28   1 H      0.924     0.030     2.585     2.514
    29   1 H      0.924     0.032     2.553     2.499
    30   7 N      2.627    -0.379    29.787     8.106
    31   1 H      0.860     0.169     1.281     1.773
    32   1 H      0.860     0.138     1.482     1.907
    33   6 C      3.731     0.016    20.391     6.446
    34   1 H      0.924     0.030     2.585     2.514
    35   1 H      0.924     0.032     2.565     2.505
    36   6 C      3.800    -0.067    21.783     6.645
    37   1 H      0.924     0.030     2.588     2.516
    38   1 H      0.924     0.028     2.614     2.528
    39   6 C      3.799    -0.054    21.544     6.609
    40   1 H      0.924     0.031     2.575     2.510
    41   1 H      0.924     0.031     2.567     2.505
    42   6 C      3.749    -0.101    22.501     6.765
    43   1 H      0.924     0.034     2.527     2.486
    44   1 H      0.924     0.036     2.496     2.471
    45   1 H      0.924     0.034     2.526     2.485
    46   6 C      3.750    -0.103    22.540     6.771
    47   1 H      0.924     0.035     2.511     2.478
    48   1 H      0.924     0.037     2.488     2.466
    49   1 H      0.924     0.037     2.490     2.468

 Mol. C6AA /au·bohr⁶  :      19046.723950
 Mol. C8AA /au·bohr⁸  :     412737.971904
 Mol. α(0) /au        :        210.093801


Wiberg/Mayer (AO) data.
largest (>0.10) Wiberg bond orders for each atom
          total WBO             WBO to atom ...
     1  C   3.985        C    2 1.426    C    6 1.407    C    7 0.977    C    4 0.110
     2  C   3.991        C    3 1.434    C    1 1.426    H    8 0.967    C    5 0.111
     3  C   3.991        C    4 1.447    C    2 1.434    H   26 0.971    C    6 0.113
     4  C   3.991        C    3 1.447    C    5 1.431    H   10 0.971    C    1 0.110
     5  C   3.991        C    6 1.452    C    4 1.431    H   25 0.970    C    2 0.111
     6  C   3.990        C    5 1.452    C    1 1.407    H    9 0.969    C    3 0.113
     7  C   3.946        N   11 1.051    C    1 0.977    H   20 0.954    O   19 0.910
     8  H   0.998        C    2 0.967
     9  H   0.998        C    6 0.969
    10  H   0.998        C    4 0.971
    11  N   3.104        C    7 1.051    C   12 1.000    H   13 0.910
    12  C   3.982        C   14 1.004    N   11 1.000    H   15 0.973    H   16 0.969
    13  H   0.965        N   11 0.910
    14  C   3.994        C   27 1.007    C   12 1.004    H   18 0.976    H   17 0.974
    15  H   0.999        C   12 0.973
    16  H   1.000        C   12 0.969
    17  H   0.998        C   14 0.974
    18  H   0.998        C   14 0.976
    19  O   1.952        C    7 0.910    H   21 0.893
    20  H   0.999        C    7 0.954
    21  H   0.909        O   19 0.893
    22  O   1.825        H   24 0.917    H   23 0.856
    23  H   0.900        O   22 0.856
    24  H   0.918        O   22 0.917
    25  H   0.998        C    5 0.970
    26  H   0.998        C    3 0.971
    27  C   3.997        C   46 1.019    C   14 1.007    H   29 0.978    H   28 0.978
    28  H   0.999        C   27 0.978
    29  H   0.999        C   27 0.978
    30  N   3.031        C   33 1.021    H   32 0.967    H   31 0.942
    31  H   0.972        N   30 0.942
    32  H   0.981        N   30 0.967
    33  C   3.983        N   30 1.021    C   36 0.996    H   35 0.975    H   34 0.974
    34  H   0.999        C   33 0.974
    35  H   0.999        C   33 0.975
    36  C   3.996        C   39 1.007    C   33 0.996    H   37 0.977    H   38 0.977
    37  H   0.999        C   36 0.977
    38  H   0.999        C   36 0.977
    39  C   3.997        C   42 1.019    C   36 1.007    H   40 0.978    H   41 0.978
    40  H   0.999        C   39 0.978
    41  H   0.999        C   39 0.978
    42  C   3.996        C   39 1.019    H   43 0.988    H   45 0.988    H   44 0.987
    43  H   0.999        C   42 0.988
    44  H   0.998        C   42 0.987
    45  H   0.999        C   42 0.988
    46  C   3.996        C   27 1.019    H   47 0.988    H   49 0.988    H   48 0.987
    47  H   0.999        C   46 0.988
    48  H   0.998        C   46 0.987
    49  H   0.999        C   46 0.988

molecular dipole:
                 x           y           z       tot (Debye)
 q only:        0.249      -0.549      -0.043
   full:        0.241      -0.147      -0.128       0.788
molecular quadrupole (traceless):
                xx          xy          yy          xz          yz          zz
 q only:        5.816       5.611      -7.906       1.571       0.879       2.089
  q+dip:        3.897       0.913     -10.213       1.176      -0.036       6.315
   full:        6.023       3.189     -11.150       0.236      -0.709       5.126


           -------------------------------------------------
          | TOTAL ENERGY              -61.400623407410 Eh   |
          | GRADIENT NORM               0.027092618374 Eh/α |
          | HOMO-LUMO GAP               3.644382301213 eV   |
           -------------------------------------------------

------------------------------------------------------------------------
 * finished run on 2020/08/22 at 01:31:22.912     
------------------------------------------------------------------------
 total:
 * wall-time:     0 d,  0 h,  0 min,  0.197 sec
 *  cpu-time:     0 d,  0 h,  0 min,  1.329 sec
 * ratio c/w:     6.745 speedup
 SCF:
 * wall-time:     0 d,  0 h,  0 min,  0.122 sec
 *  cpu-time:     0 d,  0 h,  0 min,  0.803 sec
 * ratio c/w:     6.562 speedup


-------------------------   --------------------
FINAL SINGLE POINT ENERGY       -61.400623407410
-------------------------   --------------------


----------------------------------------------------------------------------
                           ORCA NUMERICAL FREQUENCIES
                              (8-process run)
----------------------------------------------------------------------------

Number of atoms                ... 49
Central differences            ... used
Number of displacements        ... 294
Numerical increment            ... 5.000e-03 bohr
IR-spectrum generation         ... on
Raman-spectrum generation      ... off
Surface Crossing Hessian       ... off
List of participating nodes    ...  /tmp/slurm-scratch/freq.116/freq.hostnames

The output will be reduced. Please look at the following files:
SCF program output             ... >/tmp/slurm-scratch/freq.116/freq.lastscf
Integral program output        ... >/tmp/slurm-scratch/freq.116/freq.lastint
Gradient program output        ... >/tmp/slurm-scratch/freq.116/freq.lastgrad
Dipole moment program output   ... >/tmp/slurm-scratch/freq.116/freq.lastmom
AutoCI program output          ... >/tmp/slurm-scratch/freq.116/freq.lastautoci


         <<< Energy and Gradient at the input geometry >>>

        <<< Energy and Gradient at displaced geometries >>>
             <<<Displacing   1/coordinate 3 (+)>>>
             <<<Displacing   3/coordinate 2 (+)>>>
             <<<Displacing   1/coordinate 2 (+)>>>
             <<<Displacing   3/coordinate 1 (+)>>>
             <<<Displacing   2/coordinate 2 (+)>>>
             <<<Displacing   1/coordinate 3 (-)>>>
             <<<Displacing   1/coordinate 1 (+)>>>
             <<<Displacing   3/coordinate 2 (-)>>>
             <<<Displacing   2/coordinate 1 (+)>>>
             <<<Displacing   2/coordinate 3 (+)>>>
             <<<Displacing   1/coordinate 2 (-)>>>
             <<<Displacing   3/coordinate 1 (-)>>>
             <<<Displacing   2/coordinate 2 (-)>>>
             <<<Displacing   1/coordinate 1 (-)>>>
             <<<Displacing   2/coordinate 3 (-)>>>
             <<<Displacing   2/coordinate 1 (-)>>>
             <<<Displacing   4/coordinate 2 (+)>>>
             <<<Displacing   3/coordinate 3 (+)>>>
             <<<Displacing   5/coordinate 1 (+)>>>
             <<<Displacing   4/coordinate 1 (+)>>>
             <<<Displacing   4/coordinate 3 (+)>>>
             <<<Displacing   5/coordinate 3 (+)>>>
             <<<Displacing   4/coordinate 2 (-)>>>
             <<<Displacing   3/coordinate 3 (-)>>>
             <<<Displacing   5/coordinate 1 (-)>>>
             <<<Displacing   5/coordinate 2 (+)>>>
             <<<Displacing   4/coordinate 1 (-)>>>
             <<<Displacing   4/coordinate 3 (-)>>>
             <<<Displacing   6/coordinate 1 (+)>>>
             <<<Displacing   5/coordinate 3 (-)>>>
             <<<Displacing   5/coordinate 2 (-)>>>
             <<<Displacing   6/coordinate 1 (-)>>>
             <<<Displacing   6/coordinate 3 (+)>>>
             <<<Displacing   7/coordinate 3 (+)>>>
             <<<Displacing   6/coordinate 3 (-)>>>
             <<<Displacing   6/coordinate 2 (+)>>>
             <<<Displacing   7/coordinate 1 (+)>>>
             <<<Displacing   8/coordinate 1 (+)>>>
             <<<Displacing   7/coordinate 2 (+)>>>
             <<<Displacing   8/coordinate 2 (+)>>>
             <<<Displacing   7/coordinate 3 (-)>>>
             <<<Displacing   6/coordinate 2 (-)>>>
             <<<Displacing   8/coordinate 3 (+)>>>
             <<<Displacing   7/coordinate 1 (-)>>>
             <<<Displacing   8/coordinate 1 (-)>>>
             <<<Displacing   7/coordinate 2 (-)>>>
             <<<Displacing   8/coordinate 2 (-)>>>
             <<<Displacing   8/coordinate 3 (-)>>>
             <<<Displacing   9/coordinate 1 (+)>>>
             <<<Displacing  10/coordinate 1 (+)>>>
             <<<Displacing   9/coordinate 2 (+)>>>
             <<<Displacing  10/coordinate 2 (+)>>>
             <<<Displacing   9/coordinate 1 (-)>>>
             <<<Displacing  11/coordinate 1 (+)>>>
             <<<Displacing  10/coordinate 1 (-)>>>
             <<<Displacing  10/coordinate 3 (+)>>>
             <<<Displacing  11/coordinate 2 (+)>>>
             <<<Displacing   9/coordinate 2 (-)>>>
             <<<Displacing  10/coordinate 2 (-)>>>
             <<<Displacing   9/coordinate 3 (+)>>>
             <<<Displacing  11/coordinate 1 (-)>>>
             <<<Displacing  10/coordinate 3 (-)>>>
             <<<Displacing  11/coordinate 2 (-)>>>
             <<<Displacing   9/coordinate 3 (-)>>>
             <<<Displacing  11/coordinate 3 (+)>>>
             <<<Displacing  12/coordinate 2 (+)>>>
             <<<Displacing  12/coordinate 1 (+)>>>
             <<<Displacing  12/coordinate 3 (+)>>>
             <<<Displacing  13/coordinate 1 (+)>>>
             <<<Displacing  12/coordinate 2 (-)>>>
             <<<Displacing  13/coordinate 2 (+)>>>
             <<<Displacing  11/coordinate 3 (-)>>>
             <<<Displacing  14/coordinate 1 (+)>>>
             <<<Displacing  12/coordinate 3 (-)>>>
             <<<Displacing  13/coordinate 3 (+)>>>
             <<<Displacing  13/coordinate 1 (-)>>>
             <<<Displacing  12/coordinate 1 (-)>>>
             <<<Displacing  13/coordinate 2 (-)>>>
             <<<Displacing  14/coordinate 1 (-)>>>
             <<<Displacing  13/coordinate 3 (-)>>>
             <<<Displacing  14/coordinate 2 (+)>>>
             <<<Displacing  14/coordinate 3 (+)>>>
             <<<Displacing  15/coordinate 1 (+)>>>
             <<<Displacing  16/coordinate 1 (+)>>>
             <<<Displacing  15/coordinate 2 (+)>>>
             <<<Displacing  16/coordinate 2 (+)>>>
             <<<Displacing  15/coordinate 3 (+)>>>
             <<<Displacing  14/coordinate 2 (-)>>>
             <<<Displacing  14/coordinate 3 (-)>>>
             <<<Displacing  15/coordinate 1 (-)>>>
             <<<Displacing  16/coordinate 3 (+)>>>
             <<<Displacing  16/coordinate 1 (-)>>>
             <<<Displacing  15/coordinate 2 (-)>>>
             <<<Displacing  16/coordinate 2 (-)>>>
             <<<Displacing  15/coordinate 3 (-)>>>
             <<<Displacing  16/coordinate 3 (-)>>>
             <<<Displacing  17/coordinate 1 (+)>>>
             <<<Displacing  17/coordinate 2 (+)>>>
             <<<Displacing  17/coordinate 3 (+)>>>
             <<<Displacing  18/coordinate 3 (+)>>>
             <<<Displacing  18/coordinate 1 (+)>>>
             <<<Displacing  18/coordinate 2 (+)>>>
             <<<Displacing  17/coordinate 1 (-)>>>
             <<<Displacing  19/coordinate 1 (+)>>>
             <<<Displacing  19/coordinate 2 (+)>>>
             <<<Displacing  17/coordinate 3 (-)>>>
             <<<Displacing  17/coordinate 2 (-)>>>
             <<<Displacing  18/coordinate 3 (-)>>>
             <<<Displacing  18/coordinate 1 (-)>>>
             <<<Displacing  18/coordinate 2 (-)>>>
             <<<Displacing  19/coordinate 1 (-)>>>
             <<<Displacing  19/coordinate 2 (-)>>>
             <<<Displacing  19/coordinate 3 (+)>>>
             <<<Displacing  20/coordinate 1 (+)>>>
             <<<Displacing  21/coordinate 2 (+)>>>
             <<<Displacing  21/coordinate 1 (+)>>>
             <<<Displacing  21/coordinate 3 (+)>>>
             <<<Displacing  20/coordinate 3 (+)>>>
             <<<Displacing  19/coordinate 3 (-)>>>
             <<<Displacing  20/coordinate 2 (+)>>>
             <<<Displacing  20/coordinate 1 (-)>>>
             <<<Displacing  22/coordinate 1 (+)>>>
             <<<Displacing  21/coordinate 2 (-)>>>
             <<<Displacing  21/coordinate 1 (-)>>>
             <<<Displacing  21/coordinate 3 (-)>>>
             <<<Displacing  20/coordinate 3 (-)>>>
             <<<Displacing  20/coordinate 2 (-)>>>
             <<<Displacing  22/coordinate 1 (-)>>>
             <<<Displacing  22/coordinate 2 (+)>>>
             <<<Displacing  22/coordinate 3 (+)>>>
             <<<Displacing  23/coordinate 3 (+)>>>
             <<<Displacing  22/coordinate 2 (-)>>>
             <<<Displacing  23/coordinate 1 (+)>>>
             <<<Displacing  24/coordinate 2 (+)>>>
             <<<Displacing  22/coordinate 3 (-)>>>
             <<<Displacing  24/coordinate 1 (+)>>>
             <<<Displacing  23/coordinate 2 (+)>>>
             <<<Displacing  23/coordinate 3 (-)>>>
             <<<Displacing  24/coordinate 2 (-)>>>
             <<<Displacing  24/coordinate 1 (-)>>>
             <<<Displacing  23/coordinate 1 (-)>>>
             <<<Displacing  24/coordinate 3 (+)>>>
             <<<Displacing  23/coordinate 2 (-)>>>
             <<<Displacing  24/coordinate 3 (-)>>>
             <<<Displacing  25/coordinate 2 (+)>>>
             <<<Displacing  25/coordinate 3 (+)>>>
             <<<Displacing  26/coordinate 1 (+)>>>
             <<<Displacing  25/coordinate 1 (+)>>>
             <<<Displacing  26/coordinate 3 (+)>>>
             <<<Displacing  25/coordinate 2 (-)>>>
             <<<Displacing  25/coordinate 3 (-)>>>
             <<<Displacing  27/coordinate 1 (+)>>>
             <<<Displacing  26/coordinate 2 (+)>>>
             <<<Displacing  26/coordinate 1 (-)>>>
             <<<Displacing  25/coordinate 1 (-)>>>
             <<<Displacing  26/coordinate 3 (-)>>>
             <<<Displacing  27/coordinate 2 (+)>>>
             <<<Displacing  27/coordinate 1 (-)>>>
             <<<Displacing  26/coordinate 2 (-)>>>
             <<<Displacing  27/coordinate 2 (-)>>>
             <<<Displacing  27/coordinate 3 (+)>>>
             <<<Displacing  28/coordinate 2 (+)>>>
             <<<Displacing  28/coordinate 3 (+)>>>
             <<<Displacing  28/coordinate 1 (+)>>>
             <<<Displacing  27/coordinate 3 (-)>>>
             <<<Displacing  28/coordinate 2 (-)>>>
             <<<Displacing  29/coordinate 2 (+)>>>
             <<<Displacing  28/coordinate 3 (-)>>>
             <<<Displacing  28/coordinate 1 (-)>>>
             <<<Displacing  29/coordinate 1 (+)>>>
             <<<Displacing  29/coordinate 3 (+)>>>
             <<<Displacing  30/coordinate 1 (+)>>>
             <<<Displacing  29/coordinate 2 (-)>>>
             <<<Displacing  29/coordinate 3 (-)>>>
             <<<Displacing  29/coordinate 1 (-)>>>
             <<<Displacing  30/coordinate 1 (-)>>>
             <<<Displacing  30/coordinate 3 (+)>>>
             <<<Displacing  30/coordinate 2 (+)>>>
             <<<Displacing  31/coordinate 2 (+)>>>
             <<<Displacing  31/coordinate 1 (+)>>>
             <<<Displacing  30/coordinate 3 (-)>>>
             <<<Displacing  30/coordinate 2 (-)>>>
             <<<Displacing  31/coordinate 3 (+)>>>
             <<<Displacing  31/coordinate 2 (-)>>>
             <<<Displacing  31/coordinate 1 (-)>>>
             <<<Displacing  32/coordinate 1 (+)>>>
             <<<Displacing  32/coordinate 2 (+)>>>
             <<<Displacing  31/coordinate 3 (-)>>>
             <<<Displacing  32/coordinate 3 (+)>>>
             <<<Displacing  32/coordinate 1 (-)>>>
             <<<Displacing  32/coordinate 2 (-)>>>
             <<<Displacing  32/coordinate 3 (-)>>>
             <<<Displacing  33/coordinate 2 (+)>>>
             <<<Displacing  33/coordinate 1 (+)>>>
             <<<Displacing  33/coordinate 2 (-)>>>
             <<<Displacing  33/coordinate 3 (+)>>>
             <<<Displacing  34/coordinate 1 (+)>>>
             <<<Displacing  33/coordinate 1 (-)>>>
             <<<Displacing  34/coordinate 2 (+)>>>
             <<<Displacing  33/coordinate 3 (-)>>>
             <<<Displacing  34/coordinate 1 (-)>>>
             <<<Displacing  35/coordinate 1 (+)>>>
             <<<Displacing  34/coordinate 2 (-)>>>
             <<<Displacing  35/coordinate 2 (+)>>>
             <<<Displacing  34/coordinate 3 (+)>>>
             <<<Displacing  35/coordinate 1 (-)>>>
             <<<Displacing  35/coordinate 2 (-)>>>
             <<<Displacing  34/coordinate 3 (-)>>>
             <<<Displacing  35/coordinate 3 (+)>>>
             <<<Displacing  35/coordinate 3 (-)>>>
             <<<Displacing  36/coordinate 1 (+)>>>
             <<<Displacing  36/coordinate 3 (+)>>>
             <<<Displacing  36/coordinate 1 (-)>>>
             <<<Displacing  37/coordinate 2 (+)>>>
             <<<Displacing  37/coordinate 1 (+)>>>
             <<<Displacing  36/coordinate 3 (-)>>>
             <<<Displacing  37/coordinate 3 (+)>>>
             <<<Displacing  36/coordinate 2 (+)>>>
             <<<Displacing  37/coordinate 2 (-)>>>
             <<<Displacing  38/coordinate 1 (+)>>>
             <<<Displacing  37/coordinate 1 (-)>>>
             <<<Displacing  37/coordinate 3 (-)>>>
             <<<Displacing  36/coordinate 2 (-)>>>
             <<<Displacing  38/coordinate 1 (-)>>>
             <<<Displacing  38/coordinate 2 (+)>>>
             <<<Displacing  38/coordinate 2 (-)>>>
             <<<Displacing  39/coordinate 1 (+)>>>
             <<<Displacing  39/coordinate 1 (-)>>>
             <<<Displacing  39/coordinate 2 (+)>>>
             <<<Displacing  38/coordinate 3 (+)>>>
             <<<Displacing  40/coordinate 1 (+)>>>
             <<<Displacing  40/coordinate 2 (+)>>>
             <<<Displacing  39/coordinate 3 (+)>>>
             <<<Displacing  39/coordinate 2 (-)>>>
             <<<Displacing  38/coordinate 3 (-)>>>
             <<<Displacing  40/coordinate 2 (-)>>>
             <<<Displacing  40/coordinate 1 (-)>>>
             <<<Displacing  39/coordinate 3 (-)>>>
             <<<Displacing  40/coordinate 3 (+)>>>
             <<<Displacing  40/coordinate 3 (-)>>>
             <<<Displacing  41/coordinate 1 (+)>>>
             <<<Displacing  41/coordinate 1 (-)>>>
             <<<Displacing  41/coordinate 2 (+)>>>
             <<<Displacing  41/coordinate 3 (+)>>>
             <<<Displacing  41/coordinate 2 (-)>>>
             <<<Displacing  41/coordinate 3 (-)>>>
             <<<Displacing  42/coordinate 1 (+)>>>
             <<<Displacing  42/coordinate 1 (-)>>>
             <<<Displacing  42/coordinate 2 (+)>>>
             <<<Displacing  43/coordinate 1 (+)>>>
             <<<Displacing  42/coordinate 3 (+)>>>
             <<<Displacing  42/coordinate 2 (-)>>>
             <<<Displacing  43/coordinate 1 (-)>>>
             <<<Displacing  42/coordinate 3 (-)>>>
             <<<Displacing  43/coordinate 2 (+)>>>
             <<<Displacing  43/coordinate 2 (-)>>>
             <<<Displacing  43/coordinate 3 (+)>>>
             <<<Displacing  44/coordinate 2 (+)>>>
             <<<Displacing  44/coordinate 1 (+)>>>
             <<<Displacing  45/coordinate 2 (+)>>>
             <<<Displacing  44/coordinate 3 (+)>>>
             <<<Displacing  43/coordinate 3 (-)>>>
             <<<Displacing  44/coordinate 2 (-)>>>
             <<<Displacing  44/coordinate 1 (-)>>>
             <<<Displacing  45/coordinate 2 (-)>>>
             <<<Displacing  45/coordinate 1 (+)>>>
             <<<Displacing  44/coordinate 3 (-)>>>
             <<<Displacing  45/coordinate 3 (+)>>>
             <<<Displacing  45/coordinate 1 (-)>>>
             <<<Displacing  45/coordinate 3 (-)>>>
             <<<Displacing  46/coordinate 1 (+)>>>
             <<<Displacing  46/coordinate 1 (-)>>>
             <<<Displacing  46/coordinate 2 (+)>>>
             <<<Displacing  46/coordinate 2 (-)>>>
             <<<Displacing  47/coordinate 2 (+)>>>
             <<<Displacing  46/coordinate 3 (+)>>>
             <<<Displacing  48/coordinate 2 (+)>>>
             <<<Displacing  47/coordinate 2 (-)>>>
             <<<Displacing  47/coordinate 1 (+)>>>
             <<<Displacing  46/coordinate 3 (-)>>>
             <<<Displacing  47/coordinate 3 (+)>>>
             <<<Displacing  48/coordinate 1 (+)>>>
             <<<Displacing  48/coordinate 2 (-)>>>
             <<<Displacing  47/coordinate 1 (-)>>>
             <<<Displacing  47/coordinate 3 (-)>>>
             <<<Displacing  48/coordinate 1 (-)>>>
             <<<Displacing  48/coordinate 3 (+)>>>
             <<<Displacing  48/coordinate 3 (-)>>>
             <<<Displacing  49/coordinate 1 (+)>>>
             <<<Displacing  49/coordinate 1 (-)>>>
             <<<Displacing  49/coordinate 3 (+)>>>
             <<<Displacing  49/coordinate 3 (-)>>>
             <<<Displacing  49/coordinate 2 (+)>>>
             <<<Displacing  49/coordinate 2 (-)>>>

-----------------------
VIBRATIONAL FREQUENCIES
-----------------------

Scaling factor for frequencies =  1.000000000 (already applied!)

   0:         0.00 cm**-1
   1:         0.00 cm**-1
   2:         0.00 cm**-1
   3:         0.00 cm**-1
   4:         0.00 cm**-1
   5:         0.00 cm**-1
   6:        21.23 cm**-1
   7:        27.93 cm**-1
   8:        35.52 cm**-1
   9:        40.26 cm**-1
  10:        45.92 cm**-1
  11:        55.02 cm**-1
  12:        65.45 cm**-1
  13:        69.56 cm**-1
  14:        73.21 cm**-1
  15:        74.61 cm**-1
  16:        92.90 cm**-1
  17:       101.94 cm**-1
  18:       121.90 cm**-1
  19:       125.05 cm**-1
  20:       142.41 cm**-1
  21:       157.01 cm**-1
  22:       165.29 cm**-1
  23:       199.30 cm**-1
  24:       213.37 cm**-1
  25:       226.29 cm**-1
  26:       241.57 cm**-1
  27:       260.79 cm**-1
  28:       269.93 cm**-1
  29:       272.90 cm**-1
  30:       284.77 cm**-1
  31:       319.11 cm**-1
  32:       351.39 cm**-1
  33:       382.68 cm**-1
  34:       391.63 cm**-1
  35:       392.78 cm**-1
  36:       397.30 cm**-1
  37:       423.69 cm**-1
  38:       434.04 cm**-1
  39:       452.69 cm**-1
  40:       507.53 cm**-1
  41:       554.29 cm**-1
  42:       588.60 cm**-1
  43:       614.84 cm**-1
  44:       634.88 cm**-1
  45:       675.84 cm**-1
  46:       761.67 cm**-1
  47:       771.14 cm**-1
  48:       774.89 cm**-1
  49:       817.62 cm**-1
  50:       821.76 cm**-1
  51:       829.24 cm**-1
  52:       867.13 cm**-1
  53:       880.72 cm**-1
  54:       887.79 cm**-1
  55:       907.16 cm**-1
  56:       925.25 cm**-1
  57:       930.15 cm**-1
  58:       933.45 cm**-1
  59:       936.66 cm**-1
  60:       942.83 cm**-1
  61:       952.12 cm**-1
  62:       976.95 cm**-1
  63:       983.61 cm**-1
  64:      1018.34 cm**-1
  65:      1043.26 cm**-1
  66:      1057.95 cm**-1
  67:      1067.41 cm**-1
  68:      1071.35 cm**-1
  69:      1088.80 cm**-1
  70:      1102.82 cm**-1
  71:      1107.87 cm**-1
  72:      1112.12 cm**-1
  73:      1118.03 cm**-1
  74:      1122.12 cm**-1
  75:      1134.31 cm**-1
  76:      1134.87 cm**-1
  77:      1177.91 cm**-1
  78:      1183.97 cm**-1
  79:      1197.21 cm**-1
  80:      1205.69 cm**-1
  81:      1206.97 cm**-1
  82:      1230.34 cm**-1
  83:      1251.91 cm**-1
  84:      1262.62 cm**-1
  85:      1266.80 cm**-1
  86:      1271.98 cm**-1
  87:      1274.85 cm**-1
  88:      1276.43 cm**-1
  89:      1280.11 cm**-1
  90:      1281.90 cm**-1
  91:      1286.35 cm**-1
  92:      1298.19 cm**-1
  93:      1309.34 cm**-1
  94:      1337.05 cm**-1
  95:      1340.96 cm**-1
  96:      1373.35 cm**-1
  97:      1376.13 cm**-1
  98:      1421.40 cm**-1
  99:      1425.66 cm**-1
 100:      1428.27 cm**-1
 101:      1428.48 cm**-1
 102:      1460.68 cm**-1
 103:      1495.80 cm**-1
 104:      1498.89 cm**-1
 105:      1504.68 cm**-1
 106:      1506.60 cm**-1
 107:      1507.05 cm**-1
 108:      1507.79 cm**-1
 109:      1507.97 cm**-1
 110:      1508.61 cm**-1
 111:      1512.41 cm**-1
 112:      1512.90 cm**-1
 113:      1553.77 cm**-1
 114:      1564.59 cm**-1
 115:      1568.08 cm**-1
 116:      1576.18 cm**-1
 117:      2869.18 cm**-1
 118:      2910.53 cm**-1
 119:      2926.39 cm**-1
 120:      2938.40 cm**-1
 121:      2938.56 cm**-1
 122:      2943.33 cm**-1
 123:      2945.95 cm**-1
 124:      2952.47 cm**-1
 125:      2955.22 cm**-1
 126:      2960.15 cm**-1
 127:      2963.75 cm**-1
 128:      2967.55 cm**-1
 129:      2972.97 cm**-1
 130:      2976.64 cm**-1
 131:      2979.19 cm**-1
 132:      2982.67 cm**-1
 133:      2985.53 cm**-1
 134:      2995.46 cm**-1
 135:      2997.59 cm**-1
 136:      3047.79 cm**-1
 137:      3052.67 cm**-1
 138:      3057.53 cm**-1
 139:      3068.01 cm**-1
 140:      3083.80 cm**-1
 141:      3204.12 cm**-1
 142:      3301.81 cm**-1
 143:      3351.72 cm**-1
 144:      3408.98 cm**-1
 145:      3506.27 cm**-1
 146:      3583.12 cm**-1


------------
NORMAL MODES
------------

These modes are the cartesian displacements weighted by the diagonal matrix
M(i,i)=1/sqrt(m[i]) where m[i] is the mass of the displaced atom
Thus, these vectors are normalized but *not* orthogonal

                  0          1          2          3          4          5    
      0       0.000000   0.000000   0.000000   0.000000   0.000000   0.000000
      1       0.000000   0.000000   0.000000   0.000000   0.000000   0.000000
      2       0.000000   0.000000   0.000000   0.000000   0.000000   0.000000
      3       0.000000   0.000000   0.000000   0.000000   0.000000   0.000000
      4       0.000000   0.000000   0.000000   0.000000   0.000000   0.000000
      5       0.000000   0.000000   0.000000   0.000000   0.000000   0.000000
      6       0.000000   0.000000   0.000000   0.000000   0.000000   0.000000
      7       0.000000   0.000000   0.000000   0.000000   0.000000   0.000000
      8       0.000000   0.000000   0.000000   0.000000   0.000000   0.000000
      9       0.000000   0.000000   0.000000   0.000000   0.000000   0.000000
     10       0.000000   0.000000   0.000000   0.000000   0.000000   0.000000
     11       0.000000   0.000000   0.000000   0.000000   0.000000   0.000000
     12       0.000000   0.000000   0.000000   0.000000   0.000000   0.000000
     13       0.000000   0.000000   0.000000   0.000000   0.000000   0.000000
     14       0.000000   0.000000   0.000000   0.000000   0.000000   0.000000
     15       0.000000   0.000000   0.000000   0.000000   0.000000   0.000000
     16       0.000000   0.000000   0.000000   0.000000   0.000000   0.000000
     17       0.000000   0.000000   0.000000   0.000000   0.000000   0.000000
     18       0.000000   0.000000   0.000000   0.000000   0.000000   0.000000
     19       0.000000   0.000000   0.000000   0.000000   0.000000   0.000000
     20       0.000000   0.000000   0.000000   0.000000   0.000000   0.000000
     21       0.000000   0.000000   0.000000   0.000000   0.000000   0.000000
     22       0.000000   0.000000   0.000000   0.000000   0.000000   0.000000
     23       0.000000   0.000000   0.000000   0.000000   0.000000   0.000000
     24       0.000000   0.000000   0.000000   0.000000   0.000000   0.000000
     25       0.000000   0.000000   0.000000   0.000000   0.000000   0.000000
     26       0.000000   0.000000   0.000000   0.000000   0.000000   0.000000
     27       0.000000   0.000000   0.000000   0.000000   0.000000   0.000000
     28       0.000000   0.000000   0.000000   0.000000   0.000000   0.000000
     29       0.000000   0.000000   0.000000   0.000000   0.000000   0.000000
     30       0.000000   0.000000   0.000000   0.000000   0.000000   0.000000
     31       0.000000   0.000000   0.000000   0.000000   0.000000   0.000000
     32       0.000000   0.000000   0.000000   0.000000   0.000000   0.000000
     33       0.000000   0.000000   0.000000   0.000000   0.000000   0.000000
     34       0.000000   0.000000   0.000000   0.000000   0.000000   0.000000
     35       0.000000   0.000000   0.000000   0.000000   0.000000   0.000000
     36       0.000000   0.000000   0.000000   0.000000   0.000000   0.000000
     37       0.000000   0.000000   0.000000   0.000000   0.000000   0.000000
     38       0.000000   0.000000   0.000000   0.000000   0.000000   0.000000
     39       0.000000   0.000000   0.000000   0.000000   0.000000   0.000000
     40       0.000000   0.000000   0.000000   0.000000   0.000000   0.000000
     41       0.000000   0.000000   0.000000   0.000000   0.000000   0.000000
     42       0.000000   0.000000   0.000000   0.000000   0.000000   0.000000
     43       0.000000   0.000000   0.000000   0.000000   0.000000   0.000000
     44       0.000000   0.000000   0.000000   0.000000   0.000000   0.000000
     45       0.000000   0.000000   0.000000   0.000000   0.000000   0.000000
     46       0.000000   0.000000   0.000000   0.000000   0.000000   0.000000
     47       0.000000   0.000000   0.000000   0.000000   0.000000   0.000000
     48       0.000000   0.000000   0.000000   0.000000   0.000000   0.000000
     49       0.000000   0.000000   0.000000   0.000000   0.000000   0.000000
     50       0.000000   0.000000   0.000000   0.000000   0.000000   0.000000
     51       0.000000   0.000000   0.000000   0.000000   0.000000   0.000000
     52       0.000000   0.000000   0.000000   0.000000   0.000000   0.000000
     53       0.000000   0.000000   0.000000   0.000000   0.000000   0.000000
     54       0.000000   0.000000   0.000000   0.000000   0.000000   0.000000
     55       0.000000   0.000000   0.000000   0.000000   0.000000   0.000000
     56       0.000000   0.000000   0.000000   0.000000   0.000000   0.000000
     57       0.000000   0.000000   0.000000   0.000000   0.000000   0.000000
     58       0.000000   0.000000   0.000000   0.000000   0.000000   0.000000
     59       0.000000   0.000000   0.000000   0.000000   0.000000   0.000000
     60       0.000000   0.000000   0.000000   0.000000   0.000000   0.000000
     61       0.000000   0.000000   0.000000   0.000000   0.000000   0.000000
     62       0.000000   0.000000   0.000000   0.000000   0.000000   0.000000
     63       0.000000   0.000000   0.000000   0.000000   0.000000   0.000000
     64       0.000000   0.000000   0.000000   0.000000   0.000000   0.000000
     65       0.000000   0.000000   0.000000   0.000000   0.000000   0.000000
     66       0.000000   0.000000   0.000000   0.000000   0.000000   0.000000
     67       0.000000   0.000000   0.000000   0.000000   0.000000   0.000000
     68       0.000000   0.000000   0.000000   0.000000   0.000000   0.000000
     69       0.000000   0.000000   0.000000   0.000000   0.000000   0.000000
     70       0.000000   0.000000   0.000000   0.000000   0.000000   0.000000
     71       0.000000   0.000000   0.000000   0.000000   0.000000   0.000000
     72       0.000000   0.000000   0.000000   0.000000   0.000000   0.000000
     73       0.000000   0.000000   0.000000   0.000000   0.000000   0.000000
     74       0.000000   0.000000   0.000000   0.000000   0.000000   0.000000
     75       0.000000   0.000000   0.000000   0.000000   0.000000   0.000000
     76       0.000000   0.000000   0.000000   0.000000   0.000000   0.000000
     77       0.000000   0.000000   0.000000   0.000000   0.000000   0.000000
     78       0.000000   0.000000   0.000000   0.000000   0.000000   0.000000
     79       0.000000   0.000000   0.000000   0.000000   0.000000   0.000000
     80       0.000000   0.000000   0.000000   0.000000   0.000000   0.000000
     81       0.000000   0.000000   0.000000   0.000000   0.000000   0.000000
     82       0.000000   0.000000   0.000000   0.000000   0.000000   0.000000
     83       0.000000   0.000000   0.000000   0.000000   0.000000   0.000000
     84       0.000000   0.000000   0.000000   0.000000   0.000000   0.000000
     85       0.000000   0.000000   0.000000   0.000000   0.000000   0.000000
     86       0.000000   0.000000   0.000000   0.000000   0.000000   0.000000
     87       0.000000   0.000000   0.000000   0.000000   0.000000   0.000000
     88       0.000000   0.000000   0.000000   0.000000   0.000000   0.000000
     89       0.000000   0.000000   0.000000   0.000000   0.000000   0.000000
     90       0.000000   0.000000   0.000000   0.000000   0.000000   0.000000
     91       0.000000   0.000000   0.000000   0.000000   0.000000   0.000000
     92       0.000000   0.000000   0.000000   0.000000   0.000000   0.000000
     93       0.000000   0.000000   0.000000   0.000000   0.000000   0.000000
     94       0.000000   0.000000   0.000000   0.000000   0.000000   0.000000
     95       0.000000   0.000000   0.000000   0.000000   0.000000   0.000000
     96       0.000000   0.000000   0.000000   0.000000   0.000000   0.000000
     97       0.000000   0.000000   0.000000   0.000000   0.000000   0.000000
     98       0.000000   0.000000   0.000000   0.000000   0.000000   0.000000
     99       0.000000   0.000000   0.000000   0.000000   0.000000   0.000000
    100       0.000000   0.000000   0.000000   0.000000   0.000000   0.000000
    101       0.000000   0.000000   0.000000   0.000000   0.000000   0.000000
    102       0.000000   0.000000   0.000000   0.000000   0.000000   0.000000
    103       0.000000   0.000000   0.000000   0.000000   0.000000   0.000000
    104       0.000000   0.000000   0.000000   0.000000   0.000000   0.000000
    105       0.000000   0.000000   0.000000   0.000000   0.000000   0.000000
    106       0.000000   0.000000   0.000000   0.000000   0.000000   0.000000
    107       0.000000   0.000000   0.000000   0.000000   0.000000   0.000000
    108       0.000000   0.000000   0.000000   0.000000   0.000000   0.000000
    109       0.000000   0.000000   0.000000   0.000000   0.000000   0.000000
    110       0.000000   0.000000   0.000000   0.000000   0.000000   0.000000
    111       0.000000   0.000000   0.000000   0.000000   0.000000   0.000000
    112       0.000000   0.000000   0.000000   0.000000   0.000000   0.000000
    113       0.000000   0.000000   0.000000   0.000000   0.000000   0.000000
    114       0.000000   0.000000   0.000000   0.000000   0.000000   0.000000
    115       0.000000   0.000000   0.000000   0.000000   0.000000   0.000000
    116       0.000000   0.000000   0.000000   0.000000   0.000000   0.000000
    117       0.000000   0.000000   0.000000   0.000000   0.000000   0.000000
    118       0.000000   0.000000   0.000000   0.000000   0.000000   0.000000
    119       0.000000   0.000000   0.000000   0.000000   0.000000   0.000000
    120       0.000000   0.000000   0.000000   0.000000   0.000000   0.000000
    121       0.000000   0.000000   0.000000   0.000000   0.000000   0.000000
    122       0.000000   0.000000   0.000000   0.000000   0.000000   0.000000
    123       0.000000   0.000000   0.000000   0.000000   0.000000   0.000000
    124       0.000000   0.000000   0.000000   0.000000   0.000000   0.000000
    125       0.000000   0.000000   0.000000   0.000000   0.000000   0.000000
    126       0.000000   0.000000   0.000000   0.000000   0.000000   0.000000
    127       0.000000   0.000000   0.000000   0.000000   0.000000   0.000000
    128       0.000000   0.000000   0.000000   0.000000   0.000000   0.000000
    129       0.000000   0.000000   0.000000   0.000000   0.000000   0.000000
    130       0.000000   0.000000   0.000000   0.000000   0.000000   0.000000
    131       0.000000   0.000000   0.000000   0.000000   0.000000   0.000000
    132       0.000000   0.000000   0.000000   0.000000   0.000000   0.000000
    133       0.000000   0.000000   0.000000   0.000000   0.000000   0.000000
    134       0.000000   0.000000   0.000000   0.000000   0.000000   0.000000
    135       0.000000   0.000000   0.000000   0.000000   0.000000   0.000000
    136       0.000000   0.000000   0.000000   0.000000   0.000000   0.000000
    137       0.000000   0.000000   0.000000   0.000000   0.000000   0.000000
    138       0.000000   0.000000   0.000000   0.000000   0.000000   0.000000
    139       0.000000   0.000000   0.000000   0.000000   0.000000   0.000000
    140       0.000000   0.000000   0.000000   0.000000   0.000000   0.000000
    141       0.000000   0.000000   0.000000   0.000000   0.000000   0.000000
    142       0.000000   0.000000   0.000000   0.000000   0.000000   0.000000
    143       0.000000   0.000000   0.000000   0.000000   0.000000   0.000000
    144       0.000000   0.000000   0.000000   0.000000   0.000000   0.000000
    145       0.000000   0.000000   0.000000   0.000000   0.000000   0.000000
    146       0.000000   0.000000   0.000000   0.000000   0.000000   0.000000
                  6          7          8          9         10         11    
      0      -0.036712   0.056159   0.018611  -0.054729   0.000273   0.001535
      1      -0.004020  -0.004069  -0.007381   0.007907  -0.027524  -0.030612
      2       0.012025  -0.010948   0.027496   0.005841   0.020822  -0.024856
      3      -0.046379   0.065244  -0.015465  -0.054538   0.018275  -0.011329
      4       0.004446  -0.006395   0.010103   0.024255  -0.055795  -0.003599
      5      -0.000068  -0.006113  -0.000220  -0.014007   0.058465  -0.059656
      6      -0.065667   0.088113  -0.047832  -0.076696   0.033463  -0.022215
      7       0.013139  -0.003982   0.043610   0.034749  -0.100846   0.037591
      8       0.009708  -0.017498   0.016013  -0.002956   0.050517  -0.054391
      9      -0.075111   0.102844  -0.047448  -0.099081   0.030666  -0.020714
     10       0.014026   0.000960   0.059632   0.029459  -0.119440   0.052970
     11       0.031785  -0.033903   0.060410   0.028217   0.004963  -0.014062
     12      -0.065741   0.095247  -0.015558  -0.098399   0.012945  -0.008271
     13       0.005487   0.004093   0.041513   0.013885  -0.091663   0.026770
     14       0.044220  -0.039279   0.089349   0.047638  -0.032841   0.021168
     15      -0.047027   0.072399   0.017082  -0.077082  -0.002173   0.002608
     16      -0.003415   0.001700   0.008382   0.002952  -0.046261  -0.014622
     17       0.034967  -0.028104   0.073066   0.037119  -0.025441   0.015509
     18      -0.013084   0.025745   0.060481  -0.037739  -0.025759   0.016703
     19      -0.016575  -0.006511  -0.039975  -0.010395   0.024898  -0.067731
     20      -0.000237   0.004845   0.007034  -0.002233   0.032668  -0.030178
     21      -0.036961   0.053018  -0.015302  -0.035872   0.020187  -0.011259
     22       0.005206  -0.010785  -0.002594   0.029669  -0.043329  -0.014725
     23      -0.017267   0.006964  -0.037290  -0.036820   0.089276  -0.090569
     24      -0.039509   0.066364   0.042576  -0.077424  -0.015691   0.013906
     25      -0.009977   0.003496  -0.005391  -0.009470  -0.024963  -0.035415
     26       0.044527  -0.031582   0.095093   0.052535  -0.054633   0.043334
     27      -0.089272   0.119784  -0.071469  -0.116264   0.042031  -0.028690
     28       0.021480   0.002304   0.086111   0.037576  -0.154979   0.085296
     29       0.038827  -0.042319   0.072361   0.036764  -0.000717  -0.010039
     30      -0.019691   0.015447   0.044591  -0.037384  -0.043737  -0.055019
     31      -0.006988   0.012006  -0.020041  -0.009057   0.052681   0.037543
     32      -0.008529   0.037471  -0.005651   0.005190   0.039983   0.001169
     33       0.010879  -0.004359   0.076009  -0.070924  -0.054853  -0.067133
     34      -0.039970  -0.004621  -0.031179   0.017390   0.057726   0.054121
     35      -0.021627   0.052072  -0.023300   0.021697   0.046872   0.006158
     36      -0.040291   0.023109   0.027843  -0.013850  -0.031149  -0.023213
     37       0.023334   0.037669   0.007125  -0.017972   0.075255   0.090511
     38      -0.034833   0.033905  -0.029853   0.029526   0.041954   0.001925
     39      -0.011910  -0.028206  -0.035413  -0.036298   0.002155  -0.045751
     40      -0.013922   0.029178   0.090404  -0.020328  -0.004834   0.026444
     41      -0.007164   0.101347   0.006313   0.016442   0.032002  -0.020090
     42       0.025433  -0.023701   0.076037  -0.088502  -0.053304  -0.068142
     43      -0.083289  -0.045109  -0.154606   0.069699   0.117793   0.086101
     44       0.009708   0.051650   0.028757  -0.016376   0.023041  -0.007575
     45       0.037567   0.014723   0.185854  -0.111289  -0.109851  -0.086638
     46      -0.045645  -0.003076  -0.009850   0.018584   0.045285   0.054081
     47      -0.069708   0.031974  -0.107688   0.075341   0.084416   0.031372
     48      -0.031269   0.010990  -0.008106  -0.000288  -0.014793  -0.081796
     49       0.033032   0.058002   0.188106  -0.081896  -0.052626   0.010367
     50      -0.041750   0.121225  -0.010603   0.070130   0.037118  -0.043087
     51      -0.034520  -0.043863  -0.133527  -0.000141   0.053237  -0.029940
     52      -0.005843   0.018905   0.054710  -0.029737   0.016029   0.041026
     53       0.048602   0.094707   0.045525  -0.062392   0.018046  -0.001419
     54       0.005787   0.035497   0.092963  -0.032216  -0.003758   0.136178
     55      -0.019889  -0.004994  -0.050596  -0.016039   0.044770  -0.072334
     56      -0.024153   0.001102  -0.042586  -0.024752   0.071825  -0.126654
     57      -0.001500   0.001748   0.078376  -0.030319  -0.052342  -0.010944
     58      -0.031694  -0.024458  -0.073408  -0.019114   0.025242  -0.179317
     59       0.019156  -0.006277   0.042744   0.009136   0.008300   0.009869
     60       0.012849   0.039624   0.102564  -0.029261   0.004436   0.177058
     61      -0.032520  -0.016554  -0.059650  -0.022259   0.033998  -0.133642
     62      -0.027780  -0.014008  -0.020656  -0.029467   0.080036  -0.109132
     63       0.107055   0.094075  -0.049991   0.056852  -0.107265   0.248060
     64       0.134139   0.073902  -0.146316   0.053843   0.110820   0.000242
     65       0.002274   0.042254  -0.239127   0.060523  -0.235138   0.011917
     66       0.070371   0.074180  -0.005709   0.030846  -0.077226   0.219525
     67       0.075926   0.043182  -0.113186   0.032134   0.097093  -0.032549
     68      -0.002327   0.038841  -0.180269   0.028015  -0.142203  -0.012035
     69       0.087023   0.088222  -0.016918   0.033421  -0.064604   0.232870
     70       0.170550   0.109639  -0.236498   0.094190   0.047049   0.055483
     71       0.013495   0.037839  -0.248124   0.074143  -0.262887   0.011817
     72      -0.072670   0.106662  -0.015221  -0.114801   0.010454  -0.006552
     73       0.006073   0.008118   0.053689   0.009845  -0.105593   0.038771
     74       0.060726  -0.051972   0.123713   0.070977  -0.067671   0.052174
     75      -0.072700   0.093999  -0.072146  -0.076653   0.047683  -0.031216
     76       0.019984  -0.006324   0.057420   0.047471  -0.122467   0.058040
     77      -0.000327  -0.013368  -0.006409  -0.018780   0.080613  -0.081861
     78       0.022660  -0.081548  -0.051606  -0.101817   0.014750   0.006712
     79      -0.060986   0.039310   0.125713   0.038059  -0.031521  -0.001569
     80      -0.020396   0.134472   0.010090   0.047777   0.029188  -0.049374
     81       0.031588  -0.071486   0.012117  -0.114697  -0.024285  -0.014600
     82      -0.072924   0.047834   0.150881   0.054209  -0.048647  -0.017364
     83      -0.067455   0.145019  -0.006951   0.112699   0.034592  -0.065096
     84       0.044360  -0.119285  -0.073492  -0.144148   0.029710   0.047052
     85      -0.090996   0.018099   0.066249   0.071297   0.001628   0.022496
     86       0.009193   0.111968   0.015792   0.000050   0.028259  -0.025997
     87      -0.008998  -0.063099  -0.012690   0.188671   0.019768  -0.029010
     88       0.043457   0.016677  -0.005646   0.024217   0.210502   0.103001
     89      -0.120750  -0.050038  -0.061756   0.046203  -0.037858   0.135582
     90       0.031086  -0.032058  -0.041359   0.155724  -0.059388  -0.050006
     91       0.094829   0.043757  -0.022478   0.020812   0.179732   0.074256
     92       0.001498   0.015687  -0.103054   0.033723  -0.116822   0.069074
     93       0.019431  -0.091461   0.009479   0.167242   0.018306  -0.054415
     94      -0.108309  -0.057087   0.039535   0.055700   0.322038   0.186705
     95      -0.125404  -0.032782  -0.074574   0.053879  -0.043513   0.142272
     96      -0.026526  -0.072267  -0.000871   0.206122   0.058109  -0.009389
     97       0.094530   0.027124  -0.031846  -0.036874   0.095166   0.038694
     98      -0.145931  -0.126170  -0.009790   0.017139  -0.000491   0.129030
     99      -0.073878  -0.053603  -0.035955   0.245114   0.052075   0.020793
    100       0.328363   0.151284  -0.054458  -0.112179  -0.015876  -0.066033
    101      -0.125843  -0.133712   0.004949   0.000645   0.002224   0.116346
    102      -0.063572  -0.094583   0.032522   0.240795   0.154566   0.041578
    103       0.022116  -0.012962  -0.027334  -0.017720   0.119131   0.064859
    104      -0.362116  -0.245642   0.005188   0.074712   0.074876   0.209148
    105       0.061661  -0.078851   0.011579   0.129523  -0.015648  -0.095874
    106      -0.049957  -0.067530  -0.037899  -0.027211   0.076171   0.048551
    107       0.073534  -0.044522   0.007657  -0.067766  -0.054431   0.038470
    108       0.098121  -0.060549  -0.026775   0.105905  -0.138243  -0.189330
    109       0.028323  -0.024644  -0.044487  -0.046746   0.042822   0.011184
    110       0.285119   0.071513  -0.008630  -0.119776  -0.139353  -0.058788
    111       0.108857  -0.096916   0.045689   0.080526   0.002888  -0.107479
    112      -0.278707  -0.185697  -0.011239   0.040680   0.208338   0.184915
    113       0.060207  -0.032165  -0.008768  -0.048131  -0.067502   0.038862
    114       0.037465  -0.087231   0.028422   0.147039   0.046984  -0.046046
    115       0.005039  -0.062807  -0.071516  -0.080872  -0.075504  -0.078754
    116       0.024806  -0.132458   0.065956  -0.110028   0.024510   0.079804
    117       0.020680  -0.058243  -0.005313   0.189494   0.015248  -0.046322
    118       0.156431   0.023093  -0.095991  -0.131051  -0.173776  -0.184587
    119       0.025120  -0.149226   0.081968  -0.126385   0.043163   0.084858
    120      -0.005895  -0.108572   0.066818   0.171089   0.172141   0.051839
    121      -0.045406  -0.093658  -0.065614  -0.067026  -0.053063  -0.051681
    122      -0.110294  -0.215426   0.078952  -0.074100   0.075867   0.146132
    123       0.089559  -0.105733   0.039061   0.079768  -0.010392  -0.122347
    124      -0.069314  -0.127079  -0.080446  -0.083762  -0.125000  -0.104867
    125       0.144672  -0.090710   0.084574  -0.173515   0.014519   0.030140
    126       0.107445  -0.101598   0.013809   0.062586  -0.097929  -0.193097
    127      -0.028548  -0.103073  -0.083785  -0.096542  -0.140700  -0.126234
    128       0.254735  -0.024679   0.080353  -0.205704  -0.011670  -0.015293
    129       0.079230  -0.105960   0.046748   0.090753   0.023441  -0.092669
    130      -0.045915  -0.132542  -0.095534  -0.114681  -0.204649  -0.177097
    131       0.129271  -0.135634   0.112590  -0.202778   0.040126   0.035684
    132       0.119749  -0.123198   0.064245   0.037184   0.001341  -0.137757
    133      -0.186949  -0.192085  -0.068299  -0.041790  -0.065201  -0.030756
    134       0.136968  -0.081350   0.074086  -0.158118   0.007628   0.033552
    135       0.017226  -0.097694  -0.120717  -0.095802   0.057594   0.035569
    136      -0.053447   0.065928   0.201510   0.033566  -0.077865  -0.040048
[...]
  29:       272.90    0.000000  (  0.000000   0.000000   0.000000)
  30:       284.77    0.000000  (  0.000000   0.000000   0.000000)
  31:       319.11    0.000000  (  0.000000   0.000000   0.000000)
  32:       351.39    0.000000  (  0.000000   0.000000   0.000000)
  33:       382.68    0.000000  (  0.000000   0.000000   0.000000)
  34:       391.63    0.000000  (  0.000000   0.000000   0.000000)
  35:       392.78    0.000000  (  0.000000   0.000000   0.000000)
  36:       397.30    0.000000  (  0.000000   0.000000   0.000000)
  37:       423.69    0.000000  (  0.000000   0.000000   0.000000)
  38:       434.04    0.000000  (  0.000000   0.000000   0.000000)
  39:       452.69    0.000000  (  0.000000   0.000000   0.000000)
  40:       507.53    0.000000  (  0.000000   0.000000   0.000000)
  41:       554.29    0.000000  (  0.000000   0.000000   0.000000)
  42:       588.60    0.000000  (  0.000000   0.000000   0.000000)
  43:       614.84    0.000000  (  0.000000   0.000000   0.000000)
  44:       634.88    0.000000  (  0.000000   0.000000   0.000000)
  45:       675.84    0.000000  (  0.000000   0.000000   0.000000)
  46:       761.67    0.000000  (  0.000000   0.000000   0.000000)
  47:       771.14    0.000000  (  0.000000   0.000000   0.000000)
  48:       774.89    0.000000  (  0.000000   0.000000   0.000000)
  49:       817.62    0.000000  (  0.000000   0.000000   0.000000)
  50:       821.76    0.000000  (  0.000000   0.000000   0.000000)
  51:       829.24    0.000000  (  0.000000   0.000000   0.000000)
  52:       867.13    0.000000  (  0.000000   0.000000   0.000000)
  53:       880.72    0.000000  (  0.000000   0.000000   0.000000)
  54:       887.79    0.000000  (  0.000000   0.000000   0.000000)
  55:       907.16    0.000000  (  0.000000   0.000000   0.000000)
  56:       925.25    0.000000  (  0.000000   0.000000   0.000000)
  57:       930.15    0.000000  (  0.000000   0.000000   0.000000)
  58:       933.45    0.000000  (  0.000000   0.000000   0.000000)
  59:       936.66    0.000000  (  0.000000   0.000000   0.000000)
  60:       942.83    0.000000  (  0.000000   0.000000   0.000000)
  61:       952.12    0.000000  (  0.000000   0.000000   0.000000)
  62:       976.95    0.000000  (  0.000000   0.000000   0.000000)
  63:       983.61    0.000000  (  0.000000   0.000000   0.000000)
  64:      1018.34    0.000000  (  0.000000   0.000000   0.000000)
  65:      1043.26    0.000000  (  0.000000   0.000000   0.000000)
  66:      1057.95    0.000000  (  0.000000   0.000000   0.000000)
  67:      1067.41    0.000000  (  0.000000   0.000000   0.000000)
  68:      1071.35    0.000000  (  0.000000   0.000000   0.000000)
  69:      1088.80    0.000000  (  0.000000   0.000000   0.000000)
  70:      1102.82    0.000000  (  0.000000   0.000000   0.000000)
  71:      1107.87    0.000000  (  0.000000   0.000000   0.000000)
  72:      1112.12    0.000000  (  0.000000   0.000000   0.000000)
  73:      1118.03    0.000000  (  0.000000   0.000000   0.000000)
  74:      1122.12    0.000000  (  0.000000   0.000000   0.000000)
  75:      1134.31    0.000000  (  0.000000   0.000000   0.000000)
  76:      1134.87    0.000000  (  0.000000   0.000000   0.000000)
  77:      1177.91    0.000000  (  0.000000   0.000000   0.000000)
  78:      1183.97    0.000000  (  0.000000   0.000000   0.000000)
  79:      1197.21    0.000000  (  0.000000   0.000000   0.000000)
  80:      1205.69    0.000000  (  0.000000   0.000000   0.000000)
  81:      1206.97    0.000000  (  0.000000   0.000000   0.000000)
  82:      1230.34    0.000000  (  0.000000   0.000000   0.000000)
  83:      1251.91    0.000000  (  0.000000   0.000000   0.000000)
  84:      1262.62    0.000000  (  0.000000   0.000000   0.000000)
  85:      1266.80    0.000000  (  0.000000   0.000000   0.000000)
  86:      1271.98    0.000000  (  0.000000   0.000000   0.000000)
  87:      1274.85    0.000000  (  0.000000   0.000000   0.000000)
  88:      1276.43    0.000000  (  0.000000   0.000000   0.000000)
  89:      1280.11    0.000000  (  0.000000   0.000000   0.000000)
  90:      1281.90    0.000000  (  0.000000   0.000000   0.000000)
  91:      1286.35    0.000000  (  0.000000   0.000000   0.000000)
  92:      1298.19    0.000000  (  0.000000   0.000000   0.000000)
  93:      1309.34    0.000000  (  0.000000   0.000000   0.000000)
  94:      1337.05    0.000000  (  0.000000   0.000000   0.000000)
  95:      1340.96    0.000000  (  0.000000   0.000000   0.000000)
  96:      1373.35    0.000000  (  0.000000   0.000000   0.000000)
  97:      1376.13    0.000000  (  0.000000   0.000000   0.000000)
  98:      1421.40    0.000000  (  0.000000   0.000000   0.000000)
  99:      1425.66    0.000000  (  0.000000   0.000000   0.000000)
 100:      1428.27    0.000000  (  0.000000   0.000000   0.000000)
 101:      1428.48    0.000000  (  0.000000   0.000000   0.000000)
 102:      1460.68    0.000000  (  0.000000   0.000000   0.000000)
 103:      1495.80    0.000000  (  0.000000   0.000000   0.000000)
 104:      1498.89    0.000000  (  0.000000   0.000000   0.000000)
 105:      1504.68    0.000000  (  0.000000   0.000000   0.000000)
 106:      1506.60    0.000000  (  0.000000   0.000000   0.000000)
 107:      1507.05    0.000000  (  0.000000   0.000000   0.000000)
 108:      1507.79    0.000000  (  0.000000   0.000000   0.000000)
 109:      1507.97    0.000000  (  0.000000   0.000000   0.000000)
 110:      1508.61    0.000000  (  0.000000   0.000000   0.000000)
 111:      1512.41    0.000000  (  0.000000   0.000000   0.000000)
 112:      1512.90    0.000000  (  0.000000   0.000000   0.000000)
 113:      1553.77    0.000000  (  0.000000   0.000000   0.000000)
 114:      1564.59    0.000000  (  0.000000   0.000000   0.000000)
 115:      1568.08    0.000000  (  0.000000   0.000000   0.000000)
 116:      1576.18    0.000000  (  0.000000   0.000000   0.000000)
 117:      2869.18    0.000000  (  0.000000   0.000000   0.000000)
 118:      2910.53    0.000000  (  0.000000   0.000000   0.000000)
 119:      2926.39    0.000000  (  0.000000   0.000000   0.000000)
 120:      2938.40    0.000000  (  0.000000   0.000000   0.000000)
 121:      2938.56    0.000000  (  0.000000   0.000000   0.000000)
 122:      2943.33    0.000000  (  0.000000   0.000000   0.000000)
 123:      2945.95    0.000000  (  0.000000   0.000000   0.000000)
 124:      2952.47    0.000000  (  0.000000   0.000000   0.000000)
 125:      2955.22    0.000000  (  0.000000   0.000000   0.000000)
 126:      2960.15    0.000000  (  0.000000   0.000000   0.000000)
 127:      2963.75    0.000000  (  0.000000   0.000000   0.000000)
 128:      2967.55    0.000000  (  0.000000   0.000000   0.000000)
 129:      2972.97    0.000000  (  0.000000   0.000000   0.000000)
 130:      2976.64    0.000000  (  0.000000   0.000000   0.000000)
 131:      2979.19    0.000000  (  0.000000   0.000000   0.000000)
 132:      2982.67    0.000000  (  0.000000   0.000000   0.000000)
 133:      2985.53    0.000000  (  0.000000   0.000000   0.000000)
 134:      2995.46    0.000000  (  0.000000   0.000000   0.000000)
 135:      2997.59    0.000000  (  0.000000   0.000000   0.000000)
 136:      3047.79    0.000000  (  0.000000   0.000000   0.000000)
 137:      3052.67    0.000000  (  0.000000   0.000000   0.000000)
 138:      3057.53    0.000000  (  0.000000   0.000000   0.000000)
 139:      3068.01    0.000000  (  0.000000   0.000000   0.000000)
 140:      3083.80    0.000000  (  0.000000   0.000000   0.000000)
 141:      3204.12    0.000000  (  0.000000   0.000000   0.000000)
 142:      3301.81    0.000000  (  0.000000   0.000000   0.000000)
 143:      3351.72    0.000000  (  0.000000   0.000000   0.000000)
 144:      3408.98    0.000000  (  0.000000   0.000000   0.000000)
 145:      3506.27    0.000000  (  0.000000   0.000000   0.000000)
 146:      3583.12    0.000000  (  0.000000   0.000000   0.000000)

The first frequency considered to be a vibration is 6
The total number of vibrations considered is 141


--------------------------
THERMOCHEMISTRY AT 298.15K
--------------------------

Temperature         ... 298.15 K
Pressure            ... 1.00 atm
Total Mass          ... 270.42 AMU

Throughout the following assumptions are being made:
  (1) The electronic state is orbitally nondegenerate
  (2) There are no thermally accessible electronically excited states
  (3) Hindered rotations indicated by low frequency modes are not
      treated as such but are treated as vibrations and this may
      cause some error
  (4) All equations used are the standard statistical mechanics
      equations for an ideal gas
  (5) All vibrations are strictly harmonic

freq.      21.23  E(vib)   ...       0.56 
freq.      27.93  E(vib)   ...       0.55 
freq.      35.52  E(vib)   ...       0.54 
freq.      40.26  E(vib)   ...       0.54 
freq.      45.92  E(vib)   ...       0.53 
freq.      55.02  E(vib)   ...       0.52 
freq.      65.45  E(vib)   ...       0.50 
freq.      69.56  E(vib)   ...       0.50 
freq.      73.21  E(vib)   ...       0.49 
freq.      74.61  E(vib)   ...       0.49 
freq.      92.90  E(vib)   ...       0.47 
freq.     101.94  E(vib)   ...       0.46 
freq.     121.90  E(vib)   ...       0.44 
freq.     125.05  E(vib)   ...       0.43 
freq.     142.41  E(vib)   ...       0.41 
freq.     157.01  E(vib)   ...       0.40 
freq.     165.29  E(vib)   ...       0.39 
freq.     199.30  E(vib)   ...       0.35 
freq.     213.37  E(vib)   ...       0.34 
freq.     226.29  E(vib)   ...       0.33 
freq.     241.57  E(vib)   ...       0.31 
freq.     260.79  E(vib)   ...       0.30 
freq.     269.93  E(vib)   ...       0.29 
freq.     272.90  E(vib)   ...       0.29 
freq.     284.77  E(vib)   ...       0.28 
freq.     319.11  E(vib)   ...       0.25 
freq.     351.39  E(vib)   ...       0.23 
freq.     382.68  E(vib)   ...       0.20 
freq.     391.63  E(vib)   ...       0.20 
freq.     392.78  E(vib)   ...       0.20 
freq.     397.30  E(vib)   ...       0.20 
freq.     423.69  E(vib)   ...       0.18 
freq.     434.04  E(vib)   ...       0.17 
freq.     452.69  E(vib)   ...       0.16 
freq.     507.53  E(vib)   ...       0.14 
freq.     554.29  E(vib)   ...       0.12 
freq.     588.60  E(vib)   ...       0.10 
freq.     614.84  E(vib)   ...       0.10 
freq.     634.88  E(vib)   ...       0.09 
freq.     675.84  E(vib)   ...       0.08 
freq.     761.67  E(vib)   ...       0.06 
freq.     771.14  E(vib)   ...       0.05 
freq.     774.89  E(vib)   ...       0.05 
freq.     817.62  E(vib)   ...       0.05 
freq.     821.76  E(vib)   ...       0.05 
freq.     829.24  E(vib)   ...       0.04 
freq.     867.13  E(vib)   ...       0.04 
freq.     880.72  E(vib)   ...       0.04 
freq.     887.79  E(vib)   ...       0.04 
freq.     907.16  E(vib)   ...       0.03 
freq.     925.25  E(vib)   ...       0.03 
freq.     930.15  E(vib)   ...       0.03 
freq.     933.45  E(vib)   ...       0.03 
freq.     936.66  E(vib)   ...       0.03 
freq.     942.83  E(vib)   ...       0.03 
freq.     952.12  E(vib)   ...       0.03 
freq.     976.95  E(vib)   ...       0.03 
freq.     983.61  E(vib)   ...       0.02 
freq.    1018.34  E(vib)   ...       0.02 
freq.    1043.26  E(vib)   ...       0.02 
freq.    1057.95  E(vib)   ...       0.02 
freq.    1067.41  E(vib)   ...       0.02 
freq.    1071.35  E(vib)   ...       0.02 
freq.    1088.80  E(vib)   ...       0.02 
freq.    1102.82  E(vib)   ...       0.02 
freq.    1107.87  E(vib)   ...       0.02 
freq.    1112.12  E(vib)   ...       0.01 
freq.    1118.03  E(vib)   ...       0.01 
freq.    1122.12  E(vib)   ...       0.01 
freq.    1134.31  E(vib)   ...       0.01 
freq.    1134.87  E(vib)   ...       0.01 
freq.    1177.91  E(vib)   ...       0.01 
freq.    1183.97  E(vib)   ...       0.01 
freq.    1197.21  E(vib)   ...       0.01 
freq.    1205.69  E(vib)   ...       0.01 
freq.    1206.97  E(vib)   ...       0.01 
freq.    1230.34  E(vib)   ...       0.01 
freq.    1251.91  E(vib)   ...       0.01 
freq.    1262.62  E(vib)   ...       0.01 
freq.    1266.80  E(vib)   ...       0.01 
freq.    1271.98  E(vib)   ...       0.01 
freq.    1274.85  E(vib)   ...       0.01 
freq.    1276.43  E(vib)   ...       0.01 
freq.    1280.11  E(vib)   ...       0.01 
freq.    1281.90  E(vib)   ...       0.01 
freq.    1286.35  E(vib)   ...       0.01 
freq.    1298.19  E(vib)   ...       0.01 
freq.    1309.34  E(vib)   ...       0.01 
freq.    1337.05  E(vib)   ...       0.01 
freq.    1340.96  E(vib)   ...       0.01 
freq.    1373.35  E(vib)   ...       0.01 
freq.    1376.13  E(vib)   ...       0.01 
freq.    1421.40  E(vib)   ...       0.00 
freq.    1425.66  E(vib)   ...       0.00 
freq.    1428.27  E(vib)   ...       0.00 
freq.    1428.48  E(vib)   ...       0.00 
freq.    1460.68  E(vib)   ...       0.00 
freq.    1495.80  E(vib)   ...       0.00 
freq.    1498.89  E(vib)   ...       0.00 
freq.    1504.68  E(vib)   ...       0.00 
freq.    1506.60  E(vib)   ...       0.00 
freq.    1507.05  E(vib)   ...       0.00 
freq.    1507.79  E(vib)   ...       0.00 
freq.    1507.97  E(vib)   ...       0.00 
freq.    1508.61  E(vib)   ...       0.00 
freq.    1512.41  E(vib)   ...       0.00 
freq.    1512.90  E(vib)   ...       0.00 
freq.    1553.77  E(vib)   ...       0.00 
freq.    1564.59  E(vib)   ...       0.00 
freq.    1568.08  E(vib)   ...       0.00 
freq.    1576.18  E(vib)   ...       0.00 
freq.    2869.18  E(vib)   ...       0.00 
freq.    2910.53  E(vib)   ...       0.00 
freq.    2926.39  E(vib)   ...       0.00 
freq.    2938.40  E(vib)   ...       0.00 
freq.    2938.56  E(vib)   ...       0.00 
freq.    2943.33  E(vib)   ...       0.00 
freq.    2945.95  E(vib)   ...       0.00 
freq.    2952.47  E(vib)   ...       0.00 
freq.    2955.22  E(vib)   ...       0.00 
freq.    2960.15  E(vib)   ...       0.00 
freq.    2963.75  E(vib)   ...       0.00 
freq.    2967.55  E(vib)   ...       0.00 
freq.    2972.97  E(vib)   ...       0.00 
freq.    2976.64  E(vib)   ...       0.00 
freq.    2979.19  E(vib)   ...       0.00 
freq.    2982.67  E(vib)   ...       0.00 
freq.    2985.53  E(vib)   ...       0.00 
freq.    2995.46  E(vib)   ...       0.00 
freq.    2997.59  E(vib)   ...       0.00 
freq.    3047.79  E(vib)   ...       0.00 
freq.    3052.67  E(vib)   ...       0.00 
freq.    3057.53  E(vib)   ...       0.00 
freq.    3068.01  E(vib)   ...       0.00 
freq.    3083.80  E(vib)   ...       0.00 
freq.    3204.12  E(vib)   ...       0.00 
freq.    3301.81  E(vib)   ...       0.00 
freq.    3351.72  E(vib)   ...       0.00 
freq.    3408.98  E(vib)   ...       0.00 
freq.    3506.27  E(vib)   ...       0.00 
freq.    3583.12  E(vib)   ...       0.00 

------------
INNER ENERGY
------------

The inner energy is: U= E(el) + E(ZPE) + E(vib) + E(rot) + E(trans)
    E(el)   - is the total energy from the electronic structure calculation
              = E(kin-el) + E(nuc-el) + E(el-el) + E(nuc-nuc)
    E(ZPE)  - the the zero temperature vibrational energy from the frequency calculation
    E(vib)  - the the finite temperature correction to E(ZPE) due to population
              of excited vibrational states
    E(rot)  - is the rotational thermal energy
    E(trans)- is the translational thermal energy

Summary of contributions to the inner energy U:
Electronic energy                ...    -61.40062341 Eh
Zero point energy                ...      0.42736610 Eh     268.18 kcal/mol
Thermal vibrational correction   ...      0.02266826 Eh      14.22 kcal/mol
Thermal rotational correction    ...      0.00141627 Eh       0.89 kcal/mol
Thermal translational correction ...      0.00141627 Eh       0.89 kcal/mol
-----------------------------------------------------------------------
Total thermal energy                    -60.94775650 Eh


Summary of corrections to the electronic energy:
(perhaps to be used in another calculation)
Total thermal correction                  0.02550081 Eh      16.00 kcal/mol
Non-thermal (ZPE) correction              0.42736610 Eh     268.18 kcal/mol
-----------------------------------------------------------------------
Total correction                          0.45286691 Eh     284.18 kcal/mol


--------
ENTHALPY
--------

The enthalpy is H = U + kB*T
                kB is Boltzmann's constant
Total free energy                 ...    -60.94775650 Eh 
Thermal Enthalpy correction       ...      0.00094421 Eh       0.59 kcal/mol
-----------------------------------------------------------------------
Total Enthalpy                    ...    -60.94681229 Eh


Note: Only C1 symmetry has been detected, increase convergence thresholds 
      if your molecule has a higher symmetry. Symmetry factor of 1.0 is   
      used for the rotational entropy correction. 
 

Note: Rotational entropy computed according to Herzberg 
Infrared and Raman Spectra, Chapter V,1, Van Nostrand Reinhold, 1945 
Point Group:  C1, Symmetry Number:   1  
Rotational constants in cm-1:     0.009804     0.006434     0.004691 

Vibrational entropy computed according to the QRRHO of S. Grimme
Chem.Eur.J. 2012 18 9955


-------
ENTROPY
-------

The entropy contributions are T*S = T*(S(el)+S(vib)+S(rot)+S(trans))
     S(el)   - electronic entropy
     S(vib)  - vibrational entropy
     S(rot)  - rotational entropy
     S(trans)- translational entropy
The entropies will be listed as mutliplied by the temperature to get
units of energy

Electronic entropy                ...      0.00000000 Eh      0.00 kcal/mol
Vibrational entropy               ...      0.04158956 Eh     26.10 kcal/mol
Rotational entropy                ...      0.01660782 Eh     10.42 kcal/mol
Translational entropy             ...      0.02028014 Eh     12.73 kcal/mol
-----------------------------------------------------------------------
Final entropy term                ...      0.07847752 Eh     49.25 kcal/mol

In case the symmetry of your molecule has not been determined correctly
or in case you have a reason to use a different symmetry number we print 
out the resulting rotational entropy values for sn=1,12 :
 --------------------------------------------------------
|  sn= 1 | S(rot)=       0.01660782 Eh     10.42 kcal/mol|
|  sn= 2 | S(rot)=       0.01595336 Eh     10.01 kcal/mol|
|  sn= 3 | S(rot)=       0.01557053 Eh      9.77 kcal/mol|
|  sn= 4 | S(rot)=       0.01529890 Eh      9.60 kcal/mol|
|  sn= 5 | S(rot)=       0.01508822 Eh      9.47 kcal/mol|
|  sn= 6 | S(rot)=       0.01491607 Eh      9.36 kcal/mol|
|  sn= 7 | S(rot)=       0.01477053 Eh      9.27 kcal/mol|
|  sn= 8 | S(rot)=       0.01464445 Eh      9.19 kcal/mol|
|  sn= 9 | S(rot)=       0.01453324 Eh      9.12 kcal/mol|
|  sn=10 | S(rot)=       0.01443376 Eh      9.06 kcal/mol|
|  sn=11 | S(rot)=       0.01434377 Eh      9.00 kcal/mol|
|  sn=12 | S(rot)=       0.01426162 Eh      8.95 kcal/mol|
 --------------------------------------------------------


-------------------
GIBBS FREE ENERGY
-------------------

The Gibbs free energy is G = H - T*S

Total enthalpy                    ...    -60.94681229 Eh 
Total entropy correction          ...     -0.07847752 Eh    -49.25 kcal/mol
-----------------------------------------------------------------------
Final Gibbs free energy         ...    -61.02528981 Eh

For completeness - the Gibbs free energy minus the electronic energy
G-E(el)                           ...      0.37533360 Eh    235.52 kcal/mol


Total Time for Numerical Frequencies  :       197.269 sec
Time for Reference State(s)           :         0.234 sec
Time for Displacements                :       172.717 sec

Timings for individual modules:

Sum of individual times         ...        0.447 sec (=   0.007 min)
XTB module                      ...        0.447 sec (=   0.007 min) 100.0 %
                             ****ORCA TERMINATED NORMALLY****
TOTAL RUN TIME: 0 days 0 hours 3 minutes 18 seconds 180 msec
(SLURM) EXECUTION TIME: 198.215738069 seconds.
