(SLURM) JOB ID:         106

                                 *****************
                                 * O   R   C   A *
                                 *****************

           --- An Ab Initio, DFT and Semiempirical electronic structure package ---

                  #######################################################
                  #                        -***-                        #
                  #          Department of theory and spectroscopy      #
                  #               Directorship: Frank Neese             #
                  #        Max Planck Institute fuer Kohlenforschung    #
                  #                Kaiser Wilhelm Platz 1               #
                  #                 D-45470 Muelheim/Ruhr               #
                  #                      Germany                        #
                  #                                                     #
                  #                  All rights reserved                #
                  #                        -***-                        #
                  #######################################################


                         Program Version 4.2.1 -  RELEASE  -


 With contributions from (in alphabetic order):
   Daniel Aravena         : Magnetic Suceptibility
   Michael Atanasov       : Ab Initio Ligand Field Theory (pilot matlab implementation)
   Alexander A. Auer      : GIAO ZORA, VPT2
   Ute Becker             : Parallelization
   Giovanni Bistoni       : ED, misc. LED, open-shell LED, HFLD
   Martin Brehm           : Molecular dynamics
   Dmytro Bykov           : SCF Hessian
   Vijay G. Chilkuri      : MRCI spin determinant printing, contributions to CSF-ICE
   Dipayan Datta          : RHF DLPNO-CCSD density
   Achintya Kumar Dutta   : EOM-CC, STEOM-CC
   Dmitry Ganyushin       : Spin-Orbit,Spin-Spin,Magnetic field MRCI
   Miquel Garcia          : C-PCM Hessian, Gaussian charge scheme
   Yang Guo               : DLPNO-NEVPT2, CIM, IAO-localization
   Andreas Hansen         : Spin unrestricted coupled pair/coupled cluster methods
   Benjamin Helmich-Paris : CASSCF linear response (MC-RPA)
   Lee Huntington         : MR-EOM, pCC
   Robert Izsak           : Overlap fitted RIJCOSX, COSX-SCS-MP3, EOM
   Christian Kollmar      : KDIIS, OOCD, Brueckner-CCSD(T), CCSD density
   Simone Kossmann        : Meta GGA functionals, TD-DFT gradient, OOMP2, MP2 Hessian
   Martin Krupicka        : AUTO-CI
   Lucas Lang             : DCDCAS
   Dagmar Lenk            : GEPOL surface, SMD
   Dimitrios Liakos       : Extrapolation schemes; Compound Job, initial MDCI parallelization
   Dimitrios Manganas     : Further ROCIS development; embedding schemes
   Dimitrios Pantazis     : SARC Basis sets
   Taras Petrenko         : DFT Hessian,TD-DFT gradient, ASA, ECA, R-Raman, ABS, FL, XAS/XES, NRVS
   Peter Pinski           : DLPNO-MP2, DLPNO-MP2 Gradient
   Christoph Reimann      : Effective Core Potentials
   Marius Retegan         : Local ZFS, SOC
   Christoph Riplinger    : Optimizer, TS searches, QM/MM, DLPNO-CCSD(T), (RO)-DLPNO pert. Triples
   Tobias Risthaus        : Range-separated hybrids, TD-DFT gradient, RPA, STAB
   Michael Roemelt        : Original ROCIS implementation
   Masaaki Saitow         : Open-shell DLPNO-CCSD energy and density
   Barbara Sandhoefer     : DKH picture change effects
   Avijit Sen             : IP-ROCIS
   Kantharuban Sivalingam : CASSCF convergence, NEVPT2, FIC-MRCI
   Bernardo de Souza      : ESD, SOC TD-DFT
   Georgi Stoychev        : AutoAux, RI-MP2 NMR
   Willem Van den Heuvel  : Paramagnetic NMR
   Boris Wezisla          : Elementary symmetry handling
   Frank Wennmohs         : Technical directorship


 We gratefully acknowledge several colleagues who have allowed us to
 interface, adapt or use parts of their codes:
   Stefan Grimme, W. Hujo, H. Kruse,             : VdW corrections, initial TS optimization,
                  C. Bannwarth                     DFT functionals, gCP, sTDA/sTD-DF
   Ed Valeev, F. Pavosevic, A. Kumar             : LibInt (2-el integral package), F12 methods
   Garnet Chan, S. Sharma, J. Yang, R. Olivares  : DMRG
   Ulf Ekstrom                                   : XCFun DFT Library
   Mihaly Kallay                                 : mrcc  (arbitrary order and MRCC methods)
   Andreas Klamt, Michael Diedenhofen            : otool_cosmo (COSMO solvation model)
   Jiri Pittner, Ondrej Demel                    : Mk-CCSD
   Frank Weinhold                                : gennbo (NPA and NBO analysis)
   Christopher J. Cramer and Donald G. Truhlar   : smd solvation model
   Lars Goerigk                                  : TD-DFT with DH, B97 family of functionals
   V. Asgeirsson, H. Jonsson                     : NEB implementation
   FAccTs GmbH                                   : IRC, NEB, NEB-TS, Multilevel, MM, QM/MM, CI optimization
   S Lehtola, MJT Oliveira, MAL Marques          : LibXC Library


 Your calculation uses the libint2 library for the computation of 2-el integrals
 For citations please refer to: http://libint.valeyev.net

 Your ORCA version has been built with support for libXC version: 4.2.3
 For citations please refer to: https://tddft.org/programs/libxc/

 This ORCA versions uses:
   CBLAS   interface :  Fast vector & matrix operations
   LAPACKE interface :  Fast linear algebra routines
   SCALAPACK package :  Parallel linear algebra routines




***************************************
The coordinates will be read from file: init.xyz
***************************************


Your calculation utilizes the SMD solvation module
Please cite in your paper:
A.V. Marenich, C.J. Cramer, D.G. Truhlar J. Phys. Chem. B, 113, (2009), 6378 

Your calculation utilizes the semiempirical GFN2-xTB method
Please cite in your paper:
C. Bannwarth, Ehlert S., S. Grimme,  J. Chem. Theory Comput., 15, (2019), 1652.
   

----- Orbital basis set information -----
Your calculation utilizes the basis: def2-SVP
   F. Weigend and R. Ahlrichs, Phys. Chem. Chem. Phys. 7, 3297 (2005).

================================================================================
                                        WARNINGS
                       Please study these warnings very carefully!
================================================================================

WARNING: Gradients needed for Numerical Frequencies
  ===> : Setting RunTyp to EnGrad

WARNING: The environment variable RSH_COMMAND is not set!
  ===> : All Displacements for the Numerical Hessian calculation
         will be started on localhost

WARNING: Found dipole moment calculation with XTB calculation
  ===> : Switching off dipole moment calculation


INFO   : the flag for use of LIBINT has been found!

================================================================================
                                       INPUT FILE
================================================================================
NAME = /tmp/slurm-scratch/freq.106/freq.inp
|  1> ! XTB2 NumFreq
|  2> %maxcore 1450
|  3> 
|  4> * xyzfile 0 1 init.xyz
|  5> 
|  6> %cpcm
|  7>  smd true
|  8>  smdsolvent "ch2cl2"
|  9> end
| 10> %pal nprocs 8 end
| 11> 
| 12>                          ****END OF INPUT****
================================================================================

                     *******************************
                     * Energy+Gradient Calculation *
                     *******************************

      -----------------------------------------------------------      
     |                   =====================                   |     
     |                           x T B                           |     
     |                   =====================                   |     
     |                         S. Grimme                         |     
     |          Mulliken Center for Theoretical Chemistry        |     
     |                    University of Bonn                     |     
      -----------------------------------------------------------      

   * xtb version 6.3.0 (preview) compiled by 'ehlert@majestix' on 2020-01-15

   This program is distributed in the hope that it will be useful,
   but WITHOUT ANY WARRANTY; without even the implied warranty of
   MERCHANTABILITY or FITNESS FOR A PARTICULAR PURPOSE.
   
   FOR NON-COMMERCIAL, ACADEMIA USE ONLY.
   
   Cite this work as:
   * S. Grimme, C. Bannwarth, P. Shushkov, J. Chem. Theory Comput., 2017,
     13, 1989-2009. DOI: 10.1021/acs.jctc.7b00118
   * C. Bannwarth, S. Ehlert and S. Grimme., J. Chem. Theory Comput., 2019,
     15, 1652-1671. DOI: 10.1021/acs.jctc.8b01176
   * P. Pracht, E. Caldeweyher, S. Ehlert, S. Grimme, ChemRxiv, 2019, preprint.
     DOI: 10.26434/chemrxiv.8326202.v1
   * S. Grimme, S. Spicher unpublished
   
   for DFT-D4:
   * E. Caldeweyher, C. Bannwarth and S. Grimme, J. Chem. Phys., 2017,
     147, 034112. DOI: 10.1063/1.4993215
   * E. Caldeweyher, S. Ehlert, A. Hansen, H. Neugebauer, S. Spicher,
     C. Bannwarth and S. Grimme, J. Chem. Phys., 2019, 150, 154122.
     DOI: 10.1063/1.5090222
   
   for sTDA-xTB:
   * S. Grimme and C. Bannwarth, J. Chem. Phys., 2016, 145, 054103.
     DOI: 10.1063/1.4959605
   
   in the mass-spec context:
   * V. Asgeirsson, C. Bauer and S. Grimme, Chem. Sci., 2017, 8, 4879.
     DOI: 10.1039/c7sc00601b
   
   for metadynamics refer to:
   * S. Grimme, J. Chem. Theory Comput., 2019, 155, 2847-2862
     DOI: 10.1021/acs.jctc.9b00143
   
   with help from (in alphabetical order)
   C. Bannwarth, F. Bohle, G. Brandenburg, E. Caldeweyher, M. Checinski,
   S. Dohm, S. Ehlert, S. Ehrlich, F. März, H. Neugebauer, J. Pisarek,
   P. Pracht, P. Shushkov, and S. Spicher.
   
 * started run on 2020/08/21 at 04:40:27.947     

           -------------------------------------------------
          |                Calculation Setup                |
           -------------------------------------------------

          program call               : /opt/orca/otool_xtb /tmp/slurm-scratch/freq.106/freq_XTB.xyz --grad -c 0 -u 0 -P 8 --namespace /tmp/slurm-scratch/freq.106/freq --gbsa CH2Cl2
          hostname                   : headnode-pbs
          calculation namespace      : /tmp/slurm-scratch/freq.106/freq
          coordinate file            : /tmp/slurm-scratch/freq.106/freq_XTB.xyz
          omp threads                :                     8
          number of atoms            :                    30
          number of electrons        :                    72
          charge                     :                     0
          spin                       :                   0.0
          first test random number   :      0.00742862077031


########################################################################
# WARNING! Please study the warnings concerning your input carefully
#  - Process number higher than OMP_NUM_THREADS, I hope you know what you are doing.
########################################################################

           ------------------------------------------------- 
          |                 G F N 2 - x T B                 |
          | Geometry, Frequencies, Noncovalent interactions |
          |            JCTC 2019 parametrisation            |
           ------------------------------------------------- 
             k(s)              :                1.8500
             k(p)              :                2.2300
             k(d)              :                2.2300
             k(f)              :                2.0000
             kEN (H0ij)        :               -2.0000
             D4 a1             :                0.5200
             D4 a2             :                5.0000
             D4 s6             :                1.0000
             D4 s8             :                2.7000
             D4 s9             :                5.0000
             alphaj            :                2.0000

  Z AO/shell   Hii/eV     exponent
  1     Wed Apr 25 08:07:45 CEST 2018   EN: 2.200 GM2: 0.406  GM3: 0.0800  RAES: 1.40
     1s    -10.707211    1.230000
  6     Wed Apr 25 08:07:45 CEST 2018   EN: 2.550 GM2: 0.538  GM3: 0.1500  RAES: 3.00
     2s    -13.970922    2.096432
     2p    -10.063292    1.800000
  7     Wed Apr 25 08:07:45 CEST 2018   EN: 3.040 GM2: 0.461  GM3:-0.0640  RAES: 1.90
     2s    -16.686243    2.339881
     2p    -12.523956    2.014332
  8     Wed Apr 25 08:07:45 CEST 2018   EN: 3.440 GM2: 0.452  GM3:-0.0517  RAES: 1.80
     2s    -20.229985    2.439742
     2p    -15.503117    2.137023

 Solvent             : CH2Cl2
 Using internal parameter file: .param_gbsa2_CH2Cl2
 Gsolv ref. state (COSMO-RS): gsolv [1 M gas/solution]
 temperature (mdtemp)       :    298.150000000000     
 dielectric constant        :    8.93000000000000     
 rho                        :    1.33000000000000     
 mass                       :    84.9300000000000     
 surface tension            :    15.5689454083859     
 probe radius               :   0.719875900000000     
 Gshift (Eh)                :   4.440829173451759E-003
 c1                         :    1.49173776000000     
 soset                      :   0.000000000000000E+000
 HB correction              :  F
           ------------------------------------------------- 
          |        Self-Consistent Charge Iterations        |
           ------------------------------------------------- 

          ...................................................
          :                      SETUP                      :
          :.................................................:
          :  # basis functions                  69          :
          :  # atomic orbitals                  69          :
          :  # shells                           43          :
          :  # electrons                        72          :
          :  max. iterations                   250          :
          :  Hamiltonian                  GFN2-xTB          :
          :  GBSA solvation                   true          :
          :  PC potential                    false          :
          :  electronic temp.          300.0000000     K    :
          :  accuracy                    1.0000000          :
          :  -> integral cutoff          0.2500000E+02      :
          :  -> integral neglect         0.1000000E-07      :
          :  -> SCF convergence          0.1000000E-05 Eh   :
          :  -> wf. convergence          0.1000000E-03 e    :
          :  Broyden damping             0.4000000          :
          ...................................................
  Checking positiv definite overlap ...  done.
 

 iter      E             dE          RMSdq      gap      omega  full diag
   1    -39.5566919 -0.395567E+02  0.415E+00    4.46       0.0  T
   2    -39.6551801 -0.984882E-01  0.230E+00    3.89       1.0  T
   3    -39.6568302 -0.165012E-02  0.943E-01    3.36       1.0  T
   4    -39.6566782  0.152046E-03  0.306E-01    3.41       1.0  T
   5    -39.6590794 -0.240128E-02  0.815E-02    3.49       1.0  T
   6    -39.6591210 -0.415638E-04  0.324E-02    3.53       1.0  T
   7    -39.6591231 -0.211157E-05  0.138E-02    3.53       1.3  T
   8    -39.6591246 -0.145048E-05  0.386E-03    3.53       4.7  T
   9    -39.6591247 -0.905802E-07  0.209E-03    3.53       8.7  T
  10    -39.6591247 -0.279065E-07  0.789E-04    3.53      23.2  T
  11    -39.6591247 -0.240665E-08  0.351E-04    3.53      52.0  T

   *** convergence criteria satisfied after 11 iterations ***

         #    Occupation            Energy/Eh            Energy/eV
      -------------------------------------------------------------
         1        2.0000           -0.6718289             -18.2814
       ...           ...                  ...                  ...
        30        2.0000           -0.4342143             -11.8156
        31        2.0000           -0.4314862             -11.7413
        32        2.0000           -0.4271846             -11.6243
        33        2.0000           -0.4085833             -11.1181
        34        2.0000           -0.4068208             -11.0702
        35        2.0000           -0.3804183             -10.3517
        36        2.0000           -0.3688494             -10.0369 (HOMO)
        37                         -0.2392722              -6.5109 (LUMO)
        38                         -0.2330321              -6.3411
        39                         -0.1215955              -3.3088
        40                         -0.0643114              -1.7500
        41                         -0.0557157              -1.5161
       ...                                ...                  ...
        69                          0.6127351              16.6734
      -------------------------------------------------------------
                  HL-Gap            0.1295772 Eh            3.5260 eV
             Fermi-level           -0.3040608 Eh           -8.2739 eV

 SCC (total)                   0 d,  0 h,  0 min,  0.225 sec
 SCC setup                      ...        0 min,  0.009 sec (  3.847%)
 Dispersion                     ...        0 min,  0.002 sec (  0.998%)
 integral evaluation            ...        0 min,  0.028 sec ( 12.397%)
 zeroth order Hamiltonian       ...        0 min,  0.000 sec (  0.031%)
 iterations                     ...        0 min,  0.174 sec ( 77.390%)
 molecular gradient             ...        0 min,  0.010 sec (  4.630%)
 printout                       ...        0 min,  0.001 sec (  0.644%)

         :::::::::::::::::::::::::::::::::::::::::::::::::::::
         ::                     SUMMARY                     ::
         :::::::::::::::::::::::::::::::::::::::::::::::::::::
         :: total energy             -39.152197089517 Eh    ::
         :: total w/o Gsasa/hb       -39.136928692600 Eh    ::
         :: gradient norm              0.051597448279 Eh/a0 ::
         :: HOMO-LUMO gap              3.525975369147 eV    ::
         ::.................................................::
         :: SCC energy               -39.674393078642 Eh    ::
         :: -> isotropic ES            0.076355550000 Eh    ::
         :: -> anisotropic ES          0.006269639658 Eh    ::
         :: -> anisotropic XC          0.020920542694 Eh    ::
         :: -> dispersion             -0.023735650910 Eh    ::
         :: -> Gsolv                  -0.026898288295 Eh    ::
         ::    -> Gborn               -0.011629891377 Eh    ::
         ::    -> Gsasa               -0.019709226091 Eh    ::
         ::    -> Ghb                  0.000000000000 Eh    ::
         ::    -> Gshift               0.004440829173 Eh    ::
         :: repulsion energy           0.522015922206 Eh    ::
         :: add. restraining           0.000000000000 Eh    ::
         :::::::::::::::::::::::::::::::::::::::::::::::::::::

           -------------------------------------------------
          |                Property Printout                |
           -------------------------------------------------

    * Orbital Energies and Occupations

         #    Occupation            Energy/Eh            Energy/eV
      -------------------------------------------------------------
         1        2.0000           -0.6718289             -18.2814
       ...           ...                  ...                  ...
        24        2.0000           -0.4791449             -13.0382
        25        2.0000           -0.4731205             -12.8743
        26        2.0000           -0.4701141             -12.7925
        27        2.0000           -0.4555675             -12.3966
        28        2.0000           -0.4499711             -12.2443
        29        2.0000           -0.4438965             -12.0790
        30        2.0000           -0.4342143             -11.8156
        31        2.0000           -0.4314862             -11.7413
        32        2.0000           -0.4271846             -11.6243
        33        2.0000           -0.4085833             -11.1181
        34        2.0000           -0.4068208             -11.0702
        35        2.0000           -0.3804183             -10.3517
        36        2.0000           -0.3688494             -10.0369 (HOMO)
        37                         -0.2392722              -6.5109 (LUMO)
        38                         -0.2330321              -6.3411
        39                         -0.1215955              -3.3088
        40                         -0.0643114              -1.7500
        41                         -0.0557157              -1.5161
        42                          0.0462360               1.2581
        43                          0.0679702               1.8496
        44                          0.0763470               2.0775
        45                          0.0828512               2.2545
        46                          0.1027755               2.7967
        47                          0.1123839               3.0581
       ...                                ...                  ...
        69                          0.6127351              16.6734
      -------------------------------------------------------------
                  HL-Gap            0.1295772 Eh            3.5260 eV
             Fermi-level           -0.3040608 Eh           -8.2739 eV

     #   Z        covCN         q      C6AA      α(0)
     1   6 C      2.912    -0.037    28.918     8.818
     2   6 C      2.958    -0.017    28.439     8.747
     3   6 C      2.911    -0.029    28.720     8.788
     4   6 C      2.908    -0.030    28.753     8.793
     5   6 C      2.908    -0.029    28.735     8.790
     6   6 C      2.908    -0.029    28.732     8.789
     7   1 H      0.925     0.031     2.572     2.508
     8   1 H      0.925     0.041     2.431     2.438
     9   1 H      0.925     0.041     2.431     2.438
    10   6 C      3.670     0.176    17.998     6.082
    11   1 H      0.922     0.008     2.929     2.676
    12   8 O      1.048    -0.669    27.735     7.066
    13   7 N      3.384    -0.210    25.553     7.508
    14   1 H      0.930     0.317     0.661     1.271
    15   6 C      3.797    -0.063    21.718     6.636
    16   6 C      3.729    -0.003    20.723     6.499
    17   1 H      0.923     0.065     2.145     2.290
    18   1 H      0.923     0.061     2.191     2.315
    19   1 H      0.923     0.043     2.415     2.430
    20   1 H      0.923     0.041     2.432     2.439
    21   1 H      0.859     0.181     1.207     1.721
    22   6 C      3.796    -0.054    21.548     6.610
    23   1 H      0.923     0.038     2.476     2.461
    24   1 H      0.923     0.036     2.501     2.473
    25   1 H      0.925     0.042     2.429     2.437
    26   1 H      0.925     0.040     2.451     2.448
    27   6 C      3.745    -0.102    22.515     6.768
    28   1 H      0.923     0.039     2.469     2.457
    29   1 H      0.923     0.036     2.507     2.476
    30   1 H      0.923     0.037     2.488     2.467

 Mol. C6AA /au·bohr⁶  :       8200.143031
 Mol. C8AA /au·bohr⁸  :     185508.968605
 Mol. α(0) /au        :        139.639848


Wiberg/Mayer (AO) data.
largest (>0.10) Wiberg bond orders for each atom
          total WBO             WBO to atom ...
     1  C   3.990        C    6 1.442    C    2 1.412    H    7 0.968    C    4 0.111
     2  C   3.985        C    1 1.412    C    3 1.409    C   10 0.984    C    5 0.109
     3  C   3.990        C    4 1.447    C    2 1.409    H    8 0.968    C    6 0.111
     4  C   3.990        C    3 1.447    C    5 1.435    H   26 0.971    C    1 0.111
     5  C   3.990        C    6 1.439    C    4 1.435    H    9 0.971    C    2 0.109
     6  C   3.990        C    1 1.442    C    5 1.439    H   25 0.970    C    3 0.111
     7  H   0.999        C    1 0.968
     8  H   0.998        C    3 0.968
     9  H   0.998        C    5 0.971
    10  C   3.942        O   12 1.067    C    2 0.984    H   11 0.948    N   13 0.869
    11  H   1.000        C   10 0.948
    12  O   1.680        C   10 1.067    H   14 0.352    N   13 0.157
    13  N   3.517        C   16 0.978    H   21 0.943    C   10 0.869    H   14 0.510    O   12 0.157
    14  H   0.899        N   13 0.510    O   12 0.352
    15  C   3.993        C   22 1.004    C   16 1.003    H   19 0.975    H   20 0.975
    16  C   3.959        C   15 1.003    N   13 0.978    H   18 0.972    H   17 0.967
    17  H   0.995        C   16 0.967
    18  H   0.996        C   16 0.972
    19  H   0.998        C   15 0.975
    20  H   0.998        C   15 0.975
    21  H   0.967        N   13 0.943
    22  C   3.994        C   27 1.019    C   15 1.004    H   24 0.978    H   23 0.978
    23  H   0.999        C   22 0.978
    24  H   0.999        C   22 0.978
    25  H   0.998        C    6 0.970
    26  H   0.998        C    4 0.971
    27  C   3.995        C   22 1.019    H   29 0.988    H   30 0.988    H   28 0.987
    28  H   0.998        C   27 0.987
    29  H   0.999        C   27 0.988
    30  H   0.999        C   27 0.988

molecular dipole:
                 x           y           z       tot (Debye)
 q only:       -0.890      -0.048      -2.214
   full:       -1.109      -0.004      -2.323       6.542
molecular quadrupole (traceless):
                xx          xy          yy          xz          yz          zz
 q only:       -7.188       2.675       1.310      -8.022      13.047       5.878
  q+dip:       -7.570       4.211       4.420      -9.727      12.351       3.150
   full:       -8.546       4.199       2.667      -9.350      12.257       5.879

           -------------------------------------------------
          |                Property Printout                |
           -------------------------------------------------

    * Orbital Energies and Occupations

         #    Occupation            Energy/Eh            Energy/eV
      -------------------------------------------------------------
         1        2.0000           -0.6718289             -18.2814
       ...           ...                  ...                  ...
        24        2.0000           -0.4791449             -13.0382
        25        2.0000           -0.4731205             -12.8743
        26        2.0000           -0.4701141             -12.7925
        27        2.0000           -0.4555675             -12.3966
        28        2.0000           -0.4499711             -12.2443
        29        2.0000           -0.4438965             -12.0790
        30        2.0000           -0.4342143             -11.8156
        31        2.0000           -0.4314862             -11.7413
        32        2.0000           -0.4271846             -11.6243
        33        2.0000           -0.4085833             -11.1181
        34        2.0000           -0.4068208             -11.0702
        35        2.0000           -0.3804183             -10.3517
        36        2.0000           -0.3688494             -10.0369 (HOMO)
        37                         -0.2392722              -6.5109 (LUMO)
        38                         -0.2330321              -6.3411
        39                         -0.1215955              -3.3088
        40                         -0.0643114              -1.7500
        41                         -0.0557157              -1.5161
        42                          0.0462360               1.2581
        43                          0.0679702               1.8496
        44                          0.0763470               2.0775
        45                          0.0828512               2.2545
        46                          0.1027755               2.7967
        47                          0.1123839               3.0581
       ...                                ...                  ...
        69                          0.6127351              16.6734
      -------------------------------------------------------------
                  HL-Gap            0.1295772 Eh            3.5260 eV
             Fermi-level           -0.3040608 Eh           -8.2739 eV

     #   Z        covCN         q      C6AA      α(0)
     1   6 C      2.912    -0.037    28.918     8.818
     2   6 C      2.958    -0.017    28.439     8.747
     3   6 C      2.911    -0.029    28.720     8.788
     4   6 C      2.908    -0.030    28.753     8.793
     5   6 C      2.908    -0.029    28.735     8.790
     6   6 C      2.908    -0.029    28.732     8.789
     7   1 H      0.925     0.031     2.572     2.508
     8   1 H      0.925     0.041     2.431     2.438
     9   1 H      0.925     0.041     2.431     2.438
    10   6 C      3.670     0.176    17.998     6.082
    11   1 H      0.922     0.008     2.929     2.676
    12   8 O      1.048    -0.669    27.735     7.066
    13   7 N      3.384    -0.210    25.553     7.508
    14   1 H      0.930     0.317     0.661     1.271
    15   6 C      3.797    -0.063    21.718     6.636
    16   6 C      3.729    -0.003    20.723     6.499
    17   1 H      0.923     0.065     2.145     2.290
    18   1 H      0.923     0.061     2.191     2.315
    19   1 H      0.923     0.043     2.415     2.430
    20   1 H      0.923     0.041     2.432     2.439
    21   1 H      0.859     0.181     1.207     1.721
    22   6 C      3.796    -0.054    21.548     6.610
    23   1 H      0.923     0.038     2.476     2.461
    24   1 H      0.923     0.036     2.501     2.473
    25   1 H      0.925     0.042     2.429     2.437
    26   1 H      0.925     0.040     2.451     2.448
    27   6 C      3.745    -0.102    22.515     6.768
    28   1 H      0.923     0.039     2.469     2.457
    29   1 H      0.923     0.036     2.507     2.476
    30   1 H      0.923     0.037     2.488     2.467

 Mol. C6AA /au·bohr⁶  :       8200.143031
 Mol. C8AA /au·bohr⁸  :     185508.968605
 Mol. α(0) /au        :        139.639848


Wiberg/Mayer (AO) data.
largest (>0.10) Wiberg bond orders for each atom
          total WBO             WBO to atom ...
     1  C   3.990        C    6 1.442    C    2 1.412    H    7 0.968    C    4 0.111
     2  C   3.985        C    1 1.412    C    3 1.409    C   10 0.984    C    5 0.109
     3  C   3.990        C    4 1.447    C    2 1.409    H    8 0.968    C    6 0.111
     4  C   3.990        C    3 1.447    C    5 1.435    H   26 0.971    C    1 0.111
     5  C   3.990        C    6 1.439    C    4 1.435    H    9 0.971    C    2 0.109
     6  C   3.990        C    1 1.442    C    5 1.439    H   25 0.970    C    3 0.111
     7  H   0.999        C    1 0.968
     8  H   0.998        C    3 0.968
     9  H   0.998        C    5 0.971
    10  C   3.942        O   12 1.067    C    2 0.984    H   11 0.948    N   13 0.869
    11  H   1.000        C   10 0.948
    12  O   1.680        C   10 1.067    H   14 0.352    N   13 0.157
    13  N   3.517        C   16 0.978    H   21 0.943    C   10 0.869    H   14 0.510    O   12 0.157
    14  H   0.899        N   13 0.510    O   12 0.352
    15  C   3.993        C   22 1.004    C   16 1.003    H   19 0.975    H   20 0.975
    16  C   3.959        C   15 1.003    N   13 0.978    H   18 0.972    H   17 0.967
    17  H   0.995        C   16 0.967
    18  H   0.996        C   16 0.972
    19  H   0.998        C   15 0.975
    20  H   0.998        C   15 0.975
    21  H   0.967        N   13 0.943
    22  C   3.994        C   27 1.019    C   15 1.004    H   24 0.978    H   23 0.978
    23  H   0.999        C   22 0.978
    24  H   0.999        C   22 0.978
    25  H   0.998        C    6 0.970
    26  H   0.998        C    4 0.971
    27  C   3.995        C   22 1.019    H   29 0.988    H   30 0.988    H   28 0.987
    28  H   0.998        C   27 0.987
    29  H   0.999        C   27 0.988
    30  H   0.999        C   27 0.988

molecular dipole:
                 x           y           z       tot (Debye)
 q only:       -0.890      -0.048      -2.214
   full:       -1.109      -0.004      -2.323       6.542
molecular quadrupole (traceless):
                xx          xy          yy          xz          yz          zz
 q only:       -7.188       2.675       1.310      -8.022      13.047       5.878
  q+dip:       -7.570       4.211       4.420      -9.727      12.351       3.150
   full:       -8.546       4.199       2.667      -9.350      12.257       5.879


           -------------------------------------------------
          | TOTAL ENERGY              -39.152197089517 Eh   |
          | GRADIENT NORM               0.051597448279 Eh/α |
          | HOMO-LUMO GAP               3.525975369147 eV   |
           -------------------------------------------------

------------------------------------------------------------------------
 * finished run on 2020/08/21 at 04:40:28.393     
------------------------------------------------------------------------
 total:
 * wall-time:     0 d,  0 h,  0 min,  0.446 sec
 *  cpu-time:     0 d,  0 h,  0 min,  2.309 sec
 * ratio c/w:     5.178 speedup
 SCF:
 * wall-time:     0 d,  0 h,  0 min,  0.243 sec
 *  cpu-time:     0 d,  0 h,  0 min,  1.244 sec
 * ratio c/w:     5.117 speedup


-------------------------   --------------------
FINAL SINGLE POINT ENERGY       -39.152197089520
-------------------------   --------------------


----------------------------------------------------------------------------
                           ORCA NUMERICAL FREQUENCIES
                              (8-process run)
----------------------------------------------------------------------------

Number of atoms                ... 30
Central differences            ... used
Number of displacements        ... 180
Numerical increment            ... 5.000e-03 bohr
IR-spectrum generation         ... on
Raman-spectrum generation      ... off
Surface Crossing Hessian       ... off
List of participating nodes    ...  /tmp/slurm-scratch/freq.106/freq.hostnames

The output will be reduced. Please look at the following files:
SCF program output             ... >/tmp/slurm-scratch/freq.106/freq.lastscf
Integral program output        ... >/tmp/slurm-scratch/freq.106/freq.lastint
Gradient program output        ... >/tmp/slurm-scratch/freq.106/freq.lastgrad
Dipole moment program output   ... >/tmp/slurm-scratch/freq.106/freq.lastmom
AutoCI program output          ... >/tmp/slurm-scratch/freq.106/freq.lastautoci


         <<< Energy and Gradient at the input geometry >>>

        <<< Energy and Gradient at displaced geometries >>>
             <<<Displacing   3/coordinate 1 (+)>>>
             <<<Displacing   1/coordinate 2 (+)>>>
             <<<Displacing   1/coordinate 1 (+)>>>
             <<<Displacing   3/coordinate 2 (+)>>>
             <<<Displacing   1/coordinate 3 (+)>>>
             <<<Displacing   2/coordinate 3 (+)>>>
             <<<Displacing   2/coordinate 2 (+)>>>
             <<<Displacing   2/coordinate 1 (+)>>>
             <<<Displacing   2/coordinate 2 (-)>>>
             <<<Displacing   3/coordinate 1 (-)>>>
             <<<Displacing   3/coordinate 2 (-)>>>
             <<<Displacing   1/coordinate 3 (-)>>>
             <<<Displacing   2/coordinate 1 (-)>>>
             <<<Displacing   1/coordinate 1 (-)>>>
             <<<Displacing   2/coordinate 3 (-)>>>
             <<<Displacing   1/coordinate 2 (-)>>>
             <<<Displacing   6/coordinate 1 (+)>>>
             <<<Displacing   6/coordinate 1 (-)>>>
             <<<Displacing   5/coordinate 3 (+)>>>
             <<<Displacing   4/coordinate 1 (+)>>>
             <<<Displacing   4/coordinate 2 (+)>>>
             <<<Displacing   3/coordinate 3 (+)>>>
             <<<Displacing   4/coordinate 3 (+)>>>
             <<<Displacing   5/coordinate 1 (+)>>>
             <<<Displacing   5/coordinate 2 (+)>>>
             <<<Displacing   5/coordinate 3 (-)>>>
             <<<Displacing   4/coordinate 1 (-)>>>
             <<<Displacing   3/coordinate 3 (-)>>>
             <<<Displacing   4/coordinate 2 (-)>>>
             <<<Displacing   4/coordinate 3 (-)>>>
             <<<Displacing   5/coordinate 1 (-)>>>
             <<<Displacing   5/coordinate 2 (-)>>>
             <<<Displacing   6/coordinate 2 (+)>>>
             <<<Displacing   6/coordinate 2 (-)>>>
             <<<Displacing   8/coordinate 1 (+)>>>
             <<<Displacing   8/coordinate 1 (-)>>>
             <<<Displacing   8/coordinate 3 (+)>>>
             <<<Displacing   7/coordinate 2 (+)>>>
             <<<Displacing   8/coordinate 3 (-)>>>
             <<<Displacing   7/coordinate 2 (-)>>>
             <<<Displacing   6/coordinate 3 (+)>>>
             <<<Displacing   8/coordinate 2 (+)>>>
             <<<Displacing   7/coordinate 1 (+)>>>
             <<<Displacing   6/coordinate 3 (-)>>>
             <<<Displacing   8/coordinate 2 (-)>>>
             <<<Displacing   7/coordinate 3 (+)>>>
             <<<Displacing   7/coordinate 1 (-)>>>
             <<<Displacing   7/coordinate 3 (-)>>>
             <<<Displacing   9/coordinate 1 (+)>>>
             <<<Displacing   9/coordinate 1 (-)>>>
             <<<Displacing   9/coordinate 2 (+)>>>
             <<<Displacing   9/coordinate 3 (+)>>>
             <<<Displacing   9/coordinate 2 (-)>>>
             <<<Displacing   9/coordinate 3 (-)>>>
             <<<Displacing  10/coordinate 1 (+)>>>
             <<<Displacing  10/coordinate 1 (-)>>>
             <<<Displacing  10/coordinate 2 (+)>>>
             <<<Displacing  10/coordinate 3 (+)>>>
             <<<Displacing  10/coordinate 2 (-)>>>
             <<<Displacing  11/coordinate 1 (+)>>>
             <<<Displacing  11/coordinate 2 (+)>>>
             <<<Displacing  10/coordinate 3 (-)>>>
             <<<Displacing  11/coordinate 2 (-)>>>
             <<<Displacing  11/coordinate 1 (-)>>>
             <<<Displacing  11/coordinate 3 (+)>>>
             <<<Displacing  11/coordinate 3 (-)>>>
             <<<Displacing  12/coordinate 1 (+)>>>
             <<<Displacing  12/coordinate 1 (-)>>>
             <<<Displacing  12/coordinate 2 (+)>>>
             <<<Displacing  12/coordinate 2 (-)>>>
             <<<Displacing  13/coordinate 2 (+)>>>
             <<<Displacing  13/coordinate 2 (-)>>>
             <<<Displacing  12/coordinate 3 (+)>>>
             <<<Displacing  12/coordinate 3 (-)>>>
             <<<Displacing  13/coordinate 1 (+)>>>
             <<<Displacing  13/coordinate 1 (-)>>>
             <<<Displacing  14/coordinate 1 (+)>>>
             <<<Displacing  13/coordinate 3 (+)>>>
             <<<Displacing  14/coordinate 1 (-)>>>
             <<<Displacing  13/coordinate 3 (-)>>>
             <<<Displacing  14/coordinate 2 (+)>>>
             <<<Displacing  14/coordinate 2 (-)>>>
             <<<Displacing  14/coordinate 3 (+)>>>
             <<<Displacing  14/coordinate 3 (-)>>>
             <<<Displacing  15/coordinate 2 (+)>>>
             <<<Displacing  15/coordinate 2 (-)>>>
             <<<Displacing  15/coordinate 1 (+)>>>
             <<<Displacing  15/coordinate 3 (+)>>>
             <<<Displacing  15/coordinate 1 (-)>>>
             <<<Displacing  16/coordinate 1 (+)>>>
             <<<Displacing  15/coordinate 3 (-)>>>
             <<<Displacing  16/coordinate 1 (-)>>>
             <<<Displacing  16/coordinate 2 (+)>>>
             <<<Displacing  16/coordinate 2 (-)>>>
             <<<Displacing  16/coordinate 3 (+)>>>
             <<<Displacing  16/coordinate 3 (-)>>>
             <<<Displacing  17/coordinate 1 (+)>>>
             <<<Displacing  17/coordinate 1 (-)>>>
             <<<Displacing  17/coordinate 3 (+)>>>
             <<<Displacing  17/coordinate 2 (+)>>>
             <<<Displacing  17/coordinate 3 (-)>>>
             <<<Displacing  17/coordinate 2 (-)>>>
             <<<Displacing  18/coordinate 2 (+)>>>
             <<<Displacing  18/coordinate 2 (-)>>>
             <<<Displacing  18/coordinate 1 (+)>>>
             <<<Displacing  19/coordinate 1 (+)>>>
             <<<Displacing  18/coordinate 1 (-)>>>
             <<<Displacing  18/coordinate 3 (+)>>>
             <<<Displacing  19/coordinate 1 (-)>>>
             <<<Displacing  18/coordinate 3 (-)>>>
             <<<Displacing  19/coordinate 2 (+)>>>
             <<<Displacing  19/coordinate 2 (-)>>>
             <<<Displacing  19/coordinate 3 (+)>>>
             <<<Displacing  19/coordinate 3 (-)>>>
             <<<Displacing  20/coordinate 2 (+)>>>
             <<<Displacing  20/coordinate 2 (-)>>>
             <<<Displacing  20/coordinate 1 (+)>>>
             <<<Displacing  20/coordinate 1 (-)>>>
             <<<Displacing  21/coordinate 1 (+)>>>
             <<<Displacing  21/coordinate 3 (+)>>>
             <<<Displacing  20/coordinate 3 (+)>>>
             <<<Displacing  21/coordinate 1 (-)>>>
             <<<Displacing  21/coordinate 3 (-)>>>
             <<<Displacing  20/coordinate 3 (-)>>>
             <<<Displacing  21/coordinate 2 (+)>>>
             <<<Displacing  21/coordinate 2 (-)>>>
             <<<Displacing  22/coordinate 1 (+)>>>
             <<<Displacing  22/coordinate 1 (-)>>>
             <<<Displacing  23/coordinate 1 (+)>>>
             <<<Displacing  23/coordinate 1 (-)>>>
             <<<Displacing  22/coordinate 3 (+)>>>
             <<<Displacing  22/coordinate 2 (+)>>>
             <<<Displacing  22/coordinate 3 (-)>>>
             <<<Displacing  22/coordinate 2 (-)>>>
             <<<Displacing  23/coordinate 2 (+)>>>
             <<<Displacing  23/coordinate 2 (-)>>>
             <<<Displacing  24/coordinate 1 (+)>>>
             <<<Displacing  23/coordinate 3 (+)>>>
             <<<Displacing  24/coordinate 1 (-)>>>
             <<<Displacing  23/coordinate 3 (-)>>>
             <<<Displacing  24/coordinate 2 (+)>>>
             <<<Displacing  24/coordinate 2 (-)>>>
             <<<Displacing  24/coordinate 3 (+)>>>
             <<<Displacing  24/coordinate 3 (-)>>>
             <<<Displacing  25/coordinate 1 (+)>>>
             <<<Displacing  25/coordinate 1 (-)>>>
             <<<Displacing  26/coordinate 1 (+)>>>
             <<<Displacing  25/coordinate 2 (+)>>>
             <<<Displacing  25/coordinate 3 (+)>>>
             <<<Displacing  26/coordinate 1 (-)>>>
             <<<Displacing  25/coordinate 2 (-)>>>
             <<<Displacing  26/coordinate 2 (+)>>>
             <<<Displacing  25/coordinate 3 (-)>>>
             <<<Displacing  26/coordinate 2 (-)>>>
             <<<Displacing  26/coordinate 3 (+)>>>
             <<<Displacing  26/coordinate 3 (-)>>>
             <<<Displacing  27/coordinate 1 (+)>>>
             <<<Displacing  27/coordinate 1 (-)>>>
             <<<Displacing  27/coordinate 2 (+)>>>
             <<<Displacing  27/coordinate 2 (-)>>>
             <<<Displacing  27/coordinate 3 (+)>>>
             <<<Displacing  28/coordinate 2 (+)>>>
             <<<Displacing  27/coordinate 3 (-)>>>
             <<<Displacing  28/coordinate 2 (-)>>>
             <<<Displacing  28/coordinate 3 (+)>>>
             <<<Displacing  28/coordinate 1 (+)>>>
             <<<Displacing  28/coordinate 3 (-)>>>
             <<<Displacing  28/coordinate 1 (-)>>>
             <<<Displacing  29/coordinate 1 (+)>>>
             <<<Displacing  29/coordinate 1 (-)>>>
             <<<Displacing  29/coordinate 3 (+)>>>
             <<<Displacing  29/coordinate 3 (-)>>>
             <<<Displacing  29/coordinate 2 (+)>>>
             <<<Displacing  29/coordinate 2 (-)>>>
             <<<Displacing  30/coordinate 1 (+)>>>
             <<<Displacing  30/coordinate 1 (-)>>>
             <<<Displacing  30/coordinate 2 (+)>>>
             <<<Displacing  30/coordinate 2 (-)>>>
             <<<Displacing  30/coordinate 3 (+)>>>
             <<<Displacing  30/coordinate 3 (-)>>>

-----------------------
VIBRATIONAL FREQUENCIES
-----------------------

Scaling factor for frequencies =  1.000000000 (already applied!)

   0:         0.00 cm**-1
   1:         0.00 cm**-1
   2:         0.00 cm**-1
   3:         0.00 cm**-1
   4:         0.00 cm**-1
   5:         0.00 cm**-1
   6:     -1575.94 cm**-1 ***imaginary mode***
   7:        66.21 cm**-1
   8:       105.77 cm**-1
   9:       111.22 cm**-1
  10:       146.82 cm**-1
  11:       167.72 cm**-1
  12:       187.98 cm**-1
  13:       207.63 cm**-1
  14:       227.93 cm**-1
  15:       271.98 cm**-1
  16:       310.98 cm**-1
  17:       343.05 cm**-1
  18:       368.42 cm**-1
  19:       397.60 cm**-1
  20:       402.93 cm**-1
  21:       431.45 cm**-1
  22:       519.73 cm**-1
  23:       589.61 cm**-1
  24:       593.58 cm**-1
  25:       677.41 cm**-1
  26:       704.59 cm**-1
  27:       771.99 cm**-1
  28:       778.94 cm**-1
  29:       798.52 cm**-1
  30:       818.68 cm**-1
  31:       850.23 cm**-1
  32:       895.69 cm**-1
  33:       904.77 cm**-1
  34:       929.16 cm**-1
  35:       948.00 cm**-1
  36:       951.28 cm**-1
  37:       955.05 cm**-1
  38:       967.24 cm**-1
  39:       973.76 cm**-1
  40:      1018.15 cm**-1
  41:      1047.72 cm**-1
  42:      1055.11 cm**-1
  43:      1072.53 cm**-1
  44:      1081.51 cm**-1
  45:      1098.20 cm**-1
  46:      1109.06 cm**-1
  47:      1125.37 cm**-1
  48:      1136.76 cm**-1
  49:      1178.99 cm**-1
  50:      1186.54 cm**-1
  51:      1196.65 cm**-1
  52:      1200.69 cm**-1
  53:      1217.32 cm**-1
  54:      1230.25 cm**-1
  55:      1258.52 cm**-1
  56:      1269.01 cm**-1
  57:      1272.99 cm**-1
  58:      1283.15 cm**-1
  59:      1305.05 cm**-1
  60:      1316.88 cm**-1
  61:      1341.59 cm**-1
  62:      1371.51 cm**-1
  63:      1413.08 cm**-1
  64:      1433.63 cm**-1
  65:      1443.20 cm**-1
  66:      1473.68 cm**-1
  67:      1502.49 cm**-1
  68:      1507.57 cm**-1
  69:      1507.71 cm**-1
  70:      1514.41 cm**-1
  71:      1533.60 cm**-1
  72:      1540.44 cm**-1
  73:      1667.55 cm**-1
  74:      2759.09 cm**-1
  75:      2876.20 cm**-1
  76:      2887.58 cm**-1
  77:      2900.71 cm**-1
  78:      2910.01 cm**-1
  79:      2914.00 cm**-1
  80:      2918.80 cm**-1
  81:      2921.70 cm**-1
  82:      2932.19 cm**-1
  83:      2933.95 cm**-1
  84:      2972.41 cm**-1
  85:      2981.45 cm**-1
  86:      2986.48 cm**-1
  87:      2996.12 cm**-1
  88:      3001.92 cm**-1
  89:      3229.50 cm**-1


------------
NORMAL MODES
------------

These modes are the cartesian displacements weighted by the diagonal matrix
M(i,i)=1/sqrt(m[i]) where m[i] is the mass of the displaced atom
Thus, these vectors are normalized but *not* orthogonal

                  0          1          2          3          4          5    
      0       0.000000   0.000000   0.000000   0.000000   0.000000   0.000000
      1       0.000000   0.000000   0.000000   0.000000   0.000000   0.000000
      2       0.000000   0.000000   0.000000   0.000000   0.000000   0.000000
      3       0.000000   0.000000   0.000000   0.000000   0.000000   0.000000
      4       0.000000   0.000000   0.000000   0.000000   0.000000   0.000000
      5       0.000000   0.000000   0.000000   0.000000   0.000000   0.000000
      6       0.000000   0.000000   0.000000   0.000000   0.000000   0.000000
      7       0.000000   0.000000   0.000000   0.000000   0.000000   0.000000
      8       0.000000   0.000000   0.000000   0.000000   0.000000   0.000000
      9       0.000000   0.000000   0.000000   0.000000   0.000000   0.000000
     10       0.000000   0.000000   0.000000   0.000000   0.000000   0.000000
     11       0.000000   0.000000   0.000000   0.000000   0.000000   0.000000
     12       0.000000   0.000000   0.000000   0.000000   0.000000   0.000000
     13       0.000000   0.000000   0.000000   0.000000   0.000000   0.000000
     14       0.000000   0.000000   0.000000   0.000000   0.000000   0.000000
     15       0.000000   0.000000   0.000000   0.000000   0.000000   0.000000
     16       0.000000   0.000000   0.000000   0.000000   0.000000   0.000000
     17       0.000000   0.000000   0.000000   0.000000   0.000000   0.000000
     18       0.000000   0.000000   0.000000   0.000000   0.000000   0.000000
     19       0.000000   0.000000   0.000000   0.000000   0.000000   0.000000
     20       0.000000   0.000000   0.000000   0.000000   0.000000   0.000000
     21       0.000000   0.000000   0.000000   0.000000   0.000000   0.000000
     22       0.000000   0.000000   0.000000   0.000000   0.000000   0.000000
     23       0.000000   0.000000   0.000000   0.000000   0.000000   0.000000
     24       0.000000   0.000000   0.000000   0.000000   0.000000   0.000000
     25       0.000000   0.000000   0.000000   0.000000   0.000000   0.000000
     26       0.000000   0.000000   0.000000   0.000000   0.000000   0.000000
     27       0.000000   0.000000   0.000000   0.000000   0.000000   0.000000
     28       0.000000   0.000000   0.000000   0.000000   0.000000   0.000000
     29       0.000000   0.000000   0.000000   0.000000   0.000000   0.000000
     30       0.000000   0.000000   0.000000   0.000000   0.000000   0.000000
     31       0.000000   0.000000   0.000000   0.000000   0.000000   0.000000
     32       0.000000   0.000000   0.000000   0.000000   0.000000   0.000000
     33       0.000000   0.000000   0.000000   0.000000   0.000000   0.000000
     34       0.000000   0.000000   0.000000   0.000000   0.000000   0.000000
     35       0.000000   0.000000   0.000000   0.000000   0.000000   0.000000
     36       0.000000   0.000000   0.000000   0.000000   0.000000   0.000000
     37       0.000000   0.000000   0.000000   0.000000   0.000000   0.000000
     38       0.000000   0.000000   0.000000   0.000000   0.000000   0.000000
     39       0.000000   0.000000   0.000000   0.000000   0.000000   0.000000
     40       0.000000   0.000000   0.000000   0.000000   0.000000   0.000000
     41       0.000000   0.000000   0.000000   0.000000   0.000000   0.000000
     42       0.000000   0.000000   0.000000   0.000000   0.000000   0.000000
     43       0.000000   0.000000   0.000000   0.000000   0.000000   0.000000
     44       0.000000   0.000000   0.000000   0.000000   0.000000   0.000000
     45       0.000000   0.000000   0.000000   0.000000   0.000000   0.000000
     46       0.000000   0.000000   0.000000   0.000000   0.000000   0.000000
     47       0.000000   0.000000   0.000000   0.000000   0.000000   0.000000
     48       0.000000   0.000000   0.000000   0.000000   0.000000   0.000000
     49       0.000000   0.000000   0.000000   0.000000   0.000000   0.000000
     50       0.000000   0.000000   0.000000   0.000000   0.000000   0.000000
     51       0.000000   0.000000   0.000000   0.000000   0.000000   0.000000
     52       0.000000   0.000000   0.000000   0.000000   0.000000   0.000000
     53       0.000000   0.000000   0.000000   0.000000   0.000000   0.000000
     54       0.000000   0.000000   0.000000   0.000000   0.000000   0.000000
     55       0.000000   0.000000   0.000000   0.000000   0.000000   0.000000
     56       0.000000   0.000000   0.000000   0.000000   0.000000   0.000000
     57       0.000000   0.000000   0.000000   0.000000   0.000000   0.000000
     58       0.000000   0.000000   0.000000   0.000000   0.000000   0.000000
     59       0.000000   0.000000   0.000000   0.000000   0.000000   0.000000
     60       0.000000   0.000000   0.000000   0.000000   0.000000   0.000000
     61       0.000000   0.000000   0.000000   0.000000   0.000000   0.000000
     62       0.000000   0.000000   0.000000   0.000000   0.000000   0.000000
     63       0.000000   0.000000   0.000000   0.000000   0.000000   0.000000
     64       0.000000   0.000000   0.000000   0.000000   0.000000   0.000000
     65       0.000000   0.000000   0.000000   0.000000   0.000000   0.000000
     66       0.000000   0.000000   0.000000   0.000000   0.000000   0.000000
     67       0.000000   0.000000   0.000000   0.000000   0.000000   0.000000
     68       0.000000   0.000000   0.000000   0.000000   0.000000   0.000000
     69       0.000000   0.000000   0.000000   0.000000   0.000000   0.000000
     70       0.000000   0.000000   0.000000   0.000000   0.000000   0.000000
     71       0.000000   0.000000   0.000000   0.000000   0.000000   0.000000
     72       0.000000   0.000000   0.000000   0.000000   0.000000   0.000000
     73       0.000000   0.000000   0.000000   0.000000   0.000000   0.000000
     74       0.000000   0.000000   0.000000   0.000000   0.000000   0.000000
     75       0.000000   0.000000   0.000000   0.000000   0.000000   0.000000
     76       0.000000   0.000000   0.000000   0.000000   0.000000   0.000000
     77       0.000000   0.000000   0.000000   0.000000   0.000000   0.000000
     78       0.000000   0.000000   0.000000   0.000000   0.000000   0.000000
     79       0.000000   0.000000   0.000000   0.000000   0.000000   0.000000
     80       0.000000   0.000000   0.000000   0.000000   0.000000   0.000000
     81       0.000000   0.000000   0.000000   0.000000   0.000000   0.000000
     82       0.000000   0.000000   0.000000   0.000000   0.000000   0.000000
     83       0.000000   0.000000   0.000000   0.000000   0.000000   0.000000
     84       0.000000   0.000000   0.000000   0.000000   0.000000   0.000000
     85       0.000000   0.000000   0.000000   0.000000   0.000000   0.000000
     86       0.000000   0.000000   0.000000   0.000000   0.000000   0.000000
     87       0.000000   0.000000   0.000000   0.000000   0.000000   0.000000
     88       0.000000   0.000000   0.000000   0.000000   0.000000   0.000000
     89       0.000000   0.000000   0.000000   0.000000   0.000000   0.000000
                  6          7          8          9         10         11    
      0       0.000098  -0.031896   0.036107   0.042547  -0.032577  -0.013546
      1       0.000019   0.107208  -0.035265   0.012345   0.044122  -0.007318
      2      -0.000142   0.048853   0.142351  -0.202231  -0.092748  -0.001015
      3      -0.001465  -0.024110   0.027697   0.041730  -0.032077  -0.011424
      4       0.001318   0.062722   0.010232   0.019398   0.053750  -0.022667
      5      -0.002187   0.020406   0.045638   0.021141  -0.162784  -0.007224
      6      -0.000950   0.022397  -0.003249   0.007933  -0.042344   0.008671
      7       0.000275   0.039441   0.042611  -0.001071   0.047811  -0.029111
      8      -0.000456   0.071617  -0.092694   0.218426  -0.094651  -0.014913
      9       0.000097   0.059910  -0.026733  -0.022756  -0.043062   0.024200
     10       0.000343   0.060240   0.029205  -0.023900   0.016696  -0.015482
     11       0.000121   0.141512  -0.132118   0.197453   0.083796  -0.022293
     12      -0.000053   0.051521  -0.018842  -0.020334  -0.039936   0.020811
     13      -0.000075   0.104412  -0.016212  -0.029121  -0.001967   0.002419
     14      -0.000099   0.165210  -0.036032  -0.024034   0.189944  -0.021773
     15      -0.000212   0.006091   0.012951   0.011360  -0.033821   0.001701
     16      -0.000013   0.127159  -0.047908  -0.011064   0.012059   0.007179
     17       0.000273   0.120570   0.101820  -0.227083   0.081521  -0.007535
     18       0.000645  -0.065815   0.061978   0.066364  -0.034381  -0.026544
     19      -0.000390   0.124258  -0.058074   0.024162   0.052404  -0.003077
     20       0.001065   0.012394   0.239497  -0.343854  -0.149203   0.003642
     21       0.000992   0.028554  -0.007334   0.004597  -0.044017   0.011352
     22      -0.005948   0.005533   0.077801  -0.006519   0.066392  -0.044281
     23       0.003283   0.053577  -0.161786   0.371639  -0.149994  -0.019029
     24       0.000220   0.079473  -0.036380  -0.043890  -0.038505   0.031501
     25       0.000362   0.119426  -0.025945  -0.046706  -0.028344   0.013412
     26      -0.000177   0.214864  -0.065313  -0.038952   0.338292  -0.030934
     27       0.023314  -0.071111   0.051210   0.078980  -0.025000  -0.018493
     28       0.002904   0.030594   0.023689   0.048956   0.040810  -0.017629
     29       0.048493  -0.036483   0.081243   0.030225  -0.111055  -0.049202
     30      -0.012539  -0.098358   0.091577   0.130328  -0.049707  -0.024752
     31      -0.002624   0.046664   0.015327   0.032424   0.055309  -0.021206
     32      -0.018245  -0.026191   0.194071   0.125643  -0.094134  -0.116795
     33      -0.029393  -0.050879   0.090457   0.122479  -0.080850  -0.024025
     34      -0.001052  -0.002535   0.124777   0.148108   0.059360  -0.074661
     35       0.030238  -0.070338  -0.002313  -0.065219  -0.008069  -0.031359
     36       0.021217  -0.108824  -0.044503  -0.029650   0.115241  -0.011493
     37       0.002965   0.018299  -0.075876  -0.018583  -0.088561   0.096646
     38       0.001184  -0.055144   0.044938  -0.014379  -0.056883  -0.038486
     39      -0.221034  -0.087390   0.014945   0.036041   0.030558  -0.017589
     40      -0.046140   0.028996   0.032541   0.088214  -0.044273   0.050334
     41      -0.969886  -0.077831  -0.023559  -0.089805   0.027309  -0.036747
     42       0.001653  -0.024111  -0.069806  -0.072356   0.118842  -0.068024
     43       0.004027  -0.114792  -0.083721  -0.078543  -0.121292  -0.103029
     44       0.003095  -0.077049   0.061048   0.069008   0.056533   0.206388
     45       0.006838  -0.050551  -0.087010  -0.064466   0.127958   0.026852
     46      -0.006291  -0.023890  -0.122059  -0.066679  -0.164630   0.105694
     47      -0.006693  -0.019399   0.111091   0.052103   0.030511  -0.050755
     48      -0.002088  -0.026173  -0.063871  -0.077730   0.132059  -0.130594
     49      -0.021123  -0.024710  -0.198159  -0.113421  -0.237776   0.260464
     50      -0.015586   0.002197   0.124481   0.035369   0.028805  -0.179369
     51      -0.002525  -0.031908  -0.140606  -0.062259   0.101088   0.275534
     52      -0.004228   0.005426  -0.100698  -0.039799  -0.126228   0.115567
     53      -0.002238   0.020119   0.164172   0.093164   0.100331  -0.128937
     54      -0.000726  -0.059493  -0.059339  -0.095393   0.144939  -0.319420
     55      -0.000948  -0.130176  -0.032973  -0.061239  -0.094846  -0.092009
     56      -0.000742  -0.091184   0.146619   0.108304   0.091357   0.323057
     57       0.002123  -0.055025  -0.101928  -0.064529   0.138402   0.075605
     58      -0.000086  -0.154141  -0.173363  -0.128144  -0.106550  -0.303919
     59      -0.000264  -0.107229   0.024532   0.070586   0.075560   0.313217
     60       0.037207  -0.143907  -0.083056  -0.089750   0.182051  -0.060231
     61       0.016403  -0.003302  -0.104666  -0.047402  -0.126884   0.103010
     62      -0.009123  -0.080953   0.005750  -0.044823  -0.154576  -0.007964
     63       0.001289   0.097415  -0.012178  -0.057877  -0.012947  -0.002201
     64       0.000123  -0.133763   0.021250  -0.035518  -0.060614  -0.036742
     65       0.000426  -0.082271  -0.081996   0.012128   0.016647   0.116817
     66      -0.000693   0.135989   0.060883  -0.025699  -0.011862   0.093592
     67      -0.000358  -0.097117   0.092034  -0.013615  -0.111892  -0.009495
     68      -0.000218  -0.044760  -0.011198   0.042326   0.012678   0.202877
     69      -0.000437   0.121983  -0.077269  -0.094751  -0.125178  -0.098512
     70       0.000504  -0.118956  -0.038349  -0.062031  -0.110740  -0.080272
     71      -0.000238  -0.066452  -0.160374  -0.019548  -0.026064   0.079128
     72      -0.000624   0.000008   0.019403   0.011560  -0.030322  -0.001167
     73       0.000709   0.158878  -0.080025  -0.015594  -0.005513   0.022359
     74       0.000229   0.139162   0.171135  -0.387654   0.142340  -0.004917
     75      -0.000026   0.094824  -0.050187  -0.048079  -0.042826   0.037085
     76       0.000746   0.042591   0.052849  -0.037115   0.006933  -0.018888
     77       0.000258   0.174665  -0.230827   0.342370   0.147564  -0.030537
     78       0.000389   0.132642   0.039323  -0.036018  -0.032026   0.068272
     79       0.000605  -0.217853   0.112253   0.017752   0.168921   0.077277
     80       0.000399  -0.160303  -0.220855  -0.049517   0.036146  -0.065087
     81       0.001686   0.208696   0.065714  -0.031294  -0.159994   0.092223
     82       0.000618  -0.232814   0.148220   0.034894   0.216566   0.102473
     83       0.001093  -0.153476  -0.269702  -0.071552  -0.003055  -0.100037
     84       0.000219   0.097037  -0.035804  -0.070959  -0.033396  -0.036475
     85      -0.000186  -0.241775   0.104268   0.020094   0.230175   0.107444
     86      -0.000474  -0.196724  -0.291935  -0.081687   0.043452  -0.158213
     87      -0.000042   0.117080   0.126023   0.010847   0.082896   0.200696
     88      -0.000386  -0.237063   0.148641   0.036171   0.228764   0.109710
     89      -0.000225  -0.185217  -0.198985  -0.039776   0.084369  -0.069768
                 12         13         14         15         16         17    
      0      -0.007555   0.129837  -0.047113  -0.011571  -0.063102  -0.002568
      1       0.014013   0.039463  -0.027819  -0.019272  -0.006194   0.000352
      2      -0.021704  -0.056919  -0.141638  -0.041037   0.158764   0.001281
      3      -0.005640   0.115647  -0.045835  -0.012818  -0.048199  -0.001542
      4       0.002890   0.136598  -0.061532  -0.019722  -0.035880  -0.002002
      5      -0.013960  -0.045181  -0.138077  -0.027892   0.005966   0.000052
      6       0.003476  -0.006180   0.025660   0.012396  -0.042540  -0.003229
      7      -0.000514   0.179693  -0.089724  -0.031360  -0.059990  -0.001651
      8      -0.011549  -0.027012  -0.153604  -0.045292   0.155029   0.002275
      9       0.011201  -0.121293   0.089398   0.025404  -0.009012  -0.002766
     10       0.005181   0.083346  -0.073529  -0.030223  -0.010726  -0.001002
     11      -0.005828   0.025906   0.002067  -0.010531   0.044098   0.003240
     12       0.009453  -0.099565   0.083807   0.024876  -0.021852  -0.003053
     13       0.014619  -0.036045  -0.045866  -0.028230   0.070460   0.001115
     14      -0.003897   0.050375   0.135466   0.023363  -0.146886   0.002004
     15       0.000118   0.022945   0.013093   0.002132  -0.038096  -0.002492
     16       0.019684  -0.068830  -0.002460  -0.015608   0.045320   0.000967
     17      -0.015794  -0.012825   0.006928  -0.009776   0.056527   0.001535
     18      -0.014270   0.216177  -0.085363  -0.015670  -0.105283  -0.004085
     19       0.017820   0.012531  -0.006378  -0.015290  -0.004461   0.000894
     20      -0.030450  -0.085387  -0.191653  -0.056942   0.246853   0.000850
     21       0.004707  -0.027530   0.037322   0.015595  -0.037592  -0.003307
     22      -0.007901   0.308666  -0.150843  -0.048748  -0.098755  -0.000958
     23      -0.009573  -0.040667  -0.208651  -0.070159   0.237224   0.002635
     24       0.015137  -0.166245   0.122067   0.034736  -0.007136  -0.002673
     25       0.018040  -0.103848  -0.043078  -0.026553   0.119980   0.001458
     26       0.004301   0.102292   0.301118   0.061474  -0.346090   0.001689
     27      -0.010439   0.038154   0.011513  -0.023939   0.015557   0.000707
     28      -0.005690   0.049649  -0.011511  -0.005170   0.027281  -0.002304
     29       0.004295  -0.027782   0.006803  -0.076806  -0.144038  -0.001990
     30      -0.015954  -0.132500   0.094617  -0.041783   0.042530   0.000839
     31      -0.001968   0.128160  -0.050207   0.001514   0.000513  -0.001939
     32       0.007901  -0.098703   0.051937  -0.097691  -0.215991   0.001714
     33      -0.017345   0.016787  -0.044768   0.014064  -0.026243   0.004205
     34      -0.004634  -0.246090   0.176569  -0.085799   0.040685  -0.003045
     35       0.017089   0.045108   0.089417  -0.127776  -0.067910  -0.006902
     36       0.004056   0.106754   0.077850  -0.110236   0.184866  -0.001576
     37      -0.017005  -0.034063  -0.049455   0.098657  -0.062455  -0.005691
     38       0.011285   0.004805   0.057930  -0.063162  -0.108662  -0.002220
     39      -0.004568   0.075372   0.040982  -0.056252   0.085712   0.000394
     40      -0.011874  -0.312901   0.004569   0.117927  -0.134034  -0.003817
     41       0.019481   0.055352   0.085857  -0.157395  -0.021348  -0.006588
     42      -0.023814  -0.107218  -0.126827   0.000074  -0.023334  -0.005162
     43      -0.071682   0.056286   0.140505   0.072437   0.075960  -0.004452
     44       0.090574   0.049286   0.063626   0.050019   0.072907   0.013849
     45       0.007274  -0.087267  -0.092012  -0.080817   0.014534  -0.002601
     46      -0.016905  -0.008673   0.040881  -0.065804  -0.098963  -0.006849
     47       0.010069   0.020446   0.001329   0.196847  -0.011336   0.002611
     48      -0.043470  -0.116627  -0.141922   0.030062  -0.015813  -0.007916
     49       0.031743  -0.095241   0.021113  -0.369784  -0.273513  -0.006378
     50      -0.031533  -0.014353  -0.045885   0.268732  -0.053489  -0.002187
     51       0.082619  -0.147683  -0.132797  -0.284990  -0.094038   0.001201
     52      -0.015272  -0.023720  -0.014734   0.037641  -0.086886  -0.006851
     53      -0.016410   0.021574  -0.070039   0.438005   0.049407   0.001108
     54      -0.165287  -0.104780  -0.117719   0.152588   0.031696  -0.034316
     55       0.012944   0.062962   0.137915   0.080614   0.106266   0.016344
     56       0.295721   0.063377   0.060113   0.004014   0.107579   0.062809
     57       0.032362  -0.110727  -0.118132  -0.114645  -0.001585   0.004681
     58      -0.324184   0.033035   0.138665   0.147013   0.098699  -0.063996
     59       0.116476   0.041490   0.067672  -0.045391   0.091824   0.017395
     60       0.008877   0.316895   0.170312  -0.283239   0.358484  -0.003707
     61      -0.017791   0.004183  -0.001911   0.009645  -0.065660  -0.007731
     62       0.007573  -0.005561   0.107557  -0.162184  -0.181937  -0.005259
     63       0.058048  -0.029596  -0.023020   0.085681  -0.021502   0.016079
     64       0.110626   0.048522   0.099755   0.079551   0.094821   0.028670
     65      -0.149415   0.034177   0.087507   0.058297   0.056504  -0.028044
     66      -0.083493   0.010862   0.043465   0.087900   0.004402  -0.001369
     67       0.422440   0.088324   0.121931   0.120542   0.131261   0.056913
     68      -0.242529   0.072665   0.146514   0.064569   0.080744  -0.039690
     69       0.314651   0.007124   0.022116   0.127803   0.020736   0.047441
     70       0.038341   0.065762   0.144010   0.088313   0.106351   0.025706
     71      -0.384459   0.050748   0.149412   0.056050   0.062055  -0.044706
     72      -0.001356   0.043727   0.003444  -0.000818  -0.042124  -0.002468
     73       0.027266  -0.175712   0.048178   0.000404   0.064777   0.000687
     74      -0.018366  -0.017575   0.050810  -0.005231   0.078543   0.001238
     75       0.018386  -0.212205   0.131250   0.030836   0.030862  -0.001337
     76       0.001891   0.112159  -0.094869  -0.032804  -0.026850  -0.001680
     77      -0.001161   0.053525   0.041462  -0.007326   0.056863   0.004402
     78      -0.024842   0.018881   0.055275   0.092626   0.024637   0.003672
     79      -0.042426  -0.089438  -0.121896   0.043549  -0.053683  -0.000123
     80       0.073074  -0.068730  -0.073602   0.080206  -0.031785   0.009349
     81      -0.009755   0.149056   0.255776   0.100536   0.175335  -0.161979
     82       0.010338  -0.116429  -0.181028   0.064304  -0.070555  -0.341446
     83       0.005001  -0.055714  -0.031751   0.053301  -0.034935   0.460110
     84       0.115152  -0.031555  -0.026357   0.112775  -0.020546  -0.007585
     85      -0.224422  -0.137561  -0.172648  -0.003581  -0.136624   0.556769
     86       0.177003  -0.122355  -0.156457   0.092417  -0.085498   0.077967
     87      -0.240689  -0.021966  -0.002292   0.054255  -0.041046   0.166534
     88      -0.022613  -0.124993  -0.190542   0.056282  -0.085180  -0.248160
     89       0.198859  -0.109246  -0.161020   0.117357  -0.054801  -0.466500
                 18         19         20         21         22         23    
      0       0.129290   0.051976  -0.004648   0.067902  -0.000274  -0.028693
      1      -0.098244  -0.011932   0.034486   0.016598   0.016444  -0.336962
      2       0.040140   0.049809  -0.210022  -0.006082  -0.035209  -0.055537
      3       0.059535   0.031529   0.001420   0.048623   0.001922  -0.119993
      4       0.095402   0.044574   0.002825   0.050600   0.023000  -0.067006
      5      -0.046787  -0.038071  -0.000345  -0.002657  -0.331511  -0.008424
      6       0.145555   0.036524   0.005066   0.043839  -0.027241  -0.319549
      7       0.039110   0.038721  -0.031791   0.058291  -0.018477   0.046824
      8       0.076507   0.014047   0.208147   0.024039  -0.033271   0.014893
      9       0.086623   0.003597  -0.006645  -0.010501  -0.013449   0.034866
     10      -0.025973   0.003972   0.033621   0.022822  -0.034658   0.359260
     11       0.027846   0.050760  -0.208244  -0.000214   0.153566   0.056327
     12       0.104013   0.007347  -0.001178  -0.005015  -0.027055   0.130555
     13      -0.150548  -0.025839  -0.001558  -0.025537   0.064225   0.074494
     14      -0.115213  -0.050400   0.001795  -0.011901  -0.203531   0.008744
     15       0.094469   0.024986   0.006075   0.026740   0.008824   0.340733
     16      -0.165867  -0.037142  -0.034374  -0.035852  -0.001978  -0.044839
     17       0.017890  -0.007222   0.207281   0.004484   0.163674  -0.015994
     18       0.265600   0.096608  -0.011966   0.113848  -0.024702  -0.158700
     19      -0.149153  -0.035689   0.070878   0.000728  -0.006825  -0.279227
     20       0.082447   0.109757  -0.448513  -0.010127   0.185181  -0.032878
     21       0.147302   0.033432   0.006373   0.036537  -0.027739  -0.276262
     22      -0.004096   0.049913  -0.077048   0.090743  -0.046447  -0.125306
     23       0.139873   0.026515   0.442769   0.046081   0.201851  -0.008995
     24       0.061320  -0.012481  -0.000985  -0.028274  -0.025028  -0.158464
     25      -0.164987  -0.032907  -0.002338  -0.044019   0.081932  -0.168992
     26      -0.221889  -0.101935   0.007152  -0.019684  -0.297024  -0.020894
     27      -0.114753  -0.055098   0.000889  -0.091324   0.057294  -0.008041
     28       0.108135  -0.009796   0.000510  -0.073125  -0.038746   0.028488
     29      -0.103333  -0.015796   0.001123   0.025289   0.008593   0.006861
     30      -0.168574  -0.077597   0.002622  -0.125964   0.027755  -0.000889
     31       0.117079   0.011817  -0.000610  -0.030239  -0.002048   0.021279
     32      -0.240984   0.072713  -0.000330   0.177896   0.151976   0.012062
     33      -0.284437  -0.072290  -0.000395  -0.061928   0.083997  -0.006509
     34       0.106406   0.066213   0.003340   0.028865  -0.043046  -0.021563
     35       0.120552  -0.018740  -0.000796  -0.071322   0.033857  -0.005333
     36       0.006621  -0.048444   0.002727  -0.162848  -0.066106  -0.023741
     37       0.155904  -0.160204  -0.013493  -0.122660   0.011513  -0.014347
     38      -0.030283  -0.008161  -0.001405   0.000764   0.092210   0.000116
     39      -0.085196  -0.046652   0.002396  -0.124475   0.025779  -0.015442
     40       0.142435  -0.162655  -0.025577   0.165235   0.109400  -0.048370
     41       0.120131   0.000795   0.002801  -0.043066  -0.046296   0.010014
     42       0.007192  -0.123314  -0.017670   0.095747   0.010292   0.006936
     43      -0.054462   0.017481   0.000033   0.081300  -0.005649   0.002495
     44      -0.011503  -0.049715  -0.007627   0.076576  -0.005360   0.002210
     45      -0.007515  -0.148381  -0.022334   0.138881  -0.002050   0.005370
     46       0.028939  -0.013754   0.000705  -0.089570   0.049922  -0.011893
     47       0.098006  -0.130291  -0.010497  -0.074584   0.047515  -0.010250
     48       0.045616  -0.209993  -0.028065   0.113952   0.010229   0.004986
     49      -0.132330   0.094965   0.001673   0.128622   0.136823   0.020686
     50       0.132750  -0.178389  -0.015870  -0.075511   0.065491  -0.007511
     51      -0.070128  -0.118949  -0.024969   0.239370   0.041006   0.019666
     52       0.118985  -0.110136  -0.007656  -0.143214   0.034692  -0.019954
     53       0.265016  -0.291273  -0.022067  -0.205111   0.006016  -0.029249
     54       0.020787  -0.196992  -0.027516   0.158358   0.012823   0.010762
     55      -0.052859  -0.026674  -0.006545   0.137851  -0.013716   0.007864
     56      -0.016502  -0.093310  -0.014496   0.150129  -0.021844   0.010246
     57      -0.032329  -0.142819  -0.023588   0.193745  -0.010252   0.015640
     58      -0.054233  -0.041907  -0.011551   0.137513  -0.001732   0.001937
     59      -0.045620  -0.074782  -0.014800   0.169077  -0.022056   0.009112
     60       0.036232   0.101533   0.029837  -0.414892  -0.232773   0.006939
     61       0.121248  -0.101206  -0.004336  -0.188217   0.013023  -0.015813
     62      -0.105884   0.043408   0.005340  -0.023262   0.153983  -0.012584
     63      -0.050803   0.154578   0.018444  -0.054603  -0.006049  -0.001669
     64      -0.039729  -0.036265  -0.007591   0.133507  -0.012539   0.008716
     65      -0.058303   0.037116   0.002324   0.083142  -0.011965   0.006185
     66      -0.073919   0.175922   0.020745  -0.030564  -0.012023   0.000264
     67      -0.030805  -0.022785  -0.006397   0.115901  -0.020480   0.005272
     68      -0.077413   0.060482   0.004957   0.098334  -0.017411   0.007252
     69      -0.055563   0.162203   0.018307  -0.041617  -0.014579  -0.001818
     70      -0.061014  -0.006485  -0.004309   0.144711  -0.016042   0.010032
     71      -0.094024   0.081007   0.007462   0.104388  -0.015140   0.009305
     72       0.097371   0.028987   0.014500   0.035013   0.021493   0.295889
     73      -0.172452  -0.056120  -0.073101  -0.075707  -0.064105   0.129326
     74       0.066363  -0.006697   0.440737   0.015003   0.462012   0.017316
     75      -0.025800  -0.033697  -0.014194  -0.058626   0.025797   0.163641
     76       0.006872   0.007920   0.072143   0.039889  -0.094616   0.301028
     77       0.070115   0.111819  -0.440197   0.001903   0.453186   0.049145
     78      -0.076688   0.155627   0.017385   0.000898  -0.017277   0.002767
     79      -0.026600   0.117543   0.014599  -0.046332  -0.005484   0.000207
     80      -0.045822   0.146919   0.016906  -0.036478  -0.008852   0.001234
     81      -0.092736  -0.056385  -0.012089   0.217859  -0.019551   0.014459
     82      -0.059794   0.191204   0.023639  -0.097931  -0.005117  -0.002857
     83      -0.001944   0.089609   0.010447  -0.007584  -0.008840   0.003068
     84      -0.074772   0.229580   0.026849  -0.074893  -0.015191  -0.001836
     85       0.024739   0.170764   0.023599  -0.127455  -0.005703  -0.004086
     86      -0.037003   0.223806   0.027106  -0.118282  -0.007075  -0.003581
     87      -0.063857   0.227147   0.028212  -0.075746  -0.018185  -0.001346
     88      -0.051348   0.201839   0.025406  -0.112695  -0.005485  -0.003592
     89      -0.091325   0.252036   0.029639  -0.111265  -0.008142  -0.003232
                 24         25         26         27         28         29    
      0      -0.182698   0.005008  -0.060379   0.032424   0.054499  -0.000605
      1      -0.071537  -0.030741  -0.018059   0.008416  -0.009391  -0.003094
      2      -0.021227   0.195253   0.018296  -0.039188   0.022420   0.024429
      3      -0.171340  -0.009250  -0.032991   0.011537   0.014462  -0.001099
      4       0.160186   0.048191   0.037705  -0.016777  -0.019678   0.007351
      5       0.007122  -0.295590  -0.053965   0.025393  -0.033724  -0.046809
      6       0.092383  -0.001015   0.013320  -0.007234  -0.040753   0.001666
      7       0.059717  -0.037342   0.024780  -0.024396  -0.122063   0.001528
      8      -0.009673   0.192691   0.023534  -0.040463   0.006281   0.019642
      9       0.123686  -0.004121   0.028419  -0.020379  -0.040712   0.001604
     10       0.031681   0.030615   0.040087  -0.041721  -0.162219   0.004833
     11       0.024098  -0.210293  -0.023955  -0.044887  -0.008041   0.013049
     12       0.147390   0.005199   0.036826  -0.029623  -0.056462   0.002869
     13      -0.166338  -0.029033  -0.039496   0.037634   0.077670  -0.006234
     14      -0.056793   0.186348   0.008129  -0.030816   0.038560   0.019450
     15      -0.163101  -0.008763  -0.068149   0.052050   0.112717  -0.002517
     16      -0.086723   0.034077  -0.006544   0.016651   0.033201  -0.003711
     17       0.013971  -0.208187  -0.029239  -0.038463   0.018733   0.012284
     18      -0.031647   0.014971  -0.027976   0.026427  -0.015930  -0.002849
     19      -0.124432  -0.071275  -0.045185  -0.043721   0.045952   0.020322
     20      -0.001831   0.454495   0.126774   0.356033  -0.168000  -0.134855
     21       0.126455   0.003021   0.021175  -0.009842  -0.049745   0.000717
     22      -0.164465  -0.102211  -0.037285  -0.074496  -0.063357   0.026680
     23      -0.005694   0.466044   0.109593   0.323527  -0.177728  -0.100943
     24       0.187883   0.015150   0.051322  -0.014053  -0.027597  -0.006189
     25      -0.121668  -0.061312  -0.038707  -0.037298   0.134849   0.022893
     26      -0.046612   0.406662   0.095549   0.418678  -0.199500  -0.176945
     27      -0.064263   0.017723   0.073591  -0.062893   0.047644  -0.011902
     28       0.235025   0.003754   0.029929   0.024685   0.280396  -0.025032
     29       0.089104  -0.075299   0.099220   0.136884  -0.041908   0.034813
     30      -0.117833  -0.031122   0.085685  -0.035940   0.008714  -0.009321
     31       0.262904   0.039797   0.030267   0.006162   0.274554  -0.017343
     32       0.160198   0.033666   0.067839   0.079385  -0.040157   0.071113
     33       0.110309   0.023114   0.037386  -0.016194   0.033142   0.003136
     34      -0.068335  -0.008238  -0.048495   0.006417  -0.022715   0.000795
     35      -0.097348  -0.021528   0.181185  -0.040007   0.131360  -0.007537
     36      -0.025833  -0.032029   0.021288   0.001901  -0.200960   0.003281
     37      -0.054142  -0.027095   0.069561   0.018855   0.007904  -0.001523
     38       0.049989   0.089376  -0.169268  -0.065731  -0.047481  -0.008296
     39      -0.032112   0.030517  -0.005355  -0.070125  -0.071456  -0.012021
     40      -0.435140  -0.039533   0.446074  -0.180350  -0.453284   0.009845
     41      -0.018015  -0.079543   0.146945   0.092773   0.043770   0.018178
     42       0.042449   0.012095  -0.050522   0.015848   0.042879   0.016289
     43       0.000166  -0.001599   0.006266  -0.000288  -0.018132   0.028824
     44       0.006948   0.002897  -0.014677  -0.007069  -0.007378  -0.039797
     45       0.028241  -0.002907  -0.000128   0.009895  -0.005615   0.009987
     46       0.006624   0.042262  -0.125275   0.013541  -0.073225   0.023005
     47      -0.005630   0.047780  -0.121787  -0.027479  -0.052752  -0.024204
     48       0.039399  -0.000748  -0.048540   0.090482   0.023743   0.184855
     49       0.133044   0.148246  -0.237268  -0.172704   0.103373  -0.204963
     50       0.014258   0.057535  -0.170938   0.030732  -0.008843   0.119964
     51       0.076450   0.046564  -0.035164  -0.128620   0.083935  -0.270340
     52      -0.033617   0.010342  -0.078976   0.060434  -0.075547   0.039093
     53      -0.086053  -0.021018  -0.048180   0.109890  -0.098672   0.119307
     54       0.029464   0.021550  -0.023748  -0.094648   0.074773  -0.331222
     55       0.014112  -0.007824   0.012493   0.016184   0.023245   0.121217
     56       0.037132  -0.012514  -0.014482   0.068770   0.052263   0.279256
     57       0.075212  -0.013426  -0.020317   0.096960   0.085521   0.193212
     58      -0.008343   0.006255   0.032509  -0.087257  -0.011174  -0.394816
     59       0.036015  -0.018012   0.012462   0.060672   0.033973   0.089502
     60       0.393532   0.008805  -0.582514   0.241168   0.282642   0.005115
     61       0.007405   0.011007  -0.129955   0.070297   0.021265   0.023114
     62       0.007007   0.137053  -0.301127  -0.051634  -0.190991   0.038189
     63      -0.006693   0.000293   0.000129  -0.002482  -0.013160   0.010723
     64       0.014342  -0.008355   0.015926   0.008594   0.045626   0.023086
     65       0.007880  -0.007359   0.012118   0.004756   0.021586  -0.028893
     66      -0.007913  -0.004697   0.015365   0.003478   0.001047   0.125714
[...]
     30      -0.000741   0.000359  -0.000207  -0.000683  -0.000255   0.004198
     31      -0.009243   0.002673   0.001433  -0.002898  -0.001983   0.006155
     32       0.000382  -0.000119   0.000032   0.000274  -0.000142  -0.002948
     33       0.000098  -0.000032  -0.000082   0.000037   0.000210   0.000323
     34      -0.000058   0.000029   0.000027  -0.000096   0.000025   0.000197
     35       0.000075   0.000009  -0.000040  -0.000037   0.000091   0.000135
     36       0.000018  -0.000045   0.000007   0.000092   0.000019   0.011133
     37      -0.000062   0.000115  -0.000000  -0.000249   0.000008  -0.061744
     38      -0.000074  -0.000041   0.000055   0.000103  -0.000128   0.030920
     39      -0.000915   0.000871   0.000082  -0.001918   0.000192   0.002110
     40       0.000242  -0.000105   0.000029   0.000400  -0.000296  -0.004214
     41       0.000095  -0.000283  -0.000181   0.000201   0.000842   0.013751
     42       0.000436   0.000005   0.000022  -0.000050   0.000053  -0.000089
     43      -0.000202   0.000019   0.000049  -0.000007  -0.000019   0.000165
     44      -0.000221  -0.000013  -0.000074   0.000031  -0.000067   0.000194
     45       0.000239   0.000043  -0.000018  -0.000048  -0.000105   0.001022
     46      -0.000040  -0.000033  -0.000015   0.000027   0.000119  -0.001973
     47      -0.000169  -0.000023   0.000020  -0.000002   0.000102   0.001342
     48      -0.002150  -0.000489   0.000103   0.000281   0.001676   0.000491
     49      -0.000395  -0.000027   0.000073   0.000019   0.000186  -0.001131
     50       0.002532   0.000618  -0.000114  -0.000374  -0.002004  -0.001202
     51       0.000001  -0.000069  -0.000064   0.000102   0.000068  -0.002561
     52       0.000481   0.000494   0.000141  -0.000618  -0.000826   0.011770
     53      -0.000472  -0.000324  -0.000099   0.000359   0.000750  -0.010339
     54      -0.000414   0.000008   0.000037   0.000162  -0.000008  -0.001668
     55       0.004455  -0.000312  -0.001030   0.000083   0.000186   0.001471
     56      -0.003265   0.000195   0.000754  -0.000010  -0.000074  -0.002493
     57      -0.005903  -0.000019  -0.000175   0.000509  -0.000738   0.000828
     58      -0.002186   0.000153   0.000509  -0.000152   0.000003  -0.000538
     59       0.006078   0.000006   0.000179  -0.000425   0.000986  -0.000546
     60       0.000219   0.000343  -0.000114  -0.000519  -0.000464  -0.174888
     61       0.000668  -0.001428   0.000287   0.003383  -0.000966   0.869251
     62       0.000353   0.000228  -0.000078  -0.000181  -0.000577  -0.456461
     63       0.000046   0.000007   0.000009   0.000003  -0.000045   0.000095
     64      -0.000115   0.000003   0.000018  -0.000029   0.000046  -0.000083
     65       0.000048  -0.000006  -0.000029  -0.000001   0.000015   0.000042
     66      -0.000316  -0.000034  -0.000093  -0.000126   0.000473  -0.000381
     67      -0.000091  -0.000012   0.000000  -0.000009   0.000100  -0.000011
     68       0.000531   0.000011   0.000034   0.000244  -0.000544   0.000526
     69      -0.000302   0.000000   0.000021  -0.000030   0.000108  -0.000020
     70       0.001529  -0.000042  -0.000240   0.000361  -0.000543   0.001609
     71      -0.000877   0.000011   0.000146  -0.000184   0.000374  -0.000410
     72       0.325631   0.192805   0.716634  -0.486962  -0.252931   0.001379
     73       0.062587   0.038712   0.137730  -0.094299  -0.049515   0.000093
     74      -0.001320  -0.000535  -0.002945   0.001928   0.000945  -0.000006
     75      -0.006861  -0.267112   0.146010   0.038556   0.132691  -0.000245
     76      -0.016884  -0.739279   0.408557   0.105618   0.364787  -0.001377
     77      -0.002590  -0.114180   0.063143   0.016314   0.056372  -0.000273
     78      -0.000025   0.000011   0.000041  -0.000052   0.000017  -0.000033
     79      -0.000166   0.000016   0.000069  -0.000025   0.000017  -0.000030
     80       0.000084  -0.000009  -0.000045   0.000006   0.000000   0.000000
     81       0.000081  -0.000004  -0.000026   0.000045  -0.000014   0.000259
     82       0.000786  -0.000094  -0.000482   0.000440  -0.000325   0.000766
     83       0.000636  -0.000080  -0.000397   0.000359  -0.000258   0.000673
     84       0.000492  -0.000111  -0.000514   0.000478  -0.000170   0.000312
     85      -0.000134   0.000008   0.000067  -0.000001  -0.000001  -0.000016
     86      -0.000527   0.000122   0.000569  -0.000482   0.000264  -0.000293
     87      -0.000360   0.000030   0.000098   0.000072   0.000001  -0.000070
     88       0.001459  -0.000132  -0.000446  -0.000145   0.000112   0.000093
     89      -0.001069   0.000092   0.000377   0.000044  -0.000032  -0.000127


-----------
IR SPECTRUM  
-----------

 Mode    freq (cm**-1)   T**2         TX         TY         TZ
-------------------------------------------------------------------
   7:        66.21    0.000000  (  0.000000   0.000000   0.000000)
   8:       105.77    0.000000  (  0.000000   0.000000   0.000000)
   9:       111.22    0.000000  (  0.000000   0.000000   0.000000)
  10:       146.82    0.000000  (  0.000000   0.000000   0.000000)
  11:       167.72    0.000000  (  0.000000   0.000000   0.000000)
  12:       187.98    0.000000  (  0.000000   0.000000   0.000000)
  13:       207.63    0.000000  (  0.000000   0.000000   0.000000)
  14:       227.93    0.000000  (  0.000000   0.000000   0.000000)
  15:       271.98    0.000000  (  0.000000   0.000000   0.000000)
  16:       310.98    0.000000  (  0.000000   0.000000   0.000000)
  17:       343.05    0.000000  (  0.000000   0.000000   0.000000)
  18:       368.42    0.000000  (  0.000000   0.000000   0.000000)
  19:       397.60    0.000000  (  0.000000   0.000000   0.000000)
  20:       402.93    0.000000  (  0.000000   0.000000   0.000000)
  21:       431.45    0.000000  (  0.000000   0.000000   0.000000)
  22:       519.73    0.000000  (  0.000000   0.000000   0.000000)
  23:       589.61    0.000000  (  0.000000   0.000000   0.000000)
  24:       593.58    0.000000  (  0.000000   0.000000   0.000000)
  25:       677.41    0.000000  (  0.000000   0.000000   0.000000)
  26:       704.59    0.000000  (  0.000000   0.000000   0.000000)
  27:       771.99    0.000000  (  0.000000   0.000000   0.000000)
  28:       778.94    0.000000  (  0.000000   0.000000   0.000000)
  29:       798.52    0.000000  (  0.000000   0.000000   0.000000)
  30:       818.68    0.000000  (  0.000000   0.000000   0.000000)
  31:       850.23    0.000000  (  0.000000   0.000000   0.000000)
  32:       895.69    0.000000  (  0.000000   0.000000   0.000000)
  33:       904.77    0.000000  (  0.000000   0.000000   0.000000)
  34:       929.16    0.000000  (  0.000000   0.000000   0.000000)
  35:       948.00    0.000000  (  0.000000   0.000000   0.000000)
  36:       951.28    0.000000  (  0.000000   0.000000   0.000000)
  37:       955.05    0.000000  (  0.000000   0.000000   0.000000)
  38:       967.24    0.000000  (  0.000000   0.000000   0.000000)
  39:       973.76    0.000000  (  0.000000   0.000000   0.000000)
  40:      1018.15    0.000000  (  0.000000   0.000000   0.000000)
  41:      1047.72    0.000000  (  0.000000   0.000000   0.000000)
  42:      1055.11    0.000000  (  0.000000   0.000000   0.000000)
  43:      1072.53    0.000000  (  0.000000   0.000000   0.000000)
  44:      1081.51    0.000000  (  0.000000   0.000000   0.000000)
  45:      1098.20    0.000000  (  0.000000   0.000000   0.000000)
  46:      1109.06    0.000000  (  0.000000   0.000000   0.000000)
  47:      1125.37    0.000000  (  0.000000   0.000000   0.000000)
  48:      1136.76    0.000000  (  0.000000   0.000000   0.000000)
  49:      1178.99    0.000000  (  0.000000   0.000000   0.000000)
  50:      1186.54    0.000000  (  0.000000   0.000000   0.000000)
  51:      1196.65    0.000000  (  0.000000   0.000000   0.000000)
  52:      1200.69    0.000000  (  0.000000   0.000000   0.000000)
  53:      1217.32    0.000000  (  0.000000   0.000000   0.000000)
  54:      1230.25    0.000000  (  0.000000   0.000000   0.000000)
  55:      1258.52    0.000000  (  0.000000   0.000000   0.000000)
  56:      1269.01    0.000000  (  0.000000   0.000000   0.000000)
  57:      1272.99    0.000000  (  0.000000   0.000000   0.000000)
  58:      1283.15    0.000000  (  0.000000   0.000000   0.000000)
  59:      1305.05    0.000000  (  0.000000   0.000000   0.000000)
  60:      1316.88    0.000000  (  0.000000   0.000000   0.000000)
  61:      1341.59    0.000000  (  0.000000   0.000000   0.000000)
  62:      1371.51    0.000000  (  0.000000   0.000000   0.000000)
  63:      1413.08    0.000000  (  0.000000   0.000000   0.000000)
  64:      1433.63    0.000000  (  0.000000   0.000000   0.000000)
  65:      1443.20    0.000000  (  0.000000   0.000000   0.000000)
  66:      1473.68    0.000000  (  0.000000   0.000000   0.000000)
  67:      1502.49    0.000000  (  0.000000   0.000000   0.000000)
  68:      1507.57    0.000000  (  0.000000   0.000000   0.000000)
  69:      1507.71    0.000000  (  0.000000   0.000000   0.000000)
  70:      1514.41    0.000000  (  0.000000   0.000000   0.000000)
  71:      1533.60    0.000000  (  0.000000   0.000000   0.000000)
  72:      1540.44    0.000000  (  0.000000   0.000000   0.000000)
  73:      1667.55    0.000000  (  0.000000   0.000000   0.000000)
  74:      2759.09    0.000000  (  0.000000   0.000000   0.000000)
  75:      2876.20    0.000000  (  0.000000   0.000000   0.000000)
  76:      2887.58    0.000000  (  0.000000   0.000000   0.000000)
  77:      2900.71    0.000000  (  0.000000   0.000000   0.000000)
  78:      2910.01    0.000000  (  0.000000   0.000000   0.000000)
  79:      2914.00    0.000000  (  0.000000   0.000000   0.000000)
  80:      2918.80    0.000000  (  0.000000   0.000000   0.000000)
  81:      2921.70    0.000000  (  0.000000   0.000000   0.000000)
  82:      2932.19    0.000000  (  0.000000   0.000000   0.000000)
  83:      2933.95    0.000000  (  0.000000   0.000000   0.000000)
  84:      2972.41    0.000000  (  0.000000   0.000000   0.000000)
  85:      2981.45    0.000000  (  0.000000   0.000000   0.000000)
  86:      2986.48    0.000000  (  0.000000   0.000000   0.000000)
  87:      2996.12    0.000000  (  0.000000   0.000000   0.000000)
  88:      3001.92    0.000000  (  0.000000   0.000000   0.000000)
  89:      3229.50    0.000000  (  0.000000   0.000000   0.000000)

The first frequency considered to be a vibration is 7
The total number of vibrations considered is 83


--------------------------
THERMOCHEMISTRY AT 298.15K
--------------------------

Temperature         ... 298.15 K
Pressure            ... 1.00 atm
Total Mass          ... 179.26 AMU

Throughout the following assumptions are being made:
  (1) The electronic state is orbitally nondegenerate
  (2) There are no thermally accessible electronically excited states
  (3) Hindered rotations indicated by low frequency modes are not
      treated as such but are treated as vibrations and this may
      cause some error
  (4) All equations used are the standard statistical mechanics
      equations for an ideal gas
  (5) All vibrations are strictly harmonic

freq.      66.21  E(vib)   ...       0.50 
freq.     105.77  E(vib)   ...       0.45 
freq.     111.22  E(vib)   ...       0.45 
freq.     146.82  E(vib)   ...       0.41 
freq.     167.72  E(vib)   ...       0.38 
freq.     187.98  E(vib)   ...       0.36 
freq.     207.63  E(vib)   ...       0.34 
freq.     227.93  E(vib)   ...       0.33 
freq.     271.98  E(vib)   ...       0.29 
freq.     310.98  E(vib)   ...       0.26 
freq.     343.05  E(vib)   ...       0.23 
freq.     368.42  E(vib)   ...       0.21 
freq.     397.60  E(vib)   ...       0.20 
freq.     402.93  E(vib)   ...       0.19 
freq.     431.45  E(vib)   ...       0.18 
freq.     519.73  E(vib)   ...       0.13 
freq.     589.61  E(vib)   ...       0.10 
freq.     593.58  E(vib)   ...       0.10 
freq.     677.41  E(vib)   ...       0.08 
freq.     704.59  E(vib)   ...       0.07 
freq.     771.99  E(vib)   ...       0.05 
freq.     778.94  E(vib)   ...       0.05 
freq.     798.52  E(vib)   ...       0.05 
freq.     818.68  E(vib)   ...       0.05 
freq.     850.23  E(vib)   ...       0.04 
freq.     895.69  E(vib)   ...       0.03 
freq.     904.77  E(vib)   ...       0.03 
freq.     929.16  E(vib)   ...       0.03 
freq.     948.00  E(vib)   ...       0.03 
freq.     951.28  E(vib)   ...       0.03 
freq.     955.05  E(vib)   ...       0.03 
freq.     967.24  E(vib)   ...       0.03 
freq.     973.76  E(vib)   ...       0.03 
freq.    1018.15  E(vib)   ...       0.02 
freq.    1047.72  E(vib)   ...       0.02 
freq.    1055.11  E(vib)   ...       0.02 
freq.    1072.53  E(vib)   ...       0.02 
freq.    1081.51  E(vib)   ...       0.02 
freq.    1098.20  E(vib)   ...       0.02 
freq.    1109.06  E(vib)   ...       0.02 
freq.    1125.37  E(vib)   ...       0.01 
freq.    1136.76  E(vib)   ...       0.01 
freq.    1178.99  E(vib)   ...       0.01 
freq.    1186.54  E(vib)   ...       0.01 
freq.    1196.65  E(vib)   ...       0.01 
freq.    1200.69  E(vib)   ...       0.01 
freq.    1217.32  E(vib)   ...       0.01 
freq.    1230.25  E(vib)   ...       0.01 
freq.    1258.52  E(vib)   ...       0.01 
freq.    1269.01  E(vib)   ...       0.01 
freq.    1272.99  E(vib)   ...       0.01 
freq.    1283.15  E(vib)   ...       0.01 
freq.    1305.05  E(vib)   ...       0.01 
freq.    1316.88  E(vib)   ...       0.01 
freq.    1341.59  E(vib)   ...       0.01 
freq.    1371.51  E(vib)   ...       0.01 
freq.    1413.08  E(vib)   ...       0.00 
freq.    1433.63  E(vib)   ...       0.00 
freq.    1443.20  E(vib)   ...       0.00 
freq.    1473.68  E(vib)   ...       0.00 
freq.    1502.49  E(vib)   ...       0.00 
freq.    1507.57  E(vib)   ...       0.00 
freq.    1507.71  E(vib)   ...       0.00 
freq.    1514.41  E(vib)   ...       0.00 
freq.    1533.60  E(vib)   ...       0.00 
freq.    1540.44  E(vib)   ...       0.00 
freq.    1667.55  E(vib)   ...       0.00 
freq.    2759.09  E(vib)   ...       0.00 
freq.    2876.20  E(vib)   ...       0.00 
freq.    2887.58  E(vib)   ...       0.00 
freq.    2900.71  E(vib)   ...       0.00 
freq.    2910.01  E(vib)   ...       0.00 
freq.    2914.00  E(vib)   ...       0.00 
freq.    2918.80  E(vib)   ...       0.00 
freq.    2921.70  E(vib)   ...       0.00 
freq.    2932.19  E(vib)   ...       0.00 
freq.    2933.95  E(vib)   ...       0.00 
freq.    2972.41  E(vib)   ...       0.00 
freq.    2981.45  E(vib)   ...       0.00 
freq.    2986.48  E(vib)   ...       0.00 
freq.    2996.12  E(vib)   ...       0.00 
freq.    3001.92  E(vib)   ...       0.00 
freq.    3229.50  E(vib)   ...       0.00 

------------
INNER ENERGY
------------

The inner energy is: U= E(el) + E(ZPE) + E(vib) + E(rot) + E(trans)
    E(el)   - is the total energy from the electronic structure calculation
              = E(kin-el) + E(nuc-el) + E(el-el) + E(nuc-nuc)
    E(ZPE)  - the the zero temperature vibrational energy from the frequency calculation
    E(vib)  - the the finite temperature correction to E(ZPE) due to population
              of excited vibrational states
    E(rot)  - is the rotational thermal energy
    E(trans)- is the translational thermal energy

Summary of contributions to the inner energy U:
Electronic energy                ...    -39.15219709 Eh
Zero point energy                ...      0.24925199 Eh     156.41 kcal/mol
Thermal vibrational correction   ...      0.00963969 Eh       6.05 kcal/mol
Thermal rotational correction    ...      0.00141627 Eh       0.89 kcal/mol
Thermal translational correction ...      0.00141627 Eh       0.89 kcal/mol
-----------------------------------------------------------------------
Total thermal energy                    -38.89047286 Eh


Summary of corrections to the electronic energy:
(perhaps to be used in another calculation)
Total thermal correction                  0.01247224 Eh       7.83 kcal/mol
Non-thermal (ZPE) correction              0.24925199 Eh     156.41 kcal/mol
-----------------------------------------------------------------------
Total correction                          0.26172423 Eh     164.23 kcal/mol


--------
ENTHALPY
--------

The enthalpy is H = U + kB*T
                kB is Boltzmann's constant
Total free energy                 ...    -38.89047286 Eh 
Thermal Enthalpy correction       ...      0.00094421 Eh       0.59 kcal/mol
-----------------------------------------------------------------------
Total Enthalpy                    ...    -38.88952865 Eh


Note: Only C1 symmetry has been detected, increase convergence thresholds 
      if your molecule has a higher symmetry. Symmetry factor of 1.0 is   
      used for the rotational entropy correction. 
 

Note: Rotational entropy computed according to Herzberg 
Infrared and Raman Spectra, Chapter V,1, Van Nostrand Reinhold, 1945 
Point Group:  C1, Symmetry Number:   1  
Rotational constants in cm-1:     0.037036     0.013745     0.010866 

Vibrational entropy computed according to the QRRHO of S. Grimme
Chem.Eur.J. 2012 18 9955


-------
ENTROPY
-------

The entropy contributions are T*S = T*(S(el)+S(vib)+S(rot)+S(trans))
     S(el)   - electronic entropy
     S(vib)  - vibrational entropy
     S(rot)  - rotational entropy
     S(trans)- translational entropy
The entropies will be listed as mutliplied by the temperature to get
units of energy

Electronic entropy                ...      0.00000000 Eh      0.00 kcal/mol
Vibrational entropy               ...      0.01629826 Eh     10.23 kcal/mol
Rotational entropy                ...      0.01522553 Eh      9.55 kcal/mol
Translational entropy             ...      0.01969790 Eh     12.36 kcal/mol
-----------------------------------------------------------------------
Final entropy term                ...      0.05122168 Eh     32.14 kcal/mol

In case the symmetry of your molecule has not been determined correctly
or in case you have a reason to use a different symmetry number we print 
out the resulting rotational entropy values for sn=1,12 :
 --------------------------------------------------------
|  sn= 1 | S(rot)=       0.01522553 Eh      9.55 kcal/mol|
|  sn= 2 | S(rot)=       0.01457107 Eh      9.14 kcal/mol|
|  sn= 3 | S(rot)=       0.01418824 Eh      8.90 kcal/mol|
|  sn= 4 | S(rot)=       0.01391662 Eh      8.73 kcal/mol|
|  sn= 5 | S(rot)=       0.01370593 Eh      8.60 kcal/mol|
|  sn= 6 | S(rot)=       0.01353378 Eh      8.49 kcal/mol|
|  sn= 7 | S(rot)=       0.01338824 Eh      8.40 kcal/mol|
|  sn= 8 | S(rot)=       0.01326216 Eh      8.32 kcal/mol|
|  sn= 9 | S(rot)=       0.01315095 Eh      8.25 kcal/mol|
|  sn=10 | S(rot)=       0.01305147 Eh      8.19 kcal/mol|
|  sn=11 | S(rot)=       0.01296148 Eh      8.13 kcal/mol|
|  sn=12 | S(rot)=       0.01287933 Eh      8.08 kcal/mol|
 --------------------------------------------------------


-------------------
GIBBS FREE ENERGY
-------------------

The Gibbs free energy is G = H - T*S

Total enthalpy                    ...    -38.88952865 Eh 
Total entropy correction          ...     -0.05122168 Eh    -32.14 kcal/mol
-----------------------------------------------------------------------
Final Gibbs free energy         ...    -38.94075033 Eh

For completeness - the Gibbs free energy minus the electronic energy
G-E(el)                           ...      0.21144675 Eh    132.68 kcal/mol


Total Time for Numerical Frequencies  :        91.101 sec
Time for Reference State(s)           :         0.117 sec
Time for Displacements                :        83.107 sec

Timings for individual modules:

Sum of individual times         ...        0.576 sec (=   0.010 min)
XTB module                      ...        0.576 sec (=   0.010 min) 100.0 %
                             ****ORCA TERMINATED NORMALLY****
TOTAL RUN TIME: 0 days 0 hours 1 minutes 32 seconds 367 msec
(SLURM) EXECUTION TIME: 92.415131137 seconds.
