
                                 *****************
                                 * O   R   C   A *
                                 *****************

           --- An Ab Initio, DFT and Semiempirical electronic structure package ---

                  #######################################################
                  #                        -***-                        #
                  #          Department of theory and spectroscopy      #
                  #               Directorship: Frank Neese             #
                  #        Max Planck Institute fuer Kohlenforschung    #
                  #                Kaiser Wilhelm Platz 1               #
                  #                 D-45470 Muelheim/Ruhr               #
                  #                      Germany                        #
                  #                                                     #
                  #                  All rights reserved                #
                  #                        -***-                        #
                  #######################################################


                         Program Version 4.2.1 -  RELEASE  -


 With contributions from (in alphabetic order):
   Daniel Aravena         : Magnetic Suceptibility
   Michael Atanasov       : Ab Initio Ligand Field Theory (pilot matlab implementation)
   Alexander A. Auer      : GIAO ZORA, VPT2
   Ute Becker             : Parallelization
   Giovanni Bistoni       : ED, misc. LED, open-shell LED, HFLD
   Martin Brehm           : Molecular dynamics
   Dmytro Bykov           : SCF Hessian
   Vijay G. Chilkuri      : MRCI spin determinant printing, contributions to CSF-ICE
   Dipayan Datta          : RHF DLPNO-CCSD density
   Achintya Kumar Dutta   : EOM-CC, STEOM-CC
   Dmitry Ganyushin       : Spin-Orbit,Spin-Spin,Magnetic field MRCI
   Miquel Garcia          : C-PCM Hessian, Gaussian charge scheme
   Yang Guo               : DLPNO-NEVPT2, CIM, IAO-localization
   Andreas Hansen         : Spin unrestricted coupled pair/coupled cluster methods
   Benjamin Helmich-Paris : CASSCF linear response (MC-RPA)
   Lee Huntington         : MR-EOM, pCC
   Robert Izsak           : Overlap fitted RIJCOSX, COSX-SCS-MP3, EOM
   Christian Kollmar      : KDIIS, OOCD, Brueckner-CCSD(T), CCSD density
   Simone Kossmann        : Meta GGA functionals, TD-DFT gradient, OOMP2, MP2 Hessian
   Martin Krupicka        : AUTO-CI
   Lucas Lang             : DCDCAS
   Dagmar Lenk            : GEPOL surface, SMD
   Dimitrios Liakos       : Extrapolation schemes; Compound Job, initial MDCI parallelization
   Dimitrios Manganas     : Further ROCIS development; embedding schemes
   Dimitrios Pantazis     : SARC Basis sets
   Taras Petrenko         : DFT Hessian,TD-DFT gradient, ASA, ECA, R-Raman, ABS, FL, XAS/XES, NRVS
   Peter Pinski           : DLPNO-MP2, DLPNO-MP2 Gradient
   Christoph Reimann      : Effective Core Potentials
   Marius Retegan         : Local ZFS, SOC
   Christoph Riplinger    : Optimizer, TS searches, QM/MM, DLPNO-CCSD(T), (RO)-DLPNO pert. Triples
   Tobias Risthaus        : Range-separated hybrids, TD-DFT gradient, RPA, STAB
   Michael Roemelt        : Original ROCIS implementation
   Masaaki Saitow         : Open-shell DLPNO-CCSD energy and density
   Barbara Sandhoefer     : DKH picture change effects
   Avijit Sen             : IP-ROCIS
   Kantharuban Sivalingam : CASSCF convergence, NEVPT2, FIC-MRCI
   Bernardo de Souza      : ESD, SOC TD-DFT
   Georgi Stoychev        : AutoAux, RI-MP2 NMR
   Willem Van den Heuvel  : Paramagnetic NMR
   Boris Wezisla          : Elementary symmetry handling
   Frank Wennmohs         : Technical directorship


 We gratefully acknowledge several colleagues who have allowed us to
 interface, adapt or use parts of their codes:
   Stefan Grimme, W. Hujo, H. Kruse,             : VdW corrections, initial TS optimization,
                  C. Bannwarth                     DFT functionals, gCP, sTDA/sTD-DF
   Ed Valeev, F. Pavosevic, A. Kumar             : LibInt (2-el integral package), F12 methods
   Garnet Chan, S. Sharma, J. Yang, R. Olivares  : DMRG
   Ulf Ekstrom                                   : XCFun DFT Library
   Mihaly Kallay                                 : mrcc  (arbitrary order and MRCC methods)
   Andreas Klamt, Michael Diedenhofen            : otool_cosmo (COSMO solvation model)
   Jiri Pittner, Ondrej Demel                    : Mk-CCSD
   Frank Weinhold                                : gennbo (NPA and NBO analysis)
   Christopher J. Cramer and Donald G. Truhlar   : smd solvation model
   Lars Goerigk                                  : TD-DFT with DH, B97 family of functionals
   V. Asgeirsson, H. Jonsson                     : NEB implementation
   FAccTs GmbH                                   : IRC, NEB, NEB-TS, Multilevel, MM, QM/MM, CI optimization
   S Lehtola, MJT Oliveira, MAL Marques          : LibXC Library


 Your calculation uses the libint2 library for the computation of 2-el integrals
 For citations please refer to: http://libint.valeyev.net

 Your ORCA version has been built with support for libXC version: 4.2.3
 For citations please refer to: https://tddft.org/programs/libxc/

 This ORCA versions uses:
   CBLAS   interface :  Fast vector & matrix operations
   LAPACKE interface :  Fast linear algebra routines
   SCALAPACK package :  Parallel linear algebra routines




***************************************
The coordinates will be read from file: init.xyz
***************************************


Your calculation utilizes the SMD solvation module
Please cite in your paper:
A.V. Marenich, C.J. Cramer, D.G. Truhlar J. Phys. Chem. B, 113, (2009), 6378 

Your calculation utilizes the semiempirical GFN2-xTB method
Please cite in your paper:
C. Bannwarth, Ehlert S., S. Grimme,  J. Chem. Theory Comput., 15, (2019), 1652.
   

----- Orbital basis set information -----
Your calculation utilizes the basis: def2-SVP
   F. Weigend and R. Ahlrichs, Phys. Chem. Chem. Phys. 7, 3297 (2005).

================================================================================
                                        WARNINGS
                       Please study these warnings very carefully!
================================================================================


WARNING: The environment variable RSH_COMMAND is not set!
  ===> : All Displacements for the Numerical Hessian calculation
         will be started on localhost

WARNING: Geometry Optimization
  ===> : Switching off AutoStart
         For restart on a previous wavefunction, please use MOREAD

WARNING: Found dipole moment calculation with XTB calculation
  ===> : Switching off dipole moment calculation


INFO   : the flag for use of LIBINT has been found!

================================================================================
                                       INPUT FILE
================================================================================
NAME = optts.inp
|  1> ! XTB2 OptTS NumFreq IRC
|  2> %maxcore 1150
|  3> 
|  4> * xyzfile 0 1 init.xyz
|  5> 
|  6> %cpcm
|  7>  smd true
|  8>  smdsolvent "ch2cl2"
|  9> end
| 10> 
| 11> %geom
| 12>  maxiter 30
| 13>  trust 0.2
| 14>  calc_hess true
| 15>  numhess true
| 16>  ts_mode
| 17>   {B 6 18}
| 18>  end
| 19>  ts_active_atoms
| 20>   {6 10 12 18 21 22 24 25}
| 21>  end
| 22> end
| 23> 
| 24> %pal
| 25>  nprocs 4
| 26> end
| 27> 
| 28>                          ****END OF INPUT****
================================================================================

                       *****************************
                       * Geometry Optimization Run *
                       *****************************

Geometry optimization settings:
Update method            Update   .... Bofill
Choice of coordinates    CoordSys .... Z-matrix Internals
Initial Hessian          InHess   .... Almoef's Model

Convergence Tolerances:
Energy Change            TolE     ....  5.0000e-06 Eh
Max. Gradient            TolMAXG  ....  3.0000e-04 Eh/bohr
RMS Gradient             TolRMSG  ....  1.0000e-04 Eh/bohr
Max. Displacement        TolMAXD  ....  4.0000e-03 bohr
RMS Displacement         TolRMSD  ....  2.0000e-03 bohr
Strict Convergence                ....  False
------------------------------------------------------------------------------
                        ORCA OPTIMIZATION COORDINATE SETUP
------------------------------------------------------------------------------

The optimization will be done in new redundant internal coordinates
Making redundant internal coordinates   ...  (new redundants) done
Following TS mode number                ...    internal coordinate number: 27
TS-active-atoms for coordinate setup... 6 10 12 18 21 22 24 25 
Evaluating the initial hessian          ...  (Is done on the fly) done
Evaluating the coordinates              ...  done
Calculating the B-matrix                .... done
Calculating the G-matrix                .... done
Diagonalizing the G-matrix              .... done
Small eigenvalue found = 6.596e-03
Small eigenvalue found = 1.068e-02
Small eigenvalue found = 2.086e-02
Small eigenvalue found = 2.717e-02
The first mode is                       ....   97
The number of degrees of freedom        ....  102

    -----------------------------------------------------------------
                    Redundant Internal Coordinates


    -----------------------------------------------------------------
         Definition                    Initial Value    d2E/dq (diagonal element)
    -----------------------------------------------------------------
      1. B(C   1,C   0)                  1.3980         0.000000   
      2. B(C   2,C   1)                  1.3815         0.000000   
      3. B(C   3,C   2)                  1.3869         0.000000   
      4. B(C   4,C   3)                  1.3869         0.000000   
      5. B(C   5,C   0)                  1.3999         0.000000   
      6. B(C   5,C   4)                  1.3807         0.000000   
      7. B(C   6,C   5)                  2.4487         0.000000   
      8. B(C   6,C   1)                  2.4979         0.000000   
      9. B(C   6,C   0)                  1.4491         0.000000   
     10. B(H   7,C   1)                  1.0776         0.000000   
     11. B(H   8,C   5)                  1.0797         0.000000   
     12. B(H   9,C   3)                  1.0797         0.000000   
     13. B(N  10,C   0)                  2.4283         0.000000   
     14. B(N  10,C   6)                  1.2855         0.000000   
     15. B(C  11,C   6)                  2.4052         0.000000   
     16. B(C  11,N  10)                  1.4388         0.000000   
     17. B(H  12,N  10)                  1.0618         0.000000   
     18. B(H  12,C  11)                  2.0951         0.000000   
     19. B(H  12,C   6)                  2.0474         0.000000   
     20. B(C  13,C  11)                  1.5310         0.000000   
     21. B(C  13,N  10)                  2.4339         0.000000   
     22. B(H  14,C  11)                  1.0927         0.000000   
     23. B(H  15,N  10)                  2.0597         0.000000   
     24. B(H  15,C  11)                  1.0936         0.000000   
     25. B(H  16,C  13)                  1.0914         0.000000   
     26. B(H  17,C  13)                  1.0918         0.000000   
     27. B(O  18,C   6)                  2.2819         0.000000   
     28. B(O  18,C   0)                  2.8155         0.000000   
     29. B(O  18,N  10)                  2.7702         0.000000   
     30. B(H  19,N  10)                  2.0330         0.000000   
     31. B(H  19,C   6)                  1.0867         0.000000   
     32. B(H  20,O  18)                  0.9604         0.000000   
     33. B(O  21,O  18)                  2.5246         0.000000   
     34. B(H  22,O  18)                  1.0423         0.000000   
     35. B(H  22,O  21)                  1.4826         0.000000   
     36. B(H  23,O  21)                  0.9580         0.000000   
     37. B(O  24,N  10)                  2.6256         0.000000   
     38. B(O  24,O  21)                  2.4527         0.000000   
     39. B(O  24,H  12)                  1.5952         0.000000   
     40. B(H  25,O  24)                  1.1488         0.000000   
     41. B(H  25,O  21)                  1.3045         0.000000   
     42. B(H  25,H  12)                  1.9705         0.000000   
     43. B(H  26,O  24)                  0.9582         0.000000   
     44. B(C  27,C  13)                  1.5275         0.000000   
     45. B(H  28,C  27)                  1.0919         0.000000   
     46. B(H  29,C  27)                  1.0920         0.000000   
     47. B(H  30,C   4)                  1.0796         0.000000   
     48. B(H  30,H  20)                  4.4737         0.000000   
     49. B(H  31,C   2)                  1.0797         0.000000   
     50. B(C  32,C  27)                  1.5244         0.000000   
     51. B(H  33,C  32)                  1.0875         0.000000   
     52. B(H  34,C  32)                  1.0878         0.000000   
     53. B(H  35,C  32)                  1.0878         0.000000   
     54. A(C   1,C   0,C   5)          118.8505         0.000000   
     55. A(C   1,C   0,C   6)          122.6332         0.000000   
     56. A(C   5,C   0,C   6)          118.5017         0.000000   
     57. A(C   0,C   1,H   7)          119.9832         0.000000   
     58. A(C   0,C   1,C   2)          120.2588         0.000000   
     59. A(C   2,C   1,H   7)          119.7545         0.000000   
     60. A(C   1,C   2,C   3)          120.3392         0.000000   
     61. A(C   1,C   2,H  31)          119.7256         0.000000   
     62. A(C   3,C   2,H  31)          119.9352         0.000000   
     63. A(C   2,C   3,H   9)          119.9670         0.000000   
     64. A(C   2,C   3,C   4)          119.9556         0.000000   
     65. A(C   4,C   3,H   9)          120.0770         0.000000   
     66. A(C   5,C   4,H  30)          119.9525         0.000000   
     67. A(C   3,C   4,C   5)          120.0059         0.000000   
     68. A(C   3,C   4,H  30)          120.0415         0.000000   
     69. A(C   0,C   5,H   8)          119.2519         0.000000   
     70. A(C   4,C   5,H   8)          120.1604         0.000000   
     71. A(C   0,C   5,C   4)          120.5828         0.000000   
     72. A(C   0,C   6,H  19)          116.1296         0.000000   
     73. A(C   0,C   6,N  10)          125.1323         0.000000   
     74. A(N  10,C   6,H  19)          117.7164         0.000000   
     75. A(C  11,N  10,H  12)          112.9521         0.000000   
     76. A(C   6,N  10,H  12)          121.1442         0.000000   
     77. A(C   6,N  10,C  11)          123.8816         0.000000   
     78. A(H  14,C  11,H  15)          108.7238         0.000000   
     79. A(C  13,C  11,H  15)          109.2929         0.000000   
     80. A(N  10,C  11,H  15)          108.0686         0.000000   
     81. A(C  13,C  11,H  14)          110.7495         0.000000   
     82. A(N  10,C  11,H  14)          109.9111         0.000000   
     83. A(N  10,C  11,C  13)          110.0380         0.000000   
     84. A(O  24,H  12,H  25)           35.6619         0.000000   
     85. A(N  10,H  12,H  25)          130.3118         0.000000   
     86. A(N  10,H  12,O  24)          162.0237         0.000000   
     87. A(H  16,C  13,H  17)          108.1703         0.000000   
     88. A(C  11,C  13,H  17)          109.2453         0.000000   
     89. A(C  11,C  13,H  16)          108.7356         0.000000   
     90. A(H  17,C  13,C  27)          109.5531         0.000000   
     91. A(H  16,C  13,C  27)          109.5830         0.000000   
     92. A(C  11,C  13,C  27)          111.4871         0.000000   
     93. A(H  20,O  18,H  22)          104.5576         0.000000   
     94. A(H  23,O  21,H  25)          104.1330         0.000000   
     95. A(H  22,O  21,H  23)          106.3293         0.000000   
     96. A(H  22,O  21,H  25)          104.1010         0.000000   
     97. L(O  18,H  22,O  21,H  20, 2) 180.6520         0.000000   
     98. L(O  18,H  22,O  21,H  20, 1) 178.5565         0.000000   
     99. A(H  12,O  24,H  26)          121.2444         0.000000   
    100. A(H  12,O  24,H  25)           90.2905         0.000000   
    101. A(H  25,O  24,H  26)          103.7816         0.000000   
    102. A(H  12,H  25,O  24)           54.0476         0.000000   
    103. A(H  12,H  25,O  21)          123.4571         0.000000   
    104. A(H  29,C  27,C  32)          109.3854         0.000000   
    105. A(H  28,C  27,C  32)          109.4446         0.000000   
    106. A(C  13,C  27,C  32)          111.5240         0.000000   
    107. A(H  28,C  27,H  29)          107.7599         0.000000   
    108. A(C  13,C  27,H  29)          109.4157         0.000000   
    109. A(C  13,C  27,H  28)          109.2324         0.000000   
    110. A(H  34,C  32,H  35)          108.3779         0.000000   
    111. A(H  33,C  32,H  35)          108.3560         0.000000   
    112. A(C  27,C  32,H  35)          110.5375         0.000000   
    113. A(H  33,C  32,H  34)          108.4043         0.000000   
    114. A(C  27,C  32,H  34)          110.6265         0.000000   
    115. A(C  27,C  32,H  33)          110.4623         0.000000   
    116. D(C   2,C   1,C   0,C   6)    179.2785         0.000000   
    117. D(H   7,C   1,C   0,C   6)     -0.0398         0.000000   
    118. D(C   2,C   1,C   0,C   5)      0.6895         0.000000   
    119. D(H   7,C   1,C   0,C   5)   -178.6288         0.000000   
    120. D(H  31,C   2,C   1,C   0)    179.9926         0.000000   
    121. D(H  31,C   2,C   1,H   7)     -0.6876         0.000000   
    122. D(C   3,C   2,C   1,H   7)    179.3687         0.000000   
    123. D(C   3,C   2,C   1,C   0)      0.0488         0.000000   
    124. D(H   9,C   3,C   2,C   1)    179.6598         0.000000   
    125. D(C   4,C   3,C   2,H  31)    179.5057         0.000000   
    126. D(H   9,C   3,C   2,H  31)     -0.2838         0.000000   
    127. D(C   4,C   3,C   2,C   1)     -0.5507         0.000000   
    128. D(C   5,C   4,C   3,H   9)   -179.9123         0.000000   
    129. D(H  30,C   4,C   3,C   2)   -179.6311         0.000000   
    130. D(C   5,C   4,C   3,C   2)      0.2984         0.000000   
    131. D(H  30,C   4,C   3,H   9)      0.1582         0.000000   
    132. D(H   8,C   5,C   4,H  30)     -0.4294         0.000000   
    133. D(C   0,C   5,C   4,H  30)   -179.6160         0.000000   
    134. D(H   8,C   5,C   0,C   6)      1.2152         0.000000   
    135. D(C   0,C   5,C   4,C   3)      0.4543         0.000000   
    136. D(H   8,C   5,C   0,C   1)    179.8630         0.000000   
    137. D(H   8,C   5,C   4,C   3)    179.6410         0.000000   
    138. D(C   4,C   5,C   0,C   1)     -0.9430         0.000000   
    139. D(C   4,C   5,C   0,C   6)   -179.5908         0.000000   
    140. D(H  19,C   6,C   0,C   5)     12.5560         0.000000   
    141. D(H  19,C   6,C   0,C   1)   -166.0376         0.000000   
    142. D(N  10,C   6,C   0,C   5)   -179.3180         0.000000   
    143. D(N  10,C   6,C   0,C   1)      2.0884         0.000000   
    144. D(H  12,N  10,C   6,C   0)     23.7529         0.000000   
    145. D(C  11,N  10,C   6,H  19)     -5.6202         0.000000   
    146. D(C  11,N  10,C   6,C   0)   -173.5756         0.000000   
    147. D(H  12,N  10,C   6,H  19)   -168.2917         0.000000   
    148. D(H  15,C  11,N  10,H  12)     49.3045         0.000000   
    149. D(H  14,C  11,N  10,H  12)    167.8135         0.000000   
    150. D(H  14,C  11,N  10,C   6)      3.8850         0.000000   
    151. D(C  13,C  11,N  10,H  12)    -69.9650         0.000000   
    152. D(H  15,C  11,N  10,C   6)   -114.6240         0.000000   
    153. D(C  13,C  11,N  10,C   6)    126.1065         0.000000   
    154. D(H  25,H  12,N  10,C  11)    -91.3236         0.000000   
    155. D(H  25,H  12,N  10,C   6)     73.0995         0.000000   
    156. D(O  24,H  12,N  10,C  11)    -58.2056         0.000000   
    157. D(O  24,H  12,N  10,C   6)    106.2175         0.000000   
    158. D(C  27,C  13,C  11,H  15)     59.2120         0.000000   
    159. D(C  27,C  13,C  11,H  14)    -60.5446         0.000000   
    160. D(C  27,C  13,C  11,N  10)    177.7316         0.000000   
    161. D(H  17,C  13,C  11,H  15)   -179.5629         0.000000   
    162. D(H  17,C  13,C  11,H  14)     60.6804         0.000000   
    163. D(H  17,C  13,C  11,N  10)    -61.0434         0.000000   
    164. D(H  16,C  13,C  11,H  15)    -61.7104         0.000000   
    165. D(H  16,C  13,C  11,H  14)    178.5330         0.000000   
    166. D(H  16,C  13,C  11,N  10)     56.8091         0.000000   
    167. D(H  25,O  21,O  18,H  20)   -132.4507         0.000000   
    168. D(H  23,O  21,O  18,H  20)    117.6464         0.000000   
    169. D(H  12,O  24,O  21,H  22)      0.1999         0.000000   
    170. D(H  12,O  24,O  21,H  23)    111.2589         0.000000   
    171. D(H  26,O  24,O  21,H  22)    122.2414         0.000000   
    172. D(H  26,O  24,O  21,H  23)   -126.6996         0.000000   
    173. D(H  26,O  24,H  12,H  25)   -106.3626         0.000000   
    174. D(H  26,O  24,H  12,N  10)   -151.9743         0.000000   
    175. D(H  25,O  24,H  12,N  10)    -45.6117         0.000000   
    176. D(O  24,H  25,H  12,N  10)    163.1882         0.000000   
    177. D(O  21,H  25,H  12,O  24)    179.2054         0.000000   
    178. D(O  21,H  25,H  12,N  10)    -17.6065         0.000000   
    179. D(H  12,H  25,O  24,H  26)    122.3654         0.000000   
    180. D(H  12,H  25,O  21,H  22)      0.7305         0.000000   
    181. D(H  12,H  25,O  21,H  23)    111.9654         0.000000   
    182. D(C  32,C  27,C  13,H  16)    -60.1933         0.000000   
    183. D(C  32,C  27,C  13,C  11)    179.3807         0.000000   
    184. D(H  29,C  27,C  13,H  17)    -62.8181         0.000000   
    185. D(H  29,C  27,C  13,H  16)    178.6536         0.000000   
    186. D(H  29,C  27,C  13,C  11)     58.2276         0.000000   
    187. D(H  28,C  27,C  13,H  17)    179.4391         0.000000   
    188. D(H  28,C  27,C  13,H  16)     60.9108         0.000000   
    189. D(C  32,C  27,C  13,H  17)     58.3350         0.000000   
    190. D(H  28,C  27,C  13,C  11)    -59.5152         0.000000   
    191. D(H  35,C  32,C  27,H  29)   -179.3558         0.000000   
    192. D(H  35,C  32,C  27,H  28)    -61.5069         0.000000   
    193. D(H  35,C  32,C  27,C  13)     59.4735         0.000000   
    194. D(H  34,C  32,C  27,H  29)     60.5943         0.000000   
    195. D(H  34,C  32,C  27,H  28)    178.4432         0.000000   
    196. D(H  34,C  32,C  27,C  13)    -60.5764         0.000000   
    197. D(H  33,C  32,C  27,H  29)    -59.4397         0.000000   
    198. D(H  33,C  32,C  27,H  28)     58.4092         0.000000   
    199. D(H  33,C  32,C  27,C  13)    179.3896         0.000000   
    -----------------------------------------------------------------

Number of atoms                         .... 36
Number of degrees of freedom            .... 199

         *************************************************************
         *                GEOMETRY OPTIMIZATION CYCLE   1            *
         *************************************************************
      -----------------------------------------------------------      
     |                   =====================                   |     
     |                           x T B                           |     
     |                   =====================                   |     
     |                         S. Grimme                         |     
     |          Mulliken Center for Theoretical Chemistry        |     
     |                    University of Bonn                     |     
      -----------------------------------------------------------      

   * xtb version 6.3.2 (30e43eb) compiled by 'schneider@apollo14' on 2020-08-08

   xtb is free software: you can redistribute it and/or modify it under
   the terms of the GNU Lesser General Public License as published by
   the Free Software Foundation, either version 3 of the License, or
   (at your option) any later version.
   
   xtb is distributed in the hope that it will be useful,
   but WITHOUT ANY WARRANTY; without even the implied warranty of
   MERCHANTABILITY or FITNESS FOR A PARTICULAR PURPOSE.  See the
   GNU Lesser General Public License for more details.
   
   Cite this work as:
   * S. Grimme, C. Bannwarth, P. Shushkov, J. Chem. Theory Comput., 2017,
     13, 1989-2009. DOI: 10.1021/acs.jctc.7b00118
   * C. Bannwarth, S. Ehlert and S. Grimme., J. Chem. Theory Comput., 2019,
     15, 1652-1671. DOI: 10.1021/acs.jctc.8b01176
   * P. Pracht, E. Caldeweyher, S. Ehlert, S. Grimme, ChemRxiv, 2019, preprint.
     DOI: 10.26434/chemrxiv.8326202.v1
   
   for GFN-FF:
   * S. Spicher and S. Grimme, Angew. Chem. Int. Ed., 2020,
     DOI: 10.1002/anie.202004239
   
   for DFT-D4:
   * E. Caldeweyher, C. Bannwarth and S. Grimme, J. Chem. Phys., 2017,
     147, 034112. DOI: 10.1063/1.4993215
   * E. Caldeweyher, S. Ehlert, A. Hansen, H. Neugebauer, S. Spicher,
     C. Bannwarth and S. Grimme, J. Chem. Phys., 2019, 150, 154122.
     DOI: 10.1063/1.5090222
   
   for sTDA-xTB:
   * S. Grimme and C. Bannwarth, J. Chem. Phys., 2016, 145, 054103.
     DOI: 10.1063/1.4959605
   
   in the mass-spec context:
   * V. Asgeirsson, C. Bauer and S. Grimme, Chem. Sci., 2017, 8, 4879.
     DOI: 10.1039/c7sc00601b
   * J. Koopman and S. Grimme, ACS Omega 2019, 4, 12, 15120-15133.
     DOI: 10.1021/acsomega.9b02011
   
   for metadynamics refer to:
   * S. Grimme, J. Chem. Theory Comput., 2019, 155, 2847-2862
     DOI: 10.1021/acs.jctc.9b00143
   
   with help from (in alphabetical order)
   C. Bannwarth, F. Bohle, G. Brandenburg, E. Caldeweyher, M. Checinski,
   S. Dohm, S. Ehlert, S. Ehrlich, F. März, H. Neugebauer, J. Pisarek,
   P. Pracht, P. Shushkov, and S. Spicher.
   
 * started run on 2020/08/14 at 11:41:34.836     

           -------------------------------------------------
          |                Calculation Setup                |
           -------------------------------------------------

          program call               : /opt/orca/otool_xtb optts_XTB.xyz --grad -c 0 -u 0 -P 4 --namespace optts --gbsa CH2Cl2
          calculation namespace      : optts
          coordinate file            : optts_XTB.xyz
          omp threads                :                     4
          number of atoms            :                    36
          number of electrons        :                    88
          charge                     :                     0
          spin                       :                   0.0
          first test random number   :      0.14618694850499

   ID    Z sym.   atoms
    1    6 C      1-7, 12, 14, 28, 33
    2    1 H      8-10, 13, 15-18, 20, 21, 23, 24, 26, 27, 29-32, 34-36
    3    7 N      11
    4    8 O      19, 22, 25

molecular fragmentation (1/2 indicates fragments):
111111111111111111212222222111111111
# atoms in fragment 1/2:    28     8
 fragment masses (1/2) :      162.25       53.04
CMA distance (Bohr)    :   5.395
constraining FC (au)   :  0.0500
########################################################################
[WARNING] Please study the warnings concerning your input carefully
-1- prog_main_parseArguments: Process number higher than OMP_NUM_THREADS, I hope you know what you are doing.
########################################################################

           -------------------------------------------------
          |                 G F N 2 - x T B                 |
           -------------------------------------------------

        Reference                      10.1021/acs.jctc.8b01176
      * Hamiltonian:
        H0-scaling (s, p, d)           1.850000    2.230000    2.230000
        zeta-weighting                 0.500000
      * Dispersion:
        s8                             2.700000
        a1                             0.520000
        a2                             5.000000
        s9                             5.000000
      * Repulsion:
        kExp                           1.500000    1.000000
        rExp                           1.000000
      * Coulomb:
        alpha                          2.000000
        third order                    shell-resolved
        anisotropic                    true
        a3                             3.000000
        a5                             4.000000
        cn-shift                       1.200000
        cn-exp                         4.000000
        max-rad                        5.000000

      * Solvation model:               GBSA
        Solvent                        CH2Cl2
        Parameter file                 internal GFN2-xTB/GBSA
        Dielectric constant                8.9300E+00
        Reference state                gsolv [1 M gas/solution]
        Free energy shift                  4.4408E-03 Eh       2.7867E+00 kcal/mol
        Temperature                        2.9815E+02 K
        Density                            1.3300E+00 kg/L
        Solvent mass                       8.4930E+01 g/mol
        Interaction kernel             Still
        Born radius scaling (c1)           1.4917E+00
        Born radii integrator          GBOBC
        Born offset                        0.0000E+00 a0       0.0000E+00 AA
        H-bond correction              false
        Ion screening                  false
        Surface tension                    1.0000E-05 Eh       1.5569E+01 dyn/cm
        Grid points                               230 per atom

          ...................................................
          :                      SETUP                      :
          :.................................................:
          :  # basis functions                  81          :
          :  # atomic orbitals                  81          :
          :  # shells                           51          :
          :  # electrons                        88          :
          :  max. iterations                   250          :
          :  Hamiltonian                  GFN2-xTB          :
          :  restarted?                      false          :
          :  GBSA solvation                   true          :
          :  PC potential                    false          :
          :  electronic temp.          300.0000000     K    :
          :  accuracy                    1.0000000          :
          :  -> integral cutoff          0.2500000E+02      :
          :  -> integral neglect         0.1000000E-07      :
          :  -> SCF convergence          0.1000000E-05 Eh   :
          :  -> wf. convergence          0.1000000E-03 e    :
          :  Broyden damping             0.4000000          :
          ...................................................

 iter      E             dE          RMSdq      gap      omega  full diag
   1    -49.9092792 -0.499093E+02  0.397E+00    3.48       0.0  T
   2    -49.9875739 -0.782947E-01  0.234E+00    3.04       1.0  T
   3    -49.9870681  0.505809E-03  0.931E-01    1.95       1.0  T
   4    -49.9926035 -0.553536E-02  0.380E-01    2.08       1.0  T
   5    -49.9956452 -0.304173E-02  0.789E-02    2.09       1.0  T
   6    -49.9956849 -0.396804E-04  0.339E-02    2.15       1.0  T
   7    -49.9956901 -0.527307E-05  0.169E-02    2.16       1.0  T
   8    -49.9956930 -0.291001E-05  0.531E-03    2.17       3.1  T
   9    -49.9956932 -0.162343E-06  0.167E-03    2.17      10.0  T
  10    -49.9956932 -0.172097E-07  0.848E-04    2.16      19.7  T
  11    -49.9956932 -0.271812E-08  0.397E-04    2.16      41.9  T

   *** convergence criteria satisfied after 11 iterations ***

         #    Occupation            Energy/Eh            Energy/eV
      -------------------------------------------------------------
         1        2.0000           -0.6900050             -18.7760
       ...           ...                  ...                  ...
        38        2.0000           -0.4273686             -11.6293
        39        2.0000           -0.4255239             -11.5791
        40        2.0000           -0.4221194             -11.4865
        41        2.0000           -0.4190884             -11.4040
        42        2.0000           -0.4098944             -11.1538
        43        2.0000           -0.3853430             -10.4857
        44        2.0000           -0.3793785             -10.3234 (HOMO)
        45                         -0.2998263              -8.1587 (LUMO)
        46                         -0.2390953              -6.5061
        47                         -0.2086254              -5.6770
        48                         -0.1005555              -2.7363
        49                         -0.0086926              -0.2365
       ...                                ...                  ...
        81                          0.6551930              17.8287
      -------------------------------------------------------------
                  HL-Gap            0.0795522 Eh            2.1647 eV
             Fermi-level           -0.3396024 Eh           -9.2411 eV

 SCC (total)                   0 d,  0 h,  0 min,  1.327 sec
 SCC setup                      ...        0 min,  0.003 sec (  0.249%)
 Dispersion                     ...        0 min,  0.016 sec (  1.204%)
 classical contributions        ...        0 min,  0.006 sec (  0.425%)
 integral evaluation            ...        0 min,  0.041 sec (  3.062%)
 iterations                     ...        0 min,  1.165 sec ( 87.764%)
 molecular gradient             ...        0 min,  0.068 sec (  5.151%)
 printout                       ...        0 min,  0.028 sec (  2.142%)

         :::::::::::::::::::::::::::::::::::::::::::::::::::::
         ::                     SUMMARY                     ::
         :::::::::::::::::::::::::::::::::::::::::::::::::::::
         :: total energy             -49.344190511252 Eh    ::
         :: total w/o Gsasa/hb       -49.325798247177 Eh    ::
         :: gradient norm              0.000538388350 Eh/a0 ::
         :: HOMO-LUMO gap              2.164724994899 eV    ::
         ::.................................................::
         :: SCC energy               -49.995693231562 Eh    ::
         :: -> isotropic ES            0.181713634622 Eh    ::
         :: -> anisotropic ES         -0.025778010394 Eh    ::
         :: -> anisotropic XC          0.023096836968 Eh    ::
         :: -> dispersion             -0.028603063539 Eh    ::
         :: -> Gsolv                  -0.043556291674 Eh    ::
         ::    -> Gborn               -0.025164027599 Eh    ::
         ::    -> Gsasa               -0.022833093248 Eh    ::
         ::    -> Ghb                  0.000000000000 Eh    ::
         ::    -> Gshift               0.004440829173 Eh    ::
         :: repulsion energy           0.651276448723 Eh    ::
         :: add. restraining           0.000000000000 Eh    ::
         :: total charge              -0.000000000000 e     ::
         :::::::::::::::::::::::::::::::::::::::::::::::::::::

           -------------------------------------------------
          |                Property Printout                |
           -------------------------------------------------

    * Orbital Energies and Occupations

         #    Occupation            Energy/Eh            Energy/eV
      -------------------------------------------------------------
         1        2.0000           -0.6900050             -18.7760
       ...           ...                  ...                  ...
        32        2.0000           -0.4701977             -12.7947
        33        2.0000           -0.4532729             -12.3342
        34        2.0000           -0.4515368             -12.2869
        35        2.0000           -0.4432318             -12.0610
        36        2.0000           -0.4389337             -11.9440
        37        2.0000           -0.4357151             -11.8564
        38        2.0000           -0.4273686             -11.6293
        39        2.0000           -0.4255239             -11.5791
        40        2.0000           -0.4221194             -11.4865
        41        2.0000           -0.4190884             -11.4040
        42        2.0000           -0.4098944             -11.1538
        43        2.0000           -0.3853430             -10.4857
        44        2.0000           -0.3793785             -10.3234 (HOMO)
        45                         -0.2998263              -8.1587 (LUMO)
        46                         -0.2390953              -6.5061
        47                         -0.2086254              -5.6770
        48                         -0.1005555              -2.7363
        49                         -0.0086926              -0.2365
        50                          0.0352277               0.9586
        51                          0.0802808               2.1846
        52                          0.0867347               2.3602
        53                          0.1034151               2.8141
        54                          0.1130111               3.0752
        55                          0.1219662               3.3189
       ...                                ...                  ...
        81                          0.6551930              17.8287
      -------------------------------------------------------------
                  HL-Gap            0.0795522 Eh            2.1647 eV
             Fermi-level           -0.3396024 Eh           -9.2411 eV

     #   Z          covCN         q      C6AA      α(0)
     1   6 C        2.972     0.015    27.679     8.630
     2   6 C        2.921    -0.024    28.604     8.770
     3   6 C        2.917    -0.023    28.571     8.765
     4   6 C        2.920    -0.017    28.422     8.743
     5   6 C        2.916    -0.024    28.592     8.768
     6   6 C        2.927    -0.023    28.577     8.767
     7   6 C        2.847     0.092    25.959     8.350
     8   1 H        0.926     0.058     2.223     2.332
     9   1 H        0.926     0.061     2.187     2.313
    10   1 H        0.926     0.056     2.249     2.345
    11   7 N        2.681    -0.060    22.411     7.031
    12   6 C        3.749    -0.016    20.930     6.525
    13   1 H        0.858     0.272     0.804     1.405
    14   6 C        3.804    -0.069    21.824     6.651
    15   1 H        0.924     0.071     2.077     2.254
    16   1 H        0.924     0.077     2.009     2.217
    17   1 H        0.924     0.054     2.266     2.354
    18   1 H        0.924     0.055     2.258     2.350
    19   8 O        1.595    -0.632    25.978     6.878
    20   1 H        0.925     0.102     1.771     2.081
    21   1 H        0.805     0.276     0.799     1.404
    22   8 O        1.138    -0.820    31.954     7.588
    23   1 H        0.814     0.323     0.654     1.270
    24   1 H        0.806     0.214     1.049     1.609
    25   8 O        1.486    -0.723    28.464     7.193
    26   1 H        0.983     0.317     0.658     1.267
    27   1 H        0.806     0.245     0.912     1.500
    28   6 C        3.801    -0.057    21.594     6.616
    29   1 H        0.924     0.038     2.480     2.463
    30   1 H        0.924     0.042     2.423     2.434
    31   1 H        0.926     0.057     2.239     2.340
    32   1 H        0.926     0.052     2.291     2.367
    33   6 C        3.752    -0.107    22.614     6.781
    34   1 H        0.925     0.040     2.447     2.446
    35   1 H        0.925     0.041     2.433     2.439
    36   1 H        0.925     0.038     2.470     2.458

 Mol. C6AA /au·bohr⁶  :      10849.793595
 Mol. C8AA /au·bohr⁸  :     240019.141966
 Mol. α(0) /au        :        159.705083


Wiberg/Mayer (AO) data.
largest (>0.10) Wiberg bond orders for each atom

 ---------------------------------------------------------------------------
     #   Z sym  total        # sym  WBO       # sym  WBO       # sym  WBO
 ---------------------------------------------------------------------------
     1   6 C    3.986 --     2 C    1.359     6 C    1.356     7 C    1.111
     2   6 C    3.989 --     3 C    1.464     1 C    1.359     8 H    0.960
                             5 C    0.103
     3   6 C    3.991 --     2 C    1.464     4 C    1.426    32 H    0.969
                             6 C    0.103
     4   6 C    3.985 --     3 C    1.426     5 C    1.426    10 H    0.970
     5   6 C    3.990 --     6 C    1.466     4 C    1.426    31 H    0.969
                             2 C    0.103
     6   6 C    3.984 --     5 C    1.466     1 C    1.356     9 H    0.966
                             3 C    0.103
     7   6 C    3.928 --    11 N    1.629     1 C    1.111    20 H    0.944
                            19 O    0.110
     8   1 H    0.997 --     2 C    0.960
     9   1 H    0.996 --     6 C    0.966
    10   1 H    0.996 --     4 C    0.970
    11   7 N    3.637 --     7 C    1.629    12 C    0.996    13 H    0.768
    12   6 C    3.955 --    11 N    0.996    14 C    0.986    15 H    0.968
                            16 H    0.952
    13   1 H    0.926 --    11 N    0.768    25 O    0.121
    14   6 C    3.987 --    28 C    1.005    12 C    0.986    18 H    0.976
                            17 H    0.975
    15   1 H    0.995 --    12 C    0.968
    16   1 H    0.990 --    12 C    0.952
    17   1 H    0.997 --    14 C    0.975
    18   1 H    0.997 --    14 C    0.976
    19   8 O    1.905 --    21 H    0.919    23 H    0.717     7 C    0.110
    20   1 H    0.989 --     7 C    0.944
    21   1 H    0.924 --    19 O    0.919
    22   8 O    1.656 --    24 H    0.952    26 H    0.342    23 H    0.176
                            25 O    0.110
    23   1 H    0.896 --    19 O    0.717    22 O    0.176
    24   1 H    0.954 --    22 O    0.952
    25   8 O    1.794 --    27 H    0.932    26 H    0.555    13 H    0.121
                            22 O    0.110
    26   1 H    0.899 --    25 O    0.555    22 O    0.342
    27   1 H    0.940 --    25 O    0.932
    28   6 C    3.995 --    33 C    1.019    14 C    1.005    29 H    0.978
                            30 H    0.978
    29   1 H    0.999 --    28 C    0.978
    30   1 H    0.998 --    28 C    0.978
    31   1 H    0.996 --     5 C    0.969
    32   1 H    0.997 --     3 C    0.969
    33   6 C    3.995 --    28 C    1.019    36 H    0.988    35 H    0.987
                            34 H    0.987
    34   1 H    0.998 --    33 C    0.987
    35   1 H    0.998 --    33 C    0.987
    36   1 H    0.999 --    33 C    0.988
 ---------------------------------------------------------------------------

Topologies differ in total number of bonds
Writing topology from bond orders to xtbtopo.mol

molecular dipole:
                 x           y           z       tot (Debye)
 q only:        0.896      -3.312       0.730
   full:        0.985      -2.765       0.746       7.697
molecular quadrupole (traceless):
                xx          xy          yy          xz          yz          zz
 q only:        2.118      56.576     -23.873      -2.650      21.152      21.754
  q+dip:       -1.376      45.252     -20.334      -5.216      20.440      21.710
   full:       -2.534      46.987     -18.319      -5.159      18.703      20.852


           -------------------------------------------------
          | TOTAL ENERGY              -49.344190511252 Eh   |
          | GRADIENT NORM               0.000538388350 Eh/α |
          | HOMO-LUMO GAP               2.164724994899 eV   |
           -------------------------------------------------

------------------------------------------------------------------------
 * finished run on 2020/08/14 at 11:41:36.316     
------------------------------------------------------------------------
 total:
 * wall-time:     0 d,  0 h,  0 min,  1.480 sec
 *  cpu-time:     0 d,  0 h,  0 min,  6.998 sec
 * ratio c/w:     4.729 speedup
 SCF:
 * wall-time:     0 d,  0 h,  0 min,  1.354 sec
 *  cpu-time:     0 d,  0 h,  0 min,  6.393 sec
 * ratio c/w:     4.722 speedup


-------------------------   --------------------
FINAL SINGLE POINT ENERGY       -49.344190511250
-------------------------   --------------------


----------------------------------------------------------------------------
                           ORCA NUMERICAL FREQUENCIES
                              (4-process run)
----------------------------------------------------------------------------

Number of atoms                ... 36
Central differences            ... used
Number of displacements        ... 216
Numerical increment            ... 5.000e-03 bohr
IR-spectrum generation         ... on
Raman-spectrum generation      ... off
Surface Crossing Hessian       ... off
List of participating nodes    ...  optts.hostnames

The output will be reduced. Please look at the following files:
SCF program output             ... >optts.lastscf
Integral program output        ... >optts.lastint
Gradient program output        ... >optts.lastgrad
Dipole moment program output   ... >optts.lastmom
AutoCI program output          ... >optts.lastautoci


         <<< Energy and Gradient at the input geometry >>>

        <<< Energy and Gradient at displaced geometries >>>
             <<<Displacing   1/coordinate 2 (+)>>>
             <<<Displacing   1/coordinate 1 (+)>>>
             <<<Displacing   2/coordinate 1 (+)>>>
             <<<Displacing   1/coordinate 3 (+)>>>
             <<<Displacing   1/coordinate 1 (-)>>>
             <<<Displacing   1/coordinate 3 (-)>>>
             <<<Displacing   1/coordinate 2 (-)>>>
             <<<Displacing   2/coordinate 1 (-)>>>
             <<<Displacing   2/coordinate 2 (+)>>>
             <<<Displacing   3/coordinate 2 (+)>>>
             <<<Displacing   3/coordinate 1 (+)>>>
             <<<Displacing   2/coordinate 3 (+)>>>
             <<<Displacing   2/coordinate 2 (-)>>>
             <<<Displacing   3/coordinate 2 (-)>>>
             <<<Displacing   2/coordinate 3 (-)>>>
             <<<Displacing   3/coordinate 1 (-)>>>
             <<<Displacing   3/coordinate 3 (+)>>>
             <<<Displacing   4/coordinate 1 (+)>>>
             <<<Displacing   4/coordinate 3 (+)>>>
             <<<Displacing   3/coordinate 3 (-)>>>
             <<<Displacing   4/coordinate 1 (-)>>>
             <<<Displacing   4/coordinate 3 (-)>>>
             <<<Displacing   4/coordinate 2 (+)>>>
             <<<Displacing   4/coordinate 2 (-)>>>
             <<<Displacing   5/coordinate 1 (+)>>>
             <<<Displacing   5/coordinate 3 (+)>>>
             <<<Displacing   5/coordinate 2 (+)>>>
             <<<Displacing   5/coordinate 3 (-)>>>
             <<<Displacing   6/coordinate 1 (+)>>>
             <<<Displacing   5/coordinate 1 (-)>>>
             <<<Displacing   6/coordinate 1 (-)>>>
             <<<Displacing   5/coordinate 2 (-)>>>
             <<<Displacing   6/coordinate 3 (+)>>>
             <<<Displacing   7/coordinate 1 (+)>>>
             <<<Displacing   6/coordinate 2 (+)>>>
             <<<Displacing   6/coordinate 3 (-)>>>
             <<<Displacing   7/coordinate 1 (-)>>>
             <<<Displacing   6/coordinate 2 (-)>>>
             <<<Displacing   7/coordinate 2 (+)>>>
             <<<Displacing   7/coordinate 2 (-)>>>
             <<<Displacing   8/coordinate 1 (+)>>>
             <<<Displacing   8/coordinate 2 (+)>>>
             <<<Displacing   7/coordinate 3 (+)>>>
             <<<Displacing   8/coordinate 1 (-)>>>
             <<<Displacing   8/coordinate 2 (-)>>>
             <<<Displacing   7/coordinate 3 (-)>>>
             <<<Displacing   8/coordinate 3 (+)>>>
             <<<Displacing   8/coordinate 3 (-)>>>
             <<<Displacing   9/coordinate 1 (+)>>>
             <<<Displacing   9/coordinate 2 (+)>>>
             <<<Displacing   9/coordinate 1 (-)>>>
             <<<Displacing   9/coordinate 3 (+)>>>
             <<<Displacing   9/coordinate 2 (-)>>>
             <<<Displacing   9/coordinate 3 (-)>>>
             <<<Displacing  10/coordinate 1 (+)>>>
             <<<Displacing  10/coordinate 1 (-)>>>
             <<<Displacing  10/coordinate 3 (+)>>>
             <<<Displacing  11/coordinate 1 (+)>>>
             <<<Displacing  10/coordinate 2 (+)>>>
             <<<Displacing  10/coordinate 2 (-)>>>
             <<<Displacing  11/coordinate 1 (-)>>>
             <<<Displacing  10/coordinate 3 (-)>>>
             <<<Displacing  11/coordinate 2 (+)>>>
             <<<Displacing  11/coordinate 2 (-)>>>
             <<<Displacing  11/coordinate 3 (+)>>>
             <<<Displacing  12/coordinate 1 (+)>>>
             <<<Displacing  11/coordinate 3 (-)>>>
             <<<Displacing  12/coordinate 1 (-)>>>
             <<<Displacing  12/coordinate 2 (+)>>>
             <<<Displacing  12/coordinate 2 (-)>>>
             <<<Displacing  12/coordinate 3 (+)>>>
             <<<Displacing  12/coordinate 3 (-)>>>
             <<<Displacing  13/coordinate 1 (+)>>>
             <<<Displacing  13/coordinate 2 (+)>>>
             <<<Displacing  13/coordinate 1 (-)>>>
             <<<Displacing  13/coordinate 2 (-)>>>
             <<<Displacing  13/coordinate 3 (+)>>>
             <<<Displacing  13/coordinate 3 (-)>>>
             <<<Displacing  14/coordinate 1 (+)>>>
             <<<Displacing  14/coordinate 1 (-)>>>
             <<<Displacing  14/coordinate 2 (+)>>>
             <<<Displacing  14/coordinate 2 (-)>>>
             <<<Displacing  14/coordinate 3 (+)>>>
             <<<Displacing  15/coordinate 1 (+)>>>
             <<<Displacing  15/coordinate 1 (-)>>>
             <<<Displacing  14/coordinate 3 (-)>>>
             <<<Displacing  15/coordinate 2 (+)>>>
             <<<Displacing  15/coordinate 3 (+)>>>
             <<<Displacing  15/coordinate 2 (-)>>>
             <<<Displacing  15/coordinate 3 (-)>>>
             <<<Displacing  16/coordinate 1 (+)>>>
             <<<Displacing  16/coordinate 1 (-)>>>
             <<<Displacing  16/coordinate 2 (+)>>>
             <<<Displacing  16/coordinate 2 (-)>>>
             <<<Displacing  16/coordinate 3 (+)>>>
             <<<Displacing  17/coordinate 1 (+)>>>
             <<<Displacing  16/coordinate 3 (-)>>>
             <<<Displacing  17/coordinate 1 (-)>>>
             <<<Displacing  17/coordinate 2 (+)>>>
             <<<Displacing  17/coordinate 2 (-)>>>
             <<<Displacing  17/coordinate 3 (+)>>>
             <<<Displacing  17/coordinate 3 (-)>>>
             <<<Displacing  18/coordinate 1 (+)>>>
             <<<Displacing  18/coordinate 2 (+)>>>
             <<<Displacing  18/coordinate 1 (-)>>>
             <<<Displacing  18/coordinate 2 (-)>>>
             <<<Displacing  18/coordinate 3 (+)>>>
             <<<Displacing  18/coordinate 3 (-)>>>
             <<<Displacing  19/coordinate 1 (+)>>>
             <<<Displacing  19/coordinate 1 (-)>>>
             <<<Displacing  19/coordinate 3 (+)>>>
             <<<Displacing  19/coordinate 3 (-)>>>
             <<<Displacing  19/coordinate 2 (+)>>>
             <<<Displacing  19/coordinate 2 (-)>>>
             <<<Displacing  20/coordinate 1 (+)>>>
             <<<Displacing  20/coordinate 1 (-)>>>
             <<<Displacing  20/coordinate 2 (+)>>>
             <<<Displacing  20/coordinate 2 (-)>>>
             <<<Displacing  20/coordinate 3 (+)>>>
             <<<Displacing  20/coordinate 3 (-)>>>
             <<<Displacing  21/coordinate 1 (+)>>>
             <<<Displacing  21/coordinate 1 (-)>>>
             <<<Displacing  21/coordinate 2 (+)>>>
             <<<Displacing  21/coordinate 2 (-)>>>
             <<<Displacing  21/coordinate 3 (+)>>>
             <<<Displacing  21/coordinate 3 (-)>>>
             <<<Displacing  22/coordinate 1 (+)>>>
             <<<Displacing  22/coordinate 1 (-)>>>
             <<<Displacing  22/coordinate 2 (+)>>>
             <<<Displacing  22/coordinate 2 (-)>>>
             <<<Displacing  22/coordinate 3 (+)>>>
             <<<Displacing  22/coordinate 3 (-)>>>
             <<<Displacing  23/coordinate 1 (+)>>>
             <<<Displacing  23/coordinate 1 (-)>>>
             <<<Displacing  23/coordinate 2 (+)>>>
             <<<Displacing  23/coordinate 2 (-)>>>
             <<<Displacing  23/coordinate 3 (+)>>>
             <<<Displacing  23/coordinate 3 (-)>>>
             <<<Displacing  24/coordinate 1 (+)>>>
             <<<Displacing  24/coordinate 1 (-)>>>
             <<<Displacing  24/coordinate 2 (+)>>>
             <<<Displacing  24/coordinate 2 (-)>>>
             <<<Displacing  24/coordinate 3 (+)>>>
             <<<Displacing  25/coordinate 1 (+)>>>
             <<<Displacing  24/coordinate 3 (-)>>>
             <<<Displacing  25/coordinate 1 (-)>>>
             <<<Displacing  25/coordinate 2 (+)>>>
             <<<Displacing  25/coordinate 3 (+)>>>
             <<<Displacing  25/coordinate 2 (-)>>>
             <<<Displacing  25/coordinate 3 (-)>>>
             <<<Displacing  26/coordinate 1 (+)>>>
             <<<Displacing  26/coordinate 1 (-)>>>
             <<<Displacing  26/coordinate 2 (+)>>>
             <<<Displacing  26/coordinate 2 (-)>>>
             <<<Displacing  26/coordinate 3 (+)>>>
             <<<Displacing  26/coordinate 3 (-)>>>
             <<<Displacing  27/coordinate 1 (+)>>>
             <<<Displacing  27/coordinate 1 (-)>>>
             <<<Displacing  27/coordinate 2 (+)>>>
             <<<Displacing  27/coordinate 2 (-)>>>
             <<<Displacing  27/coordinate 3 (+)>>>
             <<<Displacing  27/coordinate 3 (-)>>>
             <<<Displacing  28/coordinate 1 (+)>>>
             <<<Displacing  28/coordinate 1 (-)>>>
             <<<Displacing  28/coordinate 2 (+)>>>
             <<<Displacing  28/coordinate 3 (+)>>>
             <<<Displacing  28/coordinate 2 (-)>>>
             <<<Displacing  28/coordinate 3 (-)>>>
             <<<Displacing  29/coordinate 1 (+)>>>
             <<<Displacing  29/coordinate 1 (-)>>>
             <<<Displacing  29/coordinate 2 (+)>>>
             <<<Displacing  29/coordinate 2 (-)>>>
             <<<Displacing  29/coordinate 3 (+)>>>
             <<<Displacing  29/coordinate 3 (-)>>>
             <<<Displacing  30/coordinate 1 (+)>>>
             <<<Displacing  30/coordinate 1 (-)>>>
             <<<Displacing  30/coordinate 2 (+)>>>
             <<<Displacing  30/coordinate 2 (-)>>>
             <<<Displacing  30/coordinate 3 (+)>>>
             <<<Displacing  30/coordinate 3 (-)>>>
             <<<Displacing  31/coordinate 1 (+)>>>
             <<<Displacing  31/coordinate 1 (-)>>>
             <<<Displacing  31/coordinate 2 (+)>>>
             <<<Displacing  31/coordinate 2 (-)>>>
             <<<Displacing  31/coordinate 3 (+)>>>
             <<<Displacing  32/coordinate 1 (+)>>>
             <<<Displacing  31/coordinate 3 (-)>>>
             <<<Displacing  32/coordinate 1 (-)>>>
             <<<Displacing  32/coordinate 2 (+)>>>
             <<<Displacing  32/coordinate 2 (-)>>>
             <<<Displacing  32/coordinate 3 (+)>>>
             <<<Displacing  32/coordinate 3 (-)>>>
             <<<Displacing  33/coordinate 1 (+)>>>
             <<<Displacing  33/coordinate 2 (+)>>>
             <<<Displacing  33/coordinate 1 (-)>>>
             <<<Displacing  33/coordinate 2 (-)>>>
             <<<Displacing  33/coordinate 3 (+)>>>
             <<<Displacing  34/coordinate 1 (+)>>>
             <<<Displacing  33/coordinate 3 (-)>>>
             <<<Displacing  34/coordinate 1 (-)>>>
             <<<Displacing  34/coordinate 2 (+)>>>
             <<<Displacing  34/coordinate 3 (+)>>>
             <<<Displacing  34/coordinate 3 (-)>>>
             <<<Displacing  34/coordinate 2 (-)>>>
             <<<Displacing  35/coordinate 1 (+)>>>
             <<<Displacing  35/coordinate 2 (+)>>>
             <<<Displacing  35/coordinate 1 (-)>>>
             <<<Displacing  35/coordinate 2 (-)>>>
             <<<Displacing  36/coordinate 1 (+)>>>
             <<<Displacing  36/coordinate 1 (-)>>>
             <<<Displacing  35/coordinate 3 (+)>>>
             <<<Displacing  35/coordinate 3 (-)>>>
             <<<Displacing  36/coordinate 2 (+)>>>
             <<<Displacing  36/coordinate 3 (+)>>>
             <<<Displacing  36/coordinate 3 (-)>>>
             <<<Displacing  36/coordinate 2 (-)>>>

-----------------------
VIBRATIONAL FREQUENCIES
-----------------------

Scaling factor for frequencies =  1.000000000 (already applied!)

   0:         0.00 cm**-1
   1:         0.00 cm**-1
   2:         0.00 cm**-1
   3:         0.00 cm**-1
   4:         0.00 cm**-1
   5:         0.00 cm**-1
   6:      -279.53 cm**-1 ***imaginary mode***
   7:        14.48 cm**-1
   8:        23.21 cm**-1
   9:        36.18 cm**-1
  10:        44.42 cm**-1
  11:        57.09 cm**-1
  12:        89.09 cm**-1
  13:        94.19 cm**-1
  14:        98.91 cm**-1
  15:       111.47 cm**-1
  16:       139.32 cm**-1
  17:       168.76 cm**-1
  18:       173.72 cm**-1
  19:       220.61 cm**-1
  20:       235.86 cm**-1
  21:       269.06 cm**-1
  22:       280.89 cm**-1
  23:       304.61 cm**-1
  24:       352.69 cm**-1
  25:       367.30 cm**-1
  26:       384.38 cm**-1
  27:       424.90 cm**-1
  28:       430.57 cm**-1
  29:       454.18 cm**-1
  30:       484.26 cm**-1
  31:       502.07 cm**-1
  32:       526.87 cm**-1
  33:       588.04 cm**-1
  34:       597.96 cm**-1
  35:       614.39 cm**-1
  36:       659.44 cm**-1
  37:       670.71 cm**-1
  38:       740.46 cm**-1
  39:       754.57 cm**-1
  40:       777.69 cm**-1
  41:       826.19 cm**-1
  42:       853.72 cm**-1
  43:       860.77 cm**-1
  44:       877.39 cm**-1
  45:       901.78 cm**-1
  46:       911.74 cm**-1
  47:       931.40 cm**-1
  48:       936.23 cm**-1
  49:       943.51 cm**-1
  50:       948.69 cm**-1
  51:       990.15 cm**-1
  52:      1049.58 cm**-1
  53:      1066.71 cm**-1
  54:      1077.55 cm**-1
  55:      1088.07 cm**-1
  56:      1101.54 cm**-1
  57:      1120.96 cm**-1
  58:      1125.85 cm**-1
  59:      1128.25 cm**-1
  60:      1143.52 cm**-1
  61:      1181.34 cm**-1
  62:      1188.82 cm**-1
  63:      1209.88 cm**-1
  64:      1230.68 cm**-1
  65:      1254.32 cm**-1
  66:      1258.55 cm**-1
  67:      1275.39 cm**-1
  68:      1277.22 cm**-1
  69:      1302.37 cm**-1
  70:      1312.40 cm**-1
  71:      1327.05 cm**-1
  72:      1338.81 cm**-1
  73:      1355.54 cm**-1
  74:      1361.75 cm**-1
  75:      1413.80 cm**-1
  76:      1428.56 cm**-1
  77:      1449.89 cm**-1
  78:      1460.98 cm**-1
  79:      1483.20 cm**-1
  80:      1491.02 cm**-1
  81:      1498.82 cm**-1
  82:      1501.10 cm**-1
  83:      1516.01 cm**-1
  84:      1540.84 cm**-1
  85:      1572.23 cm**-1
  86:      1584.16 cm**-1
  87:      1647.14 cm**-1
  88:      2169.68 cm**-1
  89:      2513.86 cm**-1
  90:      2960.78 cm**-1
  91:      2969.82 cm**-1
  92:      2976.11 cm**-1
  93:      2983.93 cm**-1
  94:      2987.64 cm**-1
  95:      2996.53 cm**-1
  96:      3010.80 cm**-1
  97:      3030.00 cm**-1
  98:      3032.16 cm**-1
  99:      3038.35 cm**-1
 100:      3083.15 cm**-1
 101:      3087.07 cm**-1
 102:      3092.79 cm**-1
 103:      3099.67 cm**-1
 104:      3115.63 cm**-1
 105:      3632.21 cm**-1
 106:      3668.07 cm**-1
 107:      3688.08 cm**-1


------------
NORMAL MODES
------------

These modes are the cartesian displacements weighted by the diagonal matrix
M(i,i)=1/sqrt(m[i]) where m[i] is the mass of the displaced atom
Thus, these vectors are normalized but *not* orthogonal

                  0          1          2          3          4          5    
      0       0.000000   0.000000   0.000000   0.000000   0.000000   0.000000
      1       0.000000   0.000000   0.000000   0.000000   0.000000   0.000000
      2       0.000000   0.000000   0.000000   0.000000   0.000000   0.000000
      3       0.000000   0.000000   0.000000   0.000000   0.000000   0.000000
      4       0.000000   0.000000   0.000000   0.000000   0.000000   0.000000
      5       0.000000   0.000000   0.000000   0.000000   0.000000   0.000000
      6       0.000000   0.000000   0.000000   0.000000   0.000000   0.000000
      7       0.000000   0.000000   0.000000   0.000000   0.000000   0.000000
      8       0.000000   0.000000   0.000000   0.000000   0.000000   0.000000
      9       0.000000   0.000000   0.000000   0.000000   0.000000   0.000000
     10       0.000000   0.000000   0.000000   0.000000   0.000000   0.000000
     11       0.000000   0.000000   0.000000   0.000000   0.000000   0.000000
     12       0.000000   0.000000   0.000000   0.000000   0.000000   0.000000
     13       0.000000   0.000000   0.000000   0.000000   0.000000   0.000000
     14       0.000000   0.000000   0.000000   0.000000   0.000000   0.000000
     15       0.000000   0.000000   0.000000   0.000000   0.000000   0.000000
     16       0.000000   0.000000   0.000000   0.000000   0.000000   0.000000
     17       0.000000   0.000000   0.000000   0.000000   0.000000   0.000000
     18       0.000000   0.000000   0.000000   0.000000   0.000000   0.000000
     19       0.000000   0.000000   0.000000   0.000000   0.000000   0.000000
     20       0.000000   0.000000   0.000000   0.000000   0.000000   0.000000
     21       0.000000   0.000000   0.000000   0.000000   0.000000   0.000000
     22       0.000000   0.000000   0.000000   0.000000   0.000000   0.000000
     23       0.000000   0.000000   0.000000   0.000000   0.000000   0.000000
     24       0.000000   0.000000   0.000000   0.000000   0.000000   0.000000
     25       0.000000   0.000000   0.000000   0.000000   0.000000   0.000000
     26       0.000000   0.000000   0.000000   0.000000   0.000000   0.000000
     27       0.000000   0.000000   0.000000   0.000000   0.000000   0.000000
     28       0.000000   0.000000   0.000000   0.000000   0.000000   0.000000
     29       0.000000   0.000000   0.000000   0.000000   0.000000   0.000000
     30       0.000000   0.000000   0.000000   0.000000   0.000000   0.000000
     31       0.000000   0.000000   0.000000   0.000000   0.000000   0.000000
     32       0.000000   0.000000   0.000000   0.000000   0.000000   0.000000
     33       0.000000   0.000000   0.000000   0.000000   0.000000   0.000000
     34       0.000000   0.000000   0.000000   0.000000   0.000000   0.000000
     35       0.000000   0.000000   0.000000   0.000000   0.000000   0.000000
     36       0.000000   0.000000   0.000000   0.000000   0.000000   0.000000
     37       0.000000   0.000000   0.000000   0.000000   0.000000   0.000000
     38       0.000000   0.000000   0.000000   0.000000   0.000000   0.000000
     39       0.000000   0.000000   0.000000   0.000000   0.000000   0.000000
     40       0.000000   0.000000   0.000000   0.000000   0.000000   0.000000
     41       0.000000   0.000000   0.000000   0.000000   0.000000   0.000000
     42       0.000000   0.000000   0.000000   0.000000   0.000000   0.000000
     43       0.000000   0.000000   0.000000   0.000000   0.000000   0.000000
     44       0.000000   0.000000   0.000000   0.000000   0.000000   0.000000
     45       0.000000   0.000000   0.000000   0.000000   0.000000   0.000000
     46       0.000000   0.000000   0.000000   0.000000   0.000000   0.000000
     47       0.000000   0.000000   0.000000   0.000000   0.000000   0.000000
     48       0.000000   0.000000   0.000000   0.000000   0.000000   0.000000
     49       0.000000   0.000000   0.000000   0.000000   0.000000   0.000000
     50       0.000000   0.000000   0.000000   0.000000   0.000000   0.000000
     51       0.000000   0.000000   0.000000   0.000000   0.000000   0.000000
     52       0.000000   0.000000   0.000000   0.000000   0.000000   0.000000
     53       0.000000   0.000000   0.000000   0.000000   0.000000   0.000000
     54       0.000000   0.000000   0.000000   0.000000   0.000000   0.000000
     55       0.000000   0.000000   0.000000   0.000000   0.000000   0.000000
     56       0.000000   0.000000   0.000000   0.000000   0.000000   0.000000
     57       0.000000   0.000000   0.000000   0.000000   0.000000   0.000000
     58       0.000000   0.000000   0.000000   0.000000   0.000000   0.000000
     59       0.000000   0.000000   0.000000   0.000000   0.000000   0.000000
     60       0.000000   0.000000   0.000000   0.000000   0.000000   0.000000
     61       0.000000   0.000000   0.000000   0.000000   0.000000   0.000000
     62       0.000000   0.000000   0.000000   0.000000   0.000000   0.000000
     63       0.000000   0.000000   0.000000   0.000000   0.000000   0.000000
     64       0.000000   0.000000   0.000000   0.000000   0.000000   0.000000
     65       0.000000   0.000000   0.000000   0.000000   0.000000   0.000000
     66       0.000000   0.000000   0.000000   0.000000   0.000000   0.000000
     67       0.000000   0.000000   0.000000   0.000000   0.000000   0.000000
     68       0.000000   0.000000   0.000000   0.000000   0.000000   0.000000
     69       0.000000   0.000000   0.000000   0.000000   0.000000   0.000000
     70       0.000000   0.000000   0.000000   0.000000   0.000000   0.000000
     71       0.000000   0.000000   0.000000   0.000000   0.000000   0.000000
     72       0.000000   0.000000   0.000000   0.000000   0.000000   0.000000
     73       0.000000   0.000000   0.000000   0.000000   0.000000   0.000000
     74       0.000000   0.000000   0.000000   0.000000   0.000000   0.000000
     75       0.000000   0.000000   0.000000   0.000000   0.000000   0.000000
     76       0.000000   0.000000   0.000000   0.000000   0.000000   0.000000
     77       0.000000   0.000000   0.000000   0.000000   0.000000   0.000000
     78       0.000000   0.000000   0.000000   0.000000   0.000000   0.000000
     79       0.000000   0.000000   0.000000   0.000000   0.000000   0.000000
     80       0.000000   0.000000   0.000000   0.000000   0.000000   0.000000
     81       0.000000   0.000000   0.000000   0.000000   0.000000   0.000000
     82       0.000000   0.000000   0.000000   0.000000   0.000000   0.000000
     83       0.000000   0.000000   0.000000   0.000000   0.000000   0.000000
     84       0.000000   0.000000   0.000000   0.000000   0.000000   0.000000
     85       0.000000   0.000000   0.000000   0.000000   0.000000   0.000000
     86       0.000000   0.000000   0.000000   0.000000   0.000000   0.000000
     87       0.000000   0.000000   0.000000   0.000000   0.000000   0.000000
     88       0.000000   0.000000   0.000000   0.000000   0.000000   0.000000
     89       0.000000   0.000000   0.000000   0.000000   0.000000   0.000000
     90       0.000000   0.000000   0.000000   0.000000   0.000000   0.000000
     91       0.000000   0.000000   0.000000   0.000000   0.000000   0.000000
     92       0.000000   0.000000   0.000000   0.000000   0.000000   0.000000
     93       0.000000   0.000000   0.000000   0.000000   0.000000   0.000000
     94       0.000000   0.000000   0.000000   0.000000   0.000000   0.000000
     95       0.000000   0.000000   0.000000   0.000000   0.000000   0.000000
     96       0.000000   0.000000   0.000000   0.000000   0.000000   0.000000
     97       0.000000   0.000000   0.000000   0.000000   0.000000   0.000000
     98       0.000000   0.000000   0.000000   0.000000   0.000000   0.000000
     99       0.000000   0.000000   0.000000   0.000000   0.000000   0.000000
    100       0.000000   0.000000   0.000000   0.000000   0.000000   0.000000
    101       0.000000   0.000000   0.000000   0.000000   0.000000   0.000000
    102       0.000000   0.000000   0.000000   0.000000   0.000000   0.000000
    103       0.000000   0.000000   0.000000   0.000000   0.000000   0.000000
    104       0.000000   0.000000   0.000000   0.000000   0.000000   0.000000
    105       0.000000   0.000000   0.000000   0.000000   0.000000   0.000000
    106       0.000000   0.000000   0.000000   0.000000   0.000000   0.000000
    107       0.000000   0.000000   0.000000   0.000000   0.000000   0.000000
                  6          7          8          9         10         11    
      0      -0.024841   0.046020   0.022963  -0.032229   0.017261   0.012301
      1      -0.026218  -0.000359  -0.001648  -0.000920   0.031159  -0.000991
      2       0.021235   0.008740   0.012160  -0.023848  -0.052377  -0.018160
      3      -0.006757   0.009000   0.086258  -0.030651  -0.014592  -0.016851
      4      -0.008182  -0.051269   0.205918   0.035047   0.011276   0.003215
      5       0.022253   0.012289  -0.048650  -0.040024  -0.060367  -0.035302
      6       0.004850  -0.010075   0.111722  -0.023894  -0.056332  -0.045999
      7       0.007379  -0.010282   0.216410   0.101570  -0.061742   0.011109
      8       0.008968   0.015576  -0.068404  -0.060117  -0.015901  -0.018089
      9       0.004859   0.007121   0.075009  -0.018477  -0.066882  -0.045841
     10       0.005111   0.082136   0.018981   0.131661  -0.116327   0.013527
     11      -0.006197   0.014972  -0.025759  -0.064112   0.037178   0.017215
     12      -0.006690   0.044377   0.012120  -0.020828  -0.034244  -0.017087
     13       0.004651   0.133004  -0.182864   0.088655  -0.087902   0.009215
     14      -0.013143   0.011314   0.034982  -0.045177   0.041641   0.034959
     15      -0.019490   0.063669  -0.012557  -0.027530   0.007500   0.012050
     16      -0.010275   0.091055  -0.185827   0.022757  -0.012893   0.002814
     17      -0.001979   0.008524   0.052036  -0.024871  -0.003772   0.016962
     18      -0.081162   0.066658   0.007732  -0.032377   0.048970   0.036999
     19      -0.101578  -0.040446  -0.013454  -0.042976   0.062092  -0.005387
     20       0.083610   0.005838   0.027765  -0.012786  -0.080497  -0.032850
     21      -0.010377  -0.004564   0.117816  -0.033872  -0.006887  -0.016839
     22      -0.029932  -0.125762   0.377473   0.014459   0.054113   0.003218
     23       0.027877   0.013285  -0.085941  -0.037461  -0.101893  -0.061358
     24      -0.030615   0.091807  -0.058150  -0.028200   0.032544   0.035065
     25      -0.016496   0.129489  -0.337514  -0.008989   0.005470  -0.000122
     26      -0.004875   0.005977   0.097655  -0.010738   0.001354   0.030834
     27       0.013305  -0.008095   0.094583  -0.012301  -0.100284  -0.068094
     28       0.003399   0.113825   0.026110   0.187000  -0.178261   0.019078
     29      -0.011287   0.017418  -0.040284  -0.081319   0.073910   0.030527
     30      -0.028025   0.057793   0.006883  -0.030525   0.045742   0.037164
     31       0.068757  -0.098629  -0.027016  -0.042318   0.031653  -0.015468
     32       0.023283   0.000896   0.021729  -0.026307  -0.092083  -0.041823
     33       0.001686   0.082811   0.024010  -0.020992   0.044391   0.026070
     34       0.018999  -0.119119  -0.021041  -0.063459  -0.030156  -0.017014
     35       0.022897  -0.007251   0.008477  -0.024933  -0.067126  -0.033170
     36      -0.058060   0.024997  -0.020037  -0.026684   0.016713   0.025260
     37       0.300546  -0.113800  -0.056352  -0.026349   0.018798  -0.030624
     38      -0.056333  -0.007254   0.025016  -0.044450  -0.099710  -0.036538
     39       0.002948  -0.023710   0.003030  -0.044563   0.019942   0.073712
     40       0.006518   0.036694  -0.003261  -0.028808   0.048857  -0.073121
     41       0.011491  -0.010922  -0.018281  -0.024246   0.018492  -0.004806
     42       0.012908   0.066461   0.030449  -0.020512   0.027565   0.028248
     43       0.017205  -0.231125  -0.028697  -0.095980  -0.109782   0.029413
     44       0.030998   0.074500   0.021734   0.003822  -0.014321  -0.070648
     45      -0.014931   0.199254   0.046486   0.007205   0.073649  -0.031745
     46       0.008462  -0.128407  -0.016406  -0.072318  -0.065815  -0.015835
     47       0.017902  -0.099502   0.001266  -0.058247  -0.145390   0.006170
     48       0.001474   0.008958   0.001665  -0.058382   0.014223   0.176372
     49       0.004141   0.148842   0.003620   0.008227   0.159907  -0.170570
     50       0.012727  -0.079918  -0.025641  -0.069527  -0.084284   0.174813
     51       0.006415  -0.145218  -0.022847  -0.072245  -0.005107   0.135239
     52       0.007749   0.035471  -0.013206  -0.009054   0.126205  -0.164619
     53       0.012151   0.064460  -0.018153   0.025707   0.161245  -0.193809
     54       0.116566  -0.011153  -0.019850  -0.023304   0.033656   0.040048
     55       0.030225  -0.013754   0.044984  -0.055546   0.123044   0.019532
     56      -0.100384  -0.000719   0.049387  -0.034462   0.024230   0.002816
     57      -0.088499   0.097987   0.011554  -0.030662   0.070953   0.052269
     58      -0.118195  -0.021161  -0.005998  -0.063664   0.079783   0.005123
     59       0.084789   0.011742   0.023902   0.005438  -0.080393  -0.030552
     60       0.122868  -0.024360  -0.033726   0.045559   0.024248   0.034118
     61       0.082538   0.021159   0.075415  -0.156593   0.117284   0.021956
     62      -0.173968   0.002015   0.059110  -0.142229   0.062173   0.019484
     63      -0.104660  -0.083575  -0.108411   0.266981  -0.009201   0.012233
     64       0.061983  -0.077104  -0.026932  -0.002631   0.072252  -0.019685
     65       0.056147  -0.004451   0.061318   0.370337   0.060578   0.033134
     66       0.214027  -0.041599  -0.050646   0.095753   0.018063   0.028419
     67      -0.164317  -0.039515   0.008929  -0.029943   0.100446   0.003300
     68      -0.150818  -0.002063   0.054732   0.136103   0.039244   0.015275
     69      -0.216928  -0.098876  -0.094321   0.353455   0.019572   0.034149
     70       0.128090  -0.093144  -0.017978   0.238967   0.107925   0.007939
     71       0.154917  -0.003867   0.057851   0.443541   0.062314   0.034659
     72       0.051269  -0.029174  -0.123114   0.011695  -0.043788  -0.024841
     73      -0.091554  -0.149463  -0.077783  -0.006651  -0.021657  -0.047684
     74      -0.076464  -0.003557  -0.020107  -0.029197  -0.104495  -0.056214
     75       0.408210  -0.057037  -0.112472   0.136425  -0.022031  -0.008428
     76       0.284437  -0.116226  -0.053194  -0.007081   0.026315  -0.035523
     77      -0.252722  -0.004117   0.017455   0.162109  -0.029877  -0.014412
     78       0.292432  -0.033722  -0.242477  -0.121165  -0.115568  -0.080971
     79      -0.374629  -0.154935  -0.022553  -0.096004  -0.056304  -0.044437
     80       0.014569  -0.001517  -0.037475   0.004959  -0.090871  -0.056276
     81       0.007873  -0.014174   0.017754  -0.011931   0.037485  -0.109804
     82       0.005000   0.047720   0.021026  -0.072867  -0.127113   0.138013
     83       0.007145  -0.021490  -0.037391  -0.031414   0.070805   0.047429
     84       0.007652   0.125739   0.045622   0.026545   0.106119  -0.241385
     85       0.005084   0.050282   0.031725  -0.093089  -0.208590   0.234615
     86       0.007342  -0.109287  -0.037881  -0.090331  -0.109977   0.294943
     87       0.011786  -0.051007   0.019676  -0.000141   0.026224  -0.202611
     88       0.006259  -0.085061   0.013496  -0.122429  -0.295139   0.309911
     89       0.009430   0.056398  -0.029334   0.020879   0.201684  -0.180856
     90      -0.005657   0.058217  -0.017021  -0.016765  -0.041933  -0.016806
     91       0.009759   0.204621  -0.332341   0.109449  -0.126425   0.011527
     92      -0.023308   0.010933   0.067055  -0.046762   0.080733   0.062137
     93       0.013733  -0.038693   0.161175  -0.022502  -0.081150  -0.068795
     94       0.011794  -0.050618   0.380800   0.132533  -0.078629   0.015262
     95       0.011985   0.018544  -0.117190  -0.073618  -0.021690  -0.032464
     96       0.006585  -0.143907  -0.007458  -0.045941  -0.025484   0.002449
     97       0.002878   0.233615   0.042071  -0.024290   0.025506  -0.005767
     98       0.001504  -0.019538  -0.067051  -0.030949   0.196109   0.080098
     99       0.009789  -0.131632   0.003291  -0.017307  -0.001597  -0.160271
    100       0.004916   0.236622   0.061067  -0.061891  -0.130606   0.186926
    101      -0.001367  -0.028872  -0.080686  -0.037896   0.231895   0.126594
    102       0.004963  -0.286593  -0.035803  -0.084734  -0.094983   0.134032
    103       0.002128   0.234669   0.031433  -0.001758   0.118582  -0.120147
    104       0.001356   0.074334  -0.067691   0.034124   0.406263  -0.207967
    105       0.004620  -0.111245  -0.008911  -0.061707  -0.027138   0.118774
    106       0.001766   0.370640   0.050022   0.027406   0.204090  -0.193157
    107       0.000778  -0.102262  -0.075016  -0.088691   0.046516   0.345362
                 12         13         14         15         16         17    
      0       0.021454   0.042178  -0.002236   0.027674   0.003661  -0.075699
      1       0.032343   0.121632  -0.005348  -0.022882  -0.175357   0.069441
      2       0.035547   0.003176  -0.021174  -0.010936   0.045058   0.064237
      3       0.052185   0.033624  -0.028150   0.003602  -0.016249   0.001001
      4      -0.007024   0.087803   0.045352  -0.004195  -0.150634   0.065126
      5       0.068736   0.015570  -0.055502  -0.031569   0.025425   0.104302
      6       0.080984   0.003033  -0.065661  -0.023251  -0.011703   0.076587
      7      -0.070552  -0.048951   0.064732   0.020244  -0.002592   0.012209
      8       0.065862   0.067485  -0.037205  -0.020331  -0.013556   0.072636
      9       0.079636  -0.014639  -0.075991  -0.024332   0.012007   0.069192
     10      -0.080426  -0.143392   0.011437   0.016399   0.119536  -0.029918
     11       0.024649   0.107150   0.026438   0.016727  -0.033017   0.000248
     12       0.054908   0.003749  -0.052631  -0.001230   0.017622  -0.005318
     13      -0.013018  -0.058036  -0.053122  -0.010651   0.026604  -0.014149
     14      -0.020331   0.077352   0.069423   0.042025   0.013803  -0.046925
     15       0.024776   0.033017  -0.012552   0.026366   0.011689  -0.079952
     16       0.041599   0.077930  -0.052327  -0.026288  -0.130975   0.037167
     17      -0.013063   0.024732   0.041981   0.026617   0.053694  -0.006679
     18      -0.006777   0.034560   0.020465   0.041760   0.015459  -0.059246
     19       0.016181   0.093416  -0.028250  -0.041407  -0.131251   0.061857
     20       0.053731   0.013300  -0.023523  -0.014743   0.032853   0.046041
     21       0.053601   0.044937  -0.022317   0.003582  -0.029774   0.005050
     22       0.005947   0.150855   0.069817  -0.007191  -0.218956   0.087017
     23       0.094160  -0.010341  -0.093992  -0.055723   0.029375   0.159551
     24       0.003119   0.046057   0.010848   0.047808   0.019211  -0.137022
     25       0.080456   0.122039  -0.094782  -0.043602  -0.181469   0.042378
     26      -0.043109   0.011264   0.074571   0.046269   0.081454  -0.040529
     27       0.098286  -0.042409  -0.103047  -0.043776   0.023992   0.119013
     28      -0.134875  -0.273809   0.017301   0.032581   0.272809  -0.074449
     29       0.025356   0.156478   0.042860   0.025657  -0.077366  -0.021934
     30      -0.029824   0.020666   0.020000   0.034958   0.043626  -0.048025
     31      -0.080356   0.036849  -0.041083  -0.073599  -0.003233   0.035695
     32       0.085423   0.044677  -0.030491  -0.010093  -0.000109  -0.070885
     33       0.010245   0.034027   0.022454   0.034409   0.030806   0.109042
     34      -0.146556   0.016417  -0.062929  -0.083166   0.154512  -0.056137
     35       0.080356   0.045897  -0.022658  -0.006026  -0.044504  -0.147411
     36      -0.039397  -0.006761   0.051159   0.043927   0.075346  -0.107372
     37       0.011648   0.030599  -0.055543  -0.059844  -0.023434   0.073859
     38      -0.016252   0.030080   0.003872  -0.019701   0.020765  -0.133624
[...]
  78:      1460.81    0.000000  (  0.000000   0.000000   0.000000)
  79:      1484.14    0.000000  (  0.000000   0.000000   0.000000)
  80:      1492.49    0.000000  (  0.000000   0.000000   0.000000)
  81:      1500.16    0.000000  (  0.000000   0.000000   0.000000)
  82:      1502.05    0.000000  (  0.000000   0.000000   0.000000)
  83:      1515.99    0.000000  (  0.000000   0.000000   0.000000)
  84:      1541.40    0.000000  (  0.000000   0.000000   0.000000)
  85:      1572.45    0.000000  (  0.000000   0.000000   0.000000)
  86:      1584.06    0.000000  (  0.000000   0.000000   0.000000)
  87:      1646.62    0.000000  (  0.000000   0.000000   0.000000)
  88:      2173.84    0.000000  (  0.000000   0.000000   0.000000)
  89:      2489.45    0.000000  (  0.000000   0.000000   0.000000)
  90:      2951.88    0.000000  (  0.000000   0.000000   0.000000)
  91:      2969.31    0.000000  (  0.000000   0.000000   0.000000)
  92:      2973.38    0.000000  (  0.000000   0.000000   0.000000)
  93:      2983.47    0.000000  (  0.000000   0.000000   0.000000)
  94:      2986.39    0.000000  (  0.000000   0.000000   0.000000)
  95:      2996.16    0.000000  (  0.000000   0.000000   0.000000)
  96:      3010.48    0.000000  (  0.000000   0.000000   0.000000)
  97:      3029.39    0.000000  (  0.000000   0.000000   0.000000)
  98:      3031.81    0.000000  (  0.000000   0.000000   0.000000)
  99:      3038.03    0.000000  (  0.000000   0.000000   0.000000)
 100:      3083.27    0.000000  (  0.000000   0.000000   0.000000)
 101:      3086.86    0.000000  (  0.000000   0.000000   0.000000)
 102:      3092.70    0.000000  (  0.000000   0.000000   0.000000)
 103:      3099.62    0.000000  (  0.000000   0.000000   0.000000)
 104:      3115.00    0.000000  (  0.000000   0.000000   0.000000)
 105:      3630.96    0.000000  (  0.000000   0.000000   0.000000)
 106:      3668.97    0.000000  (  0.000000   0.000000   0.000000)
 107:      3687.96    0.000000  (  0.000000   0.000000   0.000000)

The first frequency considered to be a vibration is 7
The total number of vibrations considered is 101


--------------------------
THERMOCHEMISTRY AT 298.15K
--------------------------

Temperature         ... 298.15 K
Pressure            ... 1.00 atm
Total Mass          ... 215.29 AMU

Throughout the following assumptions are being made:
  (1) The electronic state is orbitally nondegenerate
  (2) There are no thermally accessible electronically excited states
  (3) Hindered rotations indicated by low frequency modes are not
      treated as such but are treated as vibrations and this may
      cause some error
  (4) All equations used are the standard statistical mechanics
      equations for an ideal gas
  (5) All vibrations are strictly harmonic

freq.      12.55  E(vib)   ...       0.57 
freq.      23.01  E(vib)   ...       0.56 
freq.      36.97  E(vib)   ...       0.54 
freq.      49.76  E(vib)   ...       0.52 
freq.      67.42  E(vib)   ...       0.50 
freq.      89.57  E(vib)   ...       0.47 
freq.      93.64  E(vib)   ...       0.47 
freq.      97.98  E(vib)   ...       0.46 
freq.     107.39  E(vib)   ...       0.45 
freq.     139.17  E(vib)   ...       0.42 
freq.     169.89  E(vib)   ...       0.38 
freq.     174.15  E(vib)   ...       0.38 
freq.     227.20  E(vib)   ...       0.33 
freq.     242.84  E(vib)   ...       0.31 
freq.     271.13  E(vib)   ...       0.29 
freq.     278.38  E(vib)   ...       0.28 
freq.     301.69  E(vib)   ...       0.26 
freq.     353.05  E(vib)   ...       0.22 
freq.     366.10  E(vib)   ...       0.22 
freq.     386.93  E(vib)   ...       0.20 
freq.     423.55  E(vib)   ...       0.18 
freq.     432.34  E(vib)   ...       0.18 
freq.     452.64  E(vib)   ...       0.16 
freq.     486.02  E(vib)   ...       0.15 
freq.     502.61  E(vib)   ...       0.14 
freq.     529.57  E(vib)   ...       0.13 
freq.     588.05  E(vib)   ...       0.10 
freq.     597.08  E(vib)   ...       0.10 
freq.     613.53  E(vib)   ...       0.10 
freq.     659.47  E(vib)   ...       0.08 
freq.     671.01  E(vib)   ...       0.08 
freq.     741.39  E(vib)   ...       0.06 
freq.     753.78  E(vib)   ...       0.06 
freq.     780.32  E(vib)   ...       0.05 
freq.     826.48  E(vib)   ...       0.04 
freq.     851.97  E(vib)   ...       0.04 
freq.     859.94  E(vib)   ...       0.04 
freq.     878.09  E(vib)   ...       0.04 
freq.     893.62  E(vib)   ...       0.03 
freq.     910.47  E(vib)   ...       0.03 
freq.     929.48  E(vib)   ...       0.03 
freq.     935.48  E(vib)   ...       0.03 
freq.     943.99  E(vib)   ...       0.03 
freq.     948.68  E(vib)   ...       0.03 
freq.     990.12  E(vib)   ...       0.02 
freq.    1052.25  E(vib)   ...       0.02 
freq.    1069.22  E(vib)   ...       0.02 
freq.    1077.66  E(vib)   ...       0.02 
freq.    1088.47  E(vib)   ...       0.02 
freq.    1102.65  E(vib)   ...       0.02 
freq.    1120.92  E(vib)   ...       0.01 
freq.    1124.06  E(vib)   ...       0.01 
freq.    1128.49  E(vib)   ...       0.01 
freq.    1142.47  E(vib)   ...       0.01 
freq.    1181.76  E(vib)   ...       0.01 
freq.    1189.09  E(vib)   ...       0.01 
freq.    1210.01  E(vib)   ...       0.01 
freq.    1230.61  E(vib)   ...       0.01 
freq.    1253.29  E(vib)   ...       0.01 
freq.    1258.39  E(vib)   ...       0.01 
freq.    1275.19  E(vib)   ...       0.01 
freq.    1277.18  E(vib)   ...       0.01 
freq.    1303.56  E(vib)   ...       0.01 
freq.    1311.81  E(vib)   ...       0.01 
freq.    1327.09  E(vib)   ...       0.01 
freq.    1338.43  E(vib)   ...       0.01 
freq.    1357.17  E(vib)   ...       0.01 
freq.    1363.41  E(vib)   ...       0.01 
freq.    1414.22  E(vib)   ...       0.00 
freq.    1428.74  E(vib)   ...       0.00 
freq.    1449.33  E(vib)   ...       0.00 
freq.    1460.81  E(vib)   ...       0.00 
freq.    1484.14  E(vib)   ...       0.00 
freq.    1492.49  E(vib)   ...       0.00 
freq.    1500.16  E(vib)   ...       0.00 
freq.    1502.05  E(vib)   ...       0.00 
freq.    1515.99  E(vib)   ...       0.00 
freq.    1541.40  E(vib)   ...       0.00 
freq.    1572.45  E(vib)   ...       0.00 
freq.    1584.06  E(vib)   ...       0.00 
freq.    1646.62  E(vib)   ...       0.00 
freq.    2173.84  E(vib)   ...       0.00 
freq.    2489.45  E(vib)   ...       0.00 
freq.    2951.88  E(vib)   ...       0.00 
freq.    2969.31  E(vib)   ...       0.00 
freq.    2973.38  E(vib)   ...       0.00 
freq.    2983.47  E(vib)   ...       0.00 
freq.    2986.39  E(vib)   ...       0.00 
freq.    2996.16  E(vib)   ...       0.00 
freq.    3010.48  E(vib)   ...       0.00 
freq.    3029.39  E(vib)   ...       0.00 
freq.    3031.81  E(vib)   ...       0.00 
freq.    3038.03  E(vib)   ...       0.00 
freq.    3083.27  E(vib)   ...       0.00 
freq.    3086.86  E(vib)   ...       0.00 
freq.    3092.70  E(vib)   ...       0.00 
freq.    3099.62  E(vib)   ...       0.00 
freq.    3115.00  E(vib)   ...       0.00 
freq.    3630.96  E(vib)   ...       0.00 
freq.    3668.97  E(vib)   ...       0.00 
freq.    3687.96  E(vib)   ...       0.00 

------------
INNER ENERGY
------------

The inner energy is: U= E(el) + E(ZPE) + E(vib) + E(rot) + E(trans)
    E(el)   - is the total energy from the electronic structure calculation
              = E(kin-el) + E(nuc-el) + E(el-el) + E(nuc-nuc)
    E(ZPE)  - the the zero temperature vibrational energy from the frequency calculation
    E(vib)  - the the finite temperature correction to E(ZPE) due to population
              of excited vibrational states
    E(rot)  - is the rotational thermal energy
    E(trans)- is the translational thermal energy

Summary of contributions to the inner energy U:
Electronic energy                ...    -49.34421009 Eh
Zero point energy                ...      0.29653338 Eh     186.08 kcal/mol
Thermal vibrational correction   ...      0.01605731 Eh      10.08 kcal/mol
Thermal rotational correction    ...      0.00141627 Eh       0.89 kcal/mol
Thermal translational correction ...      0.00141627 Eh       0.89 kcal/mol
-----------------------------------------------------------------------
Total thermal energy                    -49.02878686 Eh


Summary of corrections to the electronic energy:
(perhaps to be used in another calculation)
Total thermal correction                  0.01888985 Eh      11.85 kcal/mol
Non-thermal (ZPE) correction              0.29653338 Eh     186.08 kcal/mol
-----------------------------------------------------------------------
Total correction                          0.31542324 Eh     197.93 kcal/mol


--------
ENTHALPY
--------

The enthalpy is H = U + kB*T
                kB is Boltzmann's constant
Total free energy                 ...    -49.02878686 Eh 
Thermal Enthalpy correction       ...      0.00094421 Eh       0.59 kcal/mol
-----------------------------------------------------------------------
Total Enthalpy                    ...    -49.02784265 Eh


Note: Only C1 symmetry has been detected, increase convergence thresholds 
      if your molecule has a higher symmetry. Symmetry factor of 1.0 is   
      used for the rotational entropy correction. 
 

Note: Rotational entropy computed according to Herzberg 
Infrared and Raman Spectra, Chapter V,1, Van Nostrand Reinhold, 1945 
Point Group:  C1, Symmetry Number:   1  
Rotational constants in cm-1:     0.027595     0.008590     0.008088 

Vibrational entropy computed according to the QRRHO of S. Grimme
Chem.Eur.J. 2012 18 9955


-------
ENTROPY
-------

The entropy contributions are T*S = T*(S(el)+S(vib)+S(rot)+S(trans))
     S(el)   - electronic entropy
     S(vib)  - vibrational entropy
     S(rot)  - rotational entropy
     S(trans)- translational entropy
The entropies will be listed as mutliplied by the temperature to get
units of energy

Electronic entropy                ...      0.00000000 Eh      0.00 kcal/mol
Vibrational entropy               ...      0.02939133 Eh     18.44 kcal/mol
Rotational entropy                ...      0.01572573 Eh      9.87 kcal/mol
Translational entropy             ...      0.01995728 Eh     12.52 kcal/mol
-----------------------------------------------------------------------
Final entropy term                ...      0.06507434 Eh     40.83 kcal/mol

In case the symmetry of your molecule has not been determined correctly
or in case you have a reason to use a different symmetry number we print 
out the resulting rotational entropy values for sn=1,12 :
 --------------------------------------------------------
|  sn= 1 | S(rot)=       0.01572573 Eh      9.87 kcal/mol|
|  sn= 2 | S(rot)=       0.01507127 Eh      9.46 kcal/mol|
|  sn= 3 | S(rot)=       0.01468844 Eh      9.22 kcal/mol|
|  sn= 4 | S(rot)=       0.01441681 Eh      9.05 kcal/mol|
|  sn= 5 | S(rot)=       0.01420613 Eh      8.91 kcal/mol|
|  sn= 6 | S(rot)=       0.01403398 Eh      8.81 kcal/mol|
|  sn= 7 | S(rot)=       0.01388844 Eh      8.72 kcal/mol|
|  sn= 8 | S(rot)=       0.01376236 Eh      8.64 kcal/mol|
|  sn= 9 | S(rot)=       0.01365115 Eh      8.57 kcal/mol|
|  sn=10 | S(rot)=       0.01355167 Eh      8.50 kcal/mol|
|  sn=11 | S(rot)=       0.01346168 Eh      8.45 kcal/mol|
|  sn=12 | S(rot)=       0.01337953 Eh      8.40 kcal/mol|
 --------------------------------------------------------


-------------------
GIBBS FREE ENERGY
-------------------

The Gibbs free energy is G = H - T*S

Total enthalpy                    ...    -49.02784265 Eh 
Total entropy correction          ...     -0.06507434 Eh    -40.83 kcal/mol
-----------------------------------------------------------------------
Final Gibbs free energy         ...    -49.09291698 Eh

For completeness - the Gibbs free energy minus the electronic energy
G-E(el)                           ...      0.25129311 Eh    157.69 kcal/mol


Total Time for Numerical Frequencies  :       391.686 sec



------------------------------------------------------------------------------- 
                    Intrinsic Reaction Coordinate Calculation                  
------------------------------------------------------------------------------- 

System:
Nr. of atoms                        .... 36
Algorithm: SD (steepest descent step) plus correction
Settings:
Max. no of cycles        MaxIter    .... 20
Direction                           .... Forward and backward
Initial displacement Hessian type   .... Read
Hessian Filename                    .... optts.hess
Following Hessian mode              .... 0
Initial displacement type           .... Energy
  Initial displacement energy change.... 2.000 mEh
Coordinate system following type    .... Cartesian
Length of steepest descent step     .... 0.150 bohr
Do parabolic fit 
  if SD step is uphill              .... YES
Do Correction to SD step            .... YES
Scaling for length of correction
  compared to SD step               .... 0.333
Do parabolic fit to SD correction   .... YES
Only interpolate for parabolic fit  .... YES
Do update to length of
  SD step and correction            .... YES
Convergence Tolerances:
  Max. Gradient            TolMAXG  ....  2.0000e-03 Eh/bohr
  RMS Gradient             TolRMSG  ....  5.0000e-04 Eh/bohr
Storing full IRC trajectory in      .... optts_IRC_Full_trj.xyz
Storing forward trajectory in       .... optts_IRC_F_trj.xyz
Storing backward trajectory in      .... optts_IRC_B_trj.xyz


 ...good, the file optts.hess exists
Reading the hessian file           ...... done
Determining length of initial displacement:
  Requested energy change (quadratic behavior): 2.000 mEh
  Resulting scaling factor for initial displacement along normalized TS mode: 0.7495

         *************************************************************
         *                          FORWARD IRC                      *
         *************************************************************

Iteration    E(Eh)      dE(kcal/mol)  max(|G|)   RMS(G) 
Convergence thresholds                0.002000  0.000500            
    0       -49.344397   -0.117395    0.021066  0.004750
    1       -49.346559   -1.473810    0.006061  0.001557
    2       -49.346977   -1.736035    0.005514  0.001356
    3       -49.347330   -1.957833    0.005559  0.001204
    4       -49.347772   -2.235376    0.006068  0.001207
    5       -49.348278   -2.552748    0.006776  0.001415
    6       -49.348792   -2.875330    0.007666  0.001430
    7       -49.349400   -3.256687    0.008623  0.001696
    8       -49.350021   -3.646311    0.009688  0.001717
    9       -49.350749   -4.103381    0.010737  0.002007
   10       -49.351491   -4.568598    0.011828  0.002024
   11       -49.352336   -5.099334    0.012770  0.002286
   12       -49.353190   -5.634937    0.013640  0.002287
   13       -49.354116   -6.216090    0.014172  0.002438
   14       -49.355041   -6.796705    0.014464  0.002416
   15       -49.355981   -7.386466    0.014277  0.002406
   16       -49.356905   -7.966209    0.013525  0.002337
   17       -49.357790   -8.521390    0.012320  0.002213
   18       -49.358616   -9.039657    0.010619  0.002051
   19       -49.359370   -9.513147    0.009580  0.001886

         *************************************************************
         *  MAXIMUM NUMBER OF ITERATIONS REACHED - STOPPING IRC RUN  *
         *************************************************************


         *************************************************************
         *                          BACKWARD IRC                     *
         *************************************************************

Iteration    E(Eh)      dE(kcal/mol)  max(|G|)   RMS(G) 
Convergence thresholds                0.002000  0.000500            
    0       -49.339318    3.069824    0.048495  0.009762
    1       -49.345379   -0.733293    0.009025  0.001865
    2       -49.345952   -1.093010    0.006800  0.001404
    3       -49.346872   -1.670083    0.006167  0.001397
    4       -49.348041   -2.403728    0.007615  0.001669
    5       -49.349473   -3.302345    0.009124  0.001999
    6       -49.351141   -4.349415    0.010633  0.002281
    7       -49.353005   -5.519168    0.011944  0.002494
    8       -49.354987   -6.762459    0.012955  0.002602
    9       -49.357021   -8.039118    0.013467  0.002631
   10       -49.359052   -9.313351    0.013513  0.002600
   11       -49.361049   -10.566790    0.012774  0.002553
   12       -49.363016   -11.801033    0.012404  0.002532
   13       -49.365023   -13.060387    0.012509  0.002632
   14       -49.367007   -14.305509    0.012280  0.002580
   15       -49.368996   -15.553599    0.012542  0.002514
   16       -49.370897   -16.745950    0.012350  0.002355
   17       -49.372629   -17.833006    0.012080  0.002119
   18       -49.374117   -18.766745    0.010829  0.001877
   19       -49.375365   -19.549951    0.009809  0.001579

         *************************************************************
         *  MAXIMUM NUMBER OF ITERATIONS REACHED - STOPPING IRC RUN  *
         *************************************************************


---------------------------------------------------------------
                       IRC PATH SUMMARY              
---------------------------------------------------------------
All gradients are in Eh/Bohr.

Step        E(Eh)      dE(kcal/mol)  max(|G|)   RMS(G) 
   1       -49.375365   -19.549951    0.009809  0.001579
   2       -49.374117   -18.766745    0.010829  0.001877
   3       -49.372629   -17.833006    0.012080  0.002119
   4       -49.370897   -16.745950    0.012350  0.002355
   5       -49.368996   -15.553599    0.012542  0.002514
   6       -49.367007   -14.305509    0.012280  0.002580
   7       -49.365023   -13.060387    0.012509  0.002632
   8       -49.363016   -11.801033    0.012404  0.002532
   9       -49.361049   -10.566790    0.012774  0.002553
  10       -49.359052   -9.313351    0.013513  0.002600
  11       -49.357021   -8.039118    0.013467  0.002631
  12       -49.354987   -6.762459    0.012955  0.002602
  13       -49.353005   -5.519168    0.011944  0.002494
  14       -49.351141   -4.349415    0.010633  0.002281
  15       -49.349473   -3.302345    0.009124  0.001999
  16       -49.348041   -2.403728    0.007615  0.001669
  17       -49.346872   -1.670083    0.006167  0.001397
  18       -49.345952   -1.093010    0.006800  0.001404
  19       -49.345379   -0.733293    0.009025  0.001865
  20       -49.339318    3.069824    0.048495  0.009762
  21       -49.344210    0.000000    0.000120  0.000019 <= TS
  22       -49.344397   -0.117395    0.021066  0.004750
  23       -49.346559   -1.473810    0.006061  0.001557
  24       -49.346977   -1.736035    0.005514  0.001356
  25       -49.347330   -1.957833    0.005559  0.001204
  26       -49.347772   -2.235376    0.006068  0.001207
  27       -49.348278   -2.552748    0.006776  0.001415
  28       -49.348792   -2.875330    0.007666  0.001430
  29       -49.349400   -3.256687    0.008623  0.001696
  30       -49.350021   -3.646311    0.009688  0.001717
  31       -49.350749   -4.103381    0.010737  0.002007
  32       -49.351491   -4.568598    0.011828  0.002024
  33       -49.352336   -5.099334    0.012770  0.002286
  34       -49.353190   -5.634937    0.013640  0.002287
  35       -49.354116   -6.216090    0.014172  0.002438
  36       -49.355041   -6.796705    0.014464  0.002416
  37       -49.355981   -7.386466    0.014277  0.002406
  38       -49.356905   -7.966209    0.013525  0.002337
  39       -49.357790   -8.521390    0.012320  0.002213
  40       -49.358616   -9.039657    0.010619  0.002051
  41       -49.359370   -9.513147    0.009580  0.001886

Timings for individual modules:

Sum of individual times         ...      233.554 sec (=   3.893 min)
Geometry relaxation             ...        2.818 sec (=   0.047 min)   1.2 %
XTB module                      ...      230.736 sec (=   3.846 min)  98.8 %
                             ****ORCA TERMINATED NORMALLY****
TOTAL RUN TIME: 0 days 0 hours 17 minutes 7 seconds 395 msec
