SLURM_JOB_ID=87

                                 *****************
                                 * O   R   C   A *
                                 *****************

           --- An Ab Initio, DFT and Semiempirical electronic structure package ---

                  #######################################################
                  #                        -***-                        #
                  #          Department of theory and spectroscopy      #
                  #               Directorship: Frank Neese             #
                  #        Max Planck Institute fuer Kohlenforschung    #
                  #                Kaiser Wilhelm Platz 1               #
                  #                 D-45470 Muelheim/Ruhr               #
                  #                      Germany                        #
                  #                                                     #
                  #                  All rights reserved                #
                  #                        -***-                        #
                  #######################################################


                         Program Version 4.2.1 -  RELEASE  -


 With contributions from (in alphabetic order):
   Daniel Aravena         : Magnetic Suceptibility
   Michael Atanasov       : Ab Initio Ligand Field Theory (pilot matlab implementation)
   Alexander A. Auer      : GIAO ZORA, VPT2
   Ute Becker             : Parallelization
   Giovanni Bistoni       : ED, misc. LED, open-shell LED, HFLD
   Martin Brehm           : Molecular dynamics
   Dmytro Bykov           : SCF Hessian
   Vijay G. Chilkuri      : MRCI spin determinant printing, contributions to CSF-ICE
   Dipayan Datta          : RHF DLPNO-CCSD density
   Achintya Kumar Dutta   : EOM-CC, STEOM-CC
   Dmitry Ganyushin       : Spin-Orbit,Spin-Spin,Magnetic field MRCI
   Miquel Garcia          : C-PCM Hessian, Gaussian charge scheme
   Yang Guo               : DLPNO-NEVPT2, CIM, IAO-localization
   Andreas Hansen         : Spin unrestricted coupled pair/coupled cluster methods
   Benjamin Helmich-Paris : CASSCF linear response (MC-RPA)
   Lee Huntington         : MR-EOM, pCC
   Robert Izsak           : Overlap fitted RIJCOSX, COSX-SCS-MP3, EOM
   Christian Kollmar      : KDIIS, OOCD, Brueckner-CCSD(T), CCSD density
   Simone Kossmann        : Meta GGA functionals, TD-DFT gradient, OOMP2, MP2 Hessian
   Martin Krupicka        : AUTO-CI
   Lucas Lang             : DCDCAS
   Dagmar Lenk            : GEPOL surface, SMD
   Dimitrios Liakos       : Extrapolation schemes; Compound Job, initial MDCI parallelization
   Dimitrios Manganas     : Further ROCIS development; embedding schemes
   Dimitrios Pantazis     : SARC Basis sets
   Taras Petrenko         : DFT Hessian,TD-DFT gradient, ASA, ECA, R-Raman, ABS, FL, XAS/XES, NRVS
   Peter Pinski           : DLPNO-MP2, DLPNO-MP2 Gradient
   Christoph Reimann      : Effective Core Potentials
   Marius Retegan         : Local ZFS, SOC
   Christoph Riplinger    : Optimizer, TS searches, QM/MM, DLPNO-CCSD(T), (RO)-DLPNO pert. Triples
   Tobias Risthaus        : Range-separated hybrids, TD-DFT gradient, RPA, STAB
   Michael Roemelt        : Original ROCIS implementation
   Masaaki Saitow         : Open-shell DLPNO-CCSD energy and density
   Barbara Sandhoefer     : DKH picture change effects
   Avijit Sen             : IP-ROCIS
   Kantharuban Sivalingam : CASSCF convergence, NEVPT2, FIC-MRCI
   Bernardo de Souza      : ESD, SOC TD-DFT
   Georgi Stoychev        : AutoAux, RI-MP2 NMR
   Willem Van den Heuvel  : Paramagnetic NMR
   Boris Wezisla          : Elementary symmetry handling
   Frank Wennmohs         : Technical directorship


 We gratefully acknowledge several colleagues who have allowed us to
 interface, adapt or use parts of their codes:
   Stefan Grimme, W. Hujo, H. Kruse,             : VdW corrections, initial TS optimization,
                  C. Bannwarth                     DFT functionals, gCP, sTDA/sTD-DF
   Ed Valeev, F. Pavosevic, A. Kumar             : LibInt (2-el integral package), F12 methods
   Garnet Chan, S. Sharma, J. Yang, R. Olivares  : DMRG
   Ulf Ekstrom                                   : XCFun DFT Library
   Mihaly Kallay                                 : mrcc  (arbitrary order and MRCC methods)
   Andreas Klamt, Michael Diedenhofen            : otool_cosmo (COSMO solvation model)
   Jiri Pittner, Ondrej Demel                    : Mk-CCSD
   Frank Weinhold                                : gennbo (NPA and NBO analysis)
   Christopher J. Cramer and Donald G. Truhlar   : smd solvation model
   Lars Goerigk                                  : TD-DFT with DH, B97 family of functionals
   V. Asgeirsson, H. Jonsson                     : NEB implementation
   FAccTs GmbH                                   : IRC, NEB, NEB-TS, Multilevel, MM, QM/MM, CI optimization
   S Lehtola, MJT Oliveira, MAL Marques          : LibXC Library


 Your calculation uses the libint2 library for the computation of 2-el integrals
 For citations please refer to: http://libint.valeyev.net

 Your ORCA version has been built with support for libXC version: 4.2.3
 For citations please refer to: https://tddft.org/programs/libxc/

 This ORCA versions uses:
   CBLAS   interface :  Fast vector & matrix operations
   LAPACKE interface :  Fast linear algebra routines
   SCALAPACK package :  Parallel linear algebra routines




***************************************
The coordinates will be read from file: init.xyz
***************************************


Your calculation utilizes the SMD solvation module
Please cite in your paper:
A.V. Marenich, C.J. Cramer, D.G. Truhlar J. Phys. Chem. B, 113, (2009), 6378 

Your calculation utilizes the semiempirical GFN2-xTB method
Please cite in your paper:
C. Bannwarth, Ehlert S., S. Grimme,  J. Chem. Theory Comput., 15, (2019), 1652.
   

----- Orbital basis set information -----
Your calculation utilizes the basis: def2-SVP
   F. Weigend and R. Ahlrichs, Phys. Chem. Chem. Phys. 7, 3297 (2005).

================================================================================
                                        WARNINGS
                       Please study these warnings very carefully!
================================================================================

WARNING: Gradients needed for Numerical Frequencies
  ===> : Setting RunTyp to EnGrad

WARNING: The environment variable RSH_COMMAND is not set!
  ===> : All Displacements for the Numerical Hessian calculation
         will be started on localhost

WARNING: Found dipole moment calculation with XTB calculation
  ===> : Switching off dipole moment calculation


INFO   : the flag for use of LIBINT has been found!

================================================================================
                                       INPUT FILE
================================================================================
NAME = /tmp/slurm-scratch/freq.87/freq.inp
|  1> ! XTB2 NumFreq
|  2> %maxcore 2000
|  3> 
|  4> * xyzfile 0 1 init.xyz
|  5> 
|  6> %cpcm
|  7>  smd true
|  8>  smdsolvent "ch2cl2"
|  9> end
| 10> %pal nprocs 11 end
| 11> 
| 12>                          ****END OF INPUT****
================================================================================

                     *******************************
                     * Energy+Gradient Calculation *
                     *******************************

      -----------------------------------------------------------      
     |                   =====================                   |     
     |                           x T B                           |     
     |                   =====================                   |     
     |                         S. Grimme                         |     
     |          Mulliken Center for Theoretical Chemistry        |     
     |                    University of Bonn                     |     
      -----------------------------------------------------------      

   * xtb version 6.3.1 (461a024) compiled by 'schneider@apollo14' on 2020-06-26

   xtb is free software: you can redistribute it and/or modify it under
   the terms of the GNU Lesser General Public License as published by
   the Free Software Foundation, either version 3 of the License, or
   (at your option) any later version.
   
   xtb is distributed in the hope that it will be useful,
   but WITHOUT ANY WARRANTY; without even the implied warranty of
   MERCHANTABILITY or FITNESS FOR A PARTICULAR PURPOSE.  See the
   GNU Lesser General Public License for more details.
   
   Cite this work as:
   * S. Grimme, C. Bannwarth, P. Shushkov, J. Chem. Theory Comput., 2017,
     13, 1989-2009. DOI: 10.1021/acs.jctc.7b00118
   * C. Bannwarth, S. Ehlert and S. Grimme., J. Chem. Theory Comput., 2019,
     15, 1652-1671. DOI: 10.1021/acs.jctc.8b01176
   * P. Pracht, E. Caldeweyher, S. Ehlert, S. Grimme, ChemRxiv, 2019, preprint.
     DOI: 10.26434/chemrxiv.8326202.v1
   
   for GFN-FF:
   * S. Spicher and S. Grimme, Angew. Chem. Int. Ed., 2020,
     DOI: 10.1002/anie.202004239
   
   for DFT-D4:
   * E. Caldeweyher, C. Bannwarth and S. Grimme, J. Chem. Phys., 2017,
     147, 034112. DOI: 10.1063/1.4993215
   * E. Caldeweyher, S. Ehlert, A. Hansen, H. Neugebauer, S. Spicher,
     C. Bannwarth and S. Grimme, J. Chem. Phys., 2019, 150, 154122.
     DOI: 10.1063/1.5090222
   
   for sTDA-xTB:
   * S. Grimme and C. Bannwarth, J. Chem. Phys., 2016, 145, 054103.
     DOI: 10.1063/1.4959605
   
   in the mass-spec context:
   * V. Asgeirsson, C. Bauer and S. Grimme, Chem. Sci., 2017, 8, 4879.
     DOI: 10.1039/c7sc00601b
   * J. Koopman and S. Grimme, ACS Omega 2019, 4, 12, 15120-15133.
     DOI: 10.1021/acsomega.9b02011
   
   for metadynamics refer to:
   * S. Grimme, J. Chem. Theory Comput., 2019, 155, 2847-2862
     DOI: 10.1021/acs.jctc.9b00143
   
   with help from (in alphabetical order)
   C. Bannwarth, F. Bohle, G. Brandenburg, E. Caldeweyher, M. Checinski,
   S. Dohm, S. Ehlert, S. Ehrlich, F. März, H. Neugebauer, J. Pisarek,
   P. Pracht, P. Shushkov, and S. Spicher.
   
 * started run on 2020/08/05 at 11:53:34.991     

           -------------------------------------------------
          |                Calculation Setup                |
           -------------------------------------------------

          program call               : /opt/orca/otool_xtb /tmp/slurm-scratch/freq.87/freq_XTB.xyz --grad -c 0 -u 0 -P 11 --namespace /tmp/slurm-scratch/freq.87/freq --gbsa CH2Cl2
          hostname                   : apollo14
          calculation namespace      : /tmp/slurm-scratch/freq.87/freq
          coordinate file            : /tmp/slurm-scratch/freq.87/freq_XTB.xyz
          omp threads                :                    11
          number of atoms            :                    16
          number of electrons        :                    32
          charge                     :                     0
          spin                       :                   0.0
          first test random number   :      0.79075102203652

   ID    Z sym.   atoms
    1    6 C      1, 4, 7, 13
    2    1 H      2, 3, 5, 6, 8, 9, 11, 12, 14-16
    3    7 N      10
########################################################################
[WARNING] Please study the warnings concerning your input carefully
-1- prog_main_parseArguments: Process number higher than OMP_NUM_THREADS, I hope you know what you are doing.
########################################################################

           -------------------------------------------------
          |                 G F N 2 - x T B                 |
           -------------------------------------------------

        Reference                      10.1021/acs.jctc.8b01176
      * Hamiltonian:
        H0-scaling (s, p, d)           1.850000    2.230000    2.230000
        zeta-weighting                 0.500000
      * Dispersion:
        s8                             2.700000
        a1                             0.520000
        a2                             5.000000
        s9                             5.000000
      * Repulsion:
        kExp                           1.500000    1.000000
        rExp                           1.000000
      * Coulomb:
        alpha                          2.000000
        third order                    shell-resolved
        anisotropic                    true
        a3                             3.000000
        a5                             4.000000
        cn-shift                       1.200000
        cn-exp                         4.000000
        max-rad                        5.000000

      * Solvation model:               GBSA
        Solvent                        CH2Cl2
        Parameter file                 internal GFN2-xTB/GBSA
        Dielectric constant                8.9300E+00
        Reference state                gsolv [1 M gas/solution]
        Free energy shift                  4.4408E-03 Eh       2.7867E+00 kcal/mol
        Temperature                        2.9815E+02 K
        Density                            1.3300E+00 kg/L
        Solvent mass                       8.4930E+01 g/mol
        Interaction kernel             Still
        Born radius scaling (c1)           1.4917E+00
        Born radii integrator          GBOBC
        Born offset                        0.0000E+00 a0       0.0000E+00 AA
        H-bond correction              false
        Ion screening                  false
        Surface tension                    1.0000E-05 Eh       1.5569E+01 dyn/cm
        Grid points                               230 per atom

          ...................................................
          :                      SETUP                      :
          :.................................................:
          :  # basis functions                  31          :
          :  # atomic orbitals                  31          :
          :  # shells                           21          :
          :  # electrons                        32          :
          :  max. iterations                   250          :
          :  Hamiltonian                  GFN2-xTB          :
          :  restarted?                      false          :
          :  GBSA solvation                   true          :
          :  PC potential                    false          :
          :  electronic temp.          300.0000000     K    :
          :  accuracy                    1.0000000          :
          :  -> integral cutoff          0.2500000E+02      :
          :  -> integral neglect         0.1000000E-07      :
          :  -> SCF convergence          0.1000000E-05 Eh   :
          :  -> wf. convergence          0.1000000E-03 e    :
          :  Broyden damping             0.4000000          :
          ...................................................

 iter      E             dE          RMSdq      gap      omega  full diag
   1    -17.2919766 -0.172920E+02  0.273E+00   10.80       0.0  T
   2    -17.3228297 -0.308530E-01  0.148E+00   10.79       1.0  T
   3    -17.3237789 -0.949208E-03  0.665E-01   10.90       1.0  T
   4    -17.3238719 -0.930492E-04  0.105E-01   10.89       1.0  T
   5    -17.3238842 -0.122549E-04  0.438E-02   10.87       1.0  T
   6    -17.3238853 -0.113496E-05  0.164E-02   10.87       1.5  T
   7    -17.3238855 -0.191148E-06  0.178E-03   10.87      14.0  T
   8    -17.3238855 -0.333917E-08  0.978E-04   10.87      25.6  T
   9    -17.3238855 -0.797996E-09  0.193E-04   10.87     129.5  T

   *** convergence criteria satisfied after 9 iterations ***

         #    Occupation            Energy/Eh            Energy/eV
      -------------------------------------------------------------
         1        2.0000           -0.6320048             -17.1977
       ...           ...                  ...                  ...
        10        2.0000           -0.4785864             -13.0230
        11        2.0000           -0.4649266             -12.6513
        12        2.0000           -0.4470034             -12.1636
        13        2.0000           -0.4370430             -11.8925
        14        2.0000           -0.4350855             -11.8393
        15        2.0000           -0.4226509             -11.5009
        16        2.0000           -0.3741055             -10.1799 (HOMO)
        17                          0.0254418               0.6923 (LUMO)
        18                          0.0918860               2.5003
        19                          0.1092711               2.9734
        20                          0.1268992               3.4531
        21                          0.1345429               3.6611
       ...                                ...                  ...
        31                          0.2997624               8.1569
      -------------------------------------------------------------
                  HL-Gap            0.3995473 Eh           10.8722 eV
             Fermi-level           -0.1743318 Eh           -4.7438 eV

 SCC (total)                   0 d,  0 h,  0 min,  0.070 sec
 SCC setup                      ...        0 min,  0.009 sec ( 12.426%)
 Dispersion                     ...        0 min,  0.005 sec (  7.201%)
 classical contributions        ...        0 min,  0.007 sec ( 10.025%)
 integral evaluation            ...        0 min,  0.006 sec (  8.824%)
 iterations                     ...        0 min,  0.012 sec ( 16.929%)
 molecular gradient             ...        0 min,  0.031 sec ( 44.394%)
 printout                       ...        0 min,  0.000 sec (  0.170%)

         :::::::::::::::::::::::::::::::::::::::::::::::::::::
         ::                     SUMMARY                     ::
         :::::::::::::::::::::::::::::::::::::::::::::::::::::
         :: total energy             -17.089230867251 Eh    ::
         :: total w/o Gsasa/hb       -17.081974111769 Eh    ::
         :: gradient norm              0.015512009635 Eh/a0 ::
         :: HOMO-LUMO gap             10.872235209834 eV    ::
         ::.................................................::
         :: SCC energy               -17.323885500268 Eh    ::
         :: -> isotropic ES            0.014203305118 Eh    ::
         :: -> anisotropic ES          0.006101104188 Eh    ::
         :: -> anisotropic XC          0.013243927296 Eh    ::
         :: -> dispersion             -0.007613809456 Eh    ::
         :: -> Gsolv                  -0.008371571128 Eh    ::
         ::    -> Gborn               -0.001114815646 Eh    ::
         ::    -> Gsasa               -0.011697584655 Eh    ::
         ::    -> Ghb                  0.000000000000 Eh    ::
         ::    -> Gshift               0.004440829173 Eh    ::
         :: repulsion energy           0.234654441128 Eh    ::
         :: add. restraining           0.000000000000 Eh    ::
         :::::::::::::::::::::::::::::::::::::::::::::::::::::

           -------------------------------------------------
          |                Property Printout                |
           -------------------------------------------------

    * Orbital Energies and Occupations

         #    Occupation            Energy/Eh            Energy/eV
      -------------------------------------------------------------
         1        2.0000           -0.6320048             -17.1977
       ...           ...                  ...                  ...
         4        2.0000           -0.5681555             -15.4603
         5        2.0000           -0.5593009             -15.2194
         6        2.0000           -0.5277252             -14.3601
         7        2.0000           -0.5188474             -14.1186
         8        2.0000           -0.5062040             -13.7745
         9        2.0000           -0.4907061             -13.3528
        10        2.0000           -0.4785864             -13.0230
        11        2.0000           -0.4649266             -12.6513
        12        2.0000           -0.4470034             -12.1636
        13        2.0000           -0.4370430             -11.8925
        14        2.0000           -0.4350855             -11.8393
        15        2.0000           -0.4226509             -11.5009
        16        2.0000           -0.3741055             -10.1799 (HOMO)
        17                          0.0254418               0.6923 (LUMO)
        18                          0.0918860               2.5003
        19                          0.1092711               2.9734
        20                          0.1268992               3.4531
        21                          0.1345429               3.6611
        22                          0.1531917               4.1686
        23                          0.1613282               4.3900
        24                          0.1708858               4.6500
        25                          0.1828793               4.9764
        26                          0.2027783               5.5179
        27                          0.2320932               6.3156
       ...                                ...                  ...
        31                          0.2997624               8.1569
      -------------------------------------------------------------
                  HL-Gap            0.3995473 Eh           10.8722 eV
             Fermi-level           -0.1743318 Eh           -4.7438 eV

     #   Z        covCN         q      C6AA      α(0)
     1   6 C      3.800    -0.053    21.526     6.606
     2   1 H      0.924     0.031     2.575     2.509
     3   1 H      0.924     0.029     2.597     2.520
     4   6 C      3.802    -0.065    21.737     6.638
     5   1 H      0.924     0.033     2.544     2.494
     6   1 H      0.924     0.043     2.406     2.426
     7   6 C      3.731     0.022    20.288     6.430
     8   1 H      0.923     0.005     2.973     2.697
     9   1 H      0.924     0.032     2.564     2.504
    10   7 N      2.628    -0.363    29.358     8.047
    11   1 H      0.860     0.140     1.471     1.900
    12   1 H      0.860     0.141     1.467     1.898
    13   6 C      3.750    -0.102    22.506     6.766
    14   1 H      0.924     0.034     2.524     2.485
    15   1 H      0.924     0.036     2.505     2.475
    16   1 H      0.924     0.036     2.507     2.476

 Mol. C6AA /au·bohr⁶  :       1662.220711
 Mol. C8AA /au·bohr⁸  :      33705.172177
 Mol. α(0) /au        :         60.869807


Wiberg/Mayer (AO) data.
largest (>0.10) Wiberg bond orders for each atom
          total WBO             WBO to atom ...
     1  C   3.997        C   13 1.020    C    4 1.007    H    2 0.978    H    3 0.978
     2  H   0.999        C    1 0.978
     3  H   0.999        C    1 0.978
     4  C   3.996        C    1 1.007    C    7 1.007    H    6 0.976    H    5 0.976
     5  H   0.999        C    4 0.976
     6  H   0.998        C    4 0.976
     7  C   3.985        N   10 1.016    C    4 1.007    H    9 0.976    H    8 0.971
     8  H   1.000        C    7 0.971
     9  H   0.999        C    7 0.976
    10  N   2.989        C    7 1.016    H   11 0.968    H   12 0.968
    11  H   0.980        N   10 0.968
    12  H   0.980        N   10 0.968
    13  C   3.996        C    1 1.020    H   14 0.988    H   16 0.988    H   15 0.987
    14  H   0.999        C   13 0.988
    15  H   0.998        C   13 0.987
    16  H   0.999        C   13 0.988
Topologies differ in total number of bonds
Writing topology from bond orders to xtbtopo.mol

molecular dipole:
                 x           y           z       tot (Debye)
 q only:       -0.020       0.068      -0.210
   full:        0.207       0.255      -0.475       1.468
molecular quadrupole (traceless):
                xx          xy          yy          xz          yz          zz
 q only:        2.201       0.224       0.623       1.559       1.094      -2.824
  q+dip:        1.697      -0.549       3.547       3.083       1.583      -5.244
   full:        2.174      -0.536       3.186       3.534       2.067      -5.359


           -------------------------------------------------
          | TOTAL ENERGY              -17.089230867251 Eh   |
          | GRADIENT NORM               0.015512009635 Eh/α |
          | HOMO-LUMO GAP              10.872235209834 eV   |
           -------------------------------------------------

------------------------------------------------------------------------
 * finished run on 2020/08/05 at 11:53:35.135     
------------------------------------------------------------------------
 total:
 * wall-time:     0 d,  0 h,  0 min,  0.144 sec
 *  cpu-time:     0 d,  0 h,  0 min,  1.620 sec
 * ratio c/w:    11.290 speedup
 SCF:
 * wall-time:     0 d,  0 h,  0 min,  0.075 sec
 *  cpu-time:     0 d,  0 h,  0 min,  0.825 sec
 * ratio c/w:    10.980 speedup


-------------------------   --------------------
FINAL SINGLE POINT ENERGY       -17.089230867250
-------------------------   --------------------


----------------------------------------------------------------------------
                           ORCA NUMERICAL FREQUENCIES
                              (11-process run)
----------------------------------------------------------------------------

Number of atoms                ... 16
Central differences            ... used
Number of displacements        ... 96
Numerical increment            ... 5.000e-03 bohr
IR-spectrum generation         ... on
Raman-spectrum generation      ... off
Surface Crossing Hessian       ... off
List of participating nodes    ...  /tmp/slurm-scratch/freq.87/freq.hostnames

The output will be reduced. Please look at the following files:
SCF program output             ... >/tmp/slurm-scratch/freq.87/freq.lastscf
Integral program output        ... >/tmp/slurm-scratch/freq.87/freq.lastint
Gradient program output        ... >/tmp/slurm-scratch/freq.87/freq.lastgrad
Dipole moment program output   ... >/tmp/slurm-scratch/freq.87/freq.lastmom
AutoCI program output          ... >/tmp/slurm-scratch/freq.87/freq.lastautoci


         <<< Energy and Gradient at the input geometry >>>

        <<< Energy and Gradient at displaced geometries >>>
             <<<Displacing   2/coordinate 2 (+)>>>
             <<<Displacing   4/coordinate 1 (+)>>>
             <<<Displacing   2/coordinate 3 (+)>>>
             <<<Displacing   2/coordinate 2 (-)>>>
             <<<Displacing   4/coordinate 1 (-)>>>
             <<<Displacing   2/coordinate 3 (-)>>>
             <<<Displacing   3/coordinate 1 (+)>>>
             <<<Displacing   3/coordinate 3 (+)>>>
             <<<Displacing   1/coordinate 2 (+)>>>
             <<<Displacing   3/coordinate 3 (-)>>>
             <<<Displacing   1/coordinate 2 (-)>>>
             <<<Displacing   4/coordinate 2 (+)>>>
             <<<Displacing   1/coordinate 3 (+)>>>
             <<<Displacing   3/coordinate 1 (-)>>>
             <<<Displacing   2/coordinate 1 (+)>>>
             <<<Displacing   3/coordinate 2 (+)>>>
             <<<Displacing   1/coordinate 3 (-)>>>
             <<<Displacing   4/coordinate 2 (-)>>>
             <<<Displacing   1/coordinate 1 (+)>>>
             <<<Displacing   2/coordinate 1 (-)>>>
             <<<Displacing   3/coordinate 2 (-)>>>
             <<<Displacing   1/coordinate 1 (-)>>>
             <<<Displacing   6/coordinate 2 (+)>>>
             <<<Displacing   5/coordinate 3 (+)>>>
             <<<Displacing   5/coordinate 1 (+)>>>
             <<<Displacing   4/coordinate 3 (+)>>>
             <<<Displacing   6/coordinate 2 (-)>>>
             <<<Displacing   5/coordinate 1 (-)>>>
             <<<Displacing   5/coordinate 3 (-)>>>
             <<<Displacing   5/coordinate 2 (+)>>>
             <<<Displacing   7/coordinate 3 (+)>>>
             <<<Displacing   4/coordinate 3 (-)>>>
             <<<Displacing   5/coordinate 2 (-)>>>
             <<<Displacing   7/coordinate 3 (-)>>>
             <<<Displacing   6/coordinate 1 (+)>>>
             <<<Displacing   7/coordinate 2 (+)>>>
             <<<Displacing   6/coordinate 1 (-)>>>
             <<<Displacing   6/coordinate 3 (+)>>>
             <<<Displacing   7/coordinate 2 (-)>>>
             <<<Displacing   7/coordinate 1 (+)>>>
             <<<Displacing   6/coordinate 3 (-)>>>
             <<<Displacing   7/coordinate 1 (-)>>>
             <<<Displacing   8/coordinate 1 (+)>>>
             <<<Displacing   8/coordinate 1 (-)>>>
             <<<Displacing   9/coordinate 1 (+)>>>
             <<<Displacing   8/coordinate 3 (+)>>>
             <<<Displacing   9/coordinate 1 (-)>>>
             <<<Displacing   8/coordinate 2 (+)>>>
             <<<Displacing   8/coordinate 3 (-)>>>
             <<<Displacing   9/coordinate 2 (+)>>>
             <<<Displacing   8/coordinate 2 (-)>>>
             <<<Displacing   9/coordinate 2 (-)>>>
             <<<Displacing  10/coordinate 1 (+)>>>
             <<<Displacing  10/coordinate 1 (-)>>>
             <<<Displacing   9/coordinate 3 (+)>>>
             <<<Displacing   9/coordinate 3 (-)>>>
             <<<Displacing  11/coordinate 3 (+)>>>
             <<<Displacing  11/coordinate 3 (-)>>>
             <<<Displacing  11/coordinate 1 (+)>>>
             <<<Displacing  10/coordinate 3 (+)>>>
             <<<Displacing  10/coordinate 2 (+)>>>
             <<<Displacing  11/coordinate 1 (-)>>>
             <<<Displacing  11/coordinate 2 (+)>>>
             <<<Displacing  10/coordinate 3 (-)>>>
             <<<Displacing  10/coordinate 2 (-)>>>
             <<<Displacing  11/coordinate 2 (-)>>>
             <<<Displacing  13/coordinate 2 (+)>>>
             <<<Displacing  12/coordinate 1 (+)>>>
             <<<Displacing  13/coordinate 2 (-)>>>
             <<<Displacing  12/coordinate 1 (-)>>>
             <<<Displacing  12/coordinate 2 (+)>>>
             <<<Displacing  12/coordinate 3 (+)>>>
             <<<Displacing  13/coordinate 1 (+)>>>
             <<<Displacing  12/coordinate 2 (-)>>>
             <<<Displacing  12/coordinate 3 (-)>>>
             <<<Displacing  13/coordinate 1 (-)>>>
             <<<Displacing  13/coordinate 3 (+)>>>
             <<<Displacing  13/coordinate 3 (-)>>>
             <<<Displacing  14/coordinate 1 (+)>>>
             <<<Displacing  14/coordinate 1 (-)>>>
             <<<Displacing  14/coordinate 3 (+)>>>
             <<<Displacing  15/coordinate 1 (+)>>>
             <<<Displacing  14/coordinate 3 (-)>>>
             <<<Displacing  15/coordinate 1 (-)>>>
             <<<Displacing  14/coordinate 2 (+)>>>
             <<<Displacing  15/coordinate 2 (+)>>>
             <<<Displacing  14/coordinate 2 (-)>>>
             <<<Displacing  15/coordinate 2 (-)>>>
             <<<Displacing  15/coordinate 3 (+)>>>
             <<<Displacing  15/coordinate 3 (-)>>>
             <<<Displacing  16/coordinate 2 (+)>>>
             <<<Displacing  16/coordinate 1 (+)>>>
             <<<Displacing  16/coordinate 2 (-)>>>
             <<<Displacing  16/coordinate 3 (+)>>>
             <<<Displacing  16/coordinate 1 (-)>>>
             <<<Displacing  16/coordinate 3 (-)>>>

-----------------------
VIBRATIONAL FREQUENCIES
-----------------------

Scaling factor for frequencies =  1.000000000 (already applied!)

   0:         0.00 cm**-1
   1:         0.00 cm**-1
   2:         0.00 cm**-1
   3:         0.00 cm**-1
   4:         0.00 cm**-1
   5:         0.00 cm**-1
   6:        88.58 cm**-1
   7:       113.15 cm**-1
   8:       191.15 cm**-1
   9:       222.68 cm**-1
  10:       254.45 cm**-1
  11:       392.76 cm**-1
  12:       411.08 cm**-1
  13:       770.88 cm**-1
  14:       823.65 cm**-1
  15:       919.92 cm**-1
  16:       932.23 cm**-1
  17:       979.66 cm**-1
  18:      1002.21 cm**-1
  19:      1062.02 cm**-1
  20:      1095.22 cm**-1
  21:      1121.54 cm**-1
  22:      1150.72 cm**-1
  23:      1202.33 cm**-1
  24:      1235.87 cm**-1
  25:      1274.13 cm**-1
  26:      1279.83 cm**-1
  27:      1292.59 cm**-1
  28:      1351.42 cm**-1
  29:      1379.95 cm**-1
  30:      1430.76 cm**-1
  31:      1494.68 cm**-1
  32:      1503.92 cm**-1
  33:      1506.47 cm**-1
  34:      1507.05 cm**-1
  35:      1511.92 cm**-1
  36:      1567.78 cm**-1
  37:      2860.51 cm**-1
  38:      2930.11 cm**-1
  39:      2942.18 cm**-1
  40:      2961.80 cm**-1
  41:      2964.92 cm**-1
  42:      2968.32 cm**-1
  43:      2978.53 cm**-1
  44:      2984.47 cm**-1
  45:      2997.05 cm**-1
  46:      3390.29 cm**-1
  47:      3411.15 cm**-1


------------
NORMAL MODES
------------

These modes are the cartesian displacements weighted by the diagonal matrix
M(i,i)=1/sqrt(m[i]) where m[i] is the mass of the displaced atom
Thus, these vectors are normalized but *not* orthogonal

                  0          1          2          3          4          5    
      0       0.000000   0.000000   0.000000   0.000000   0.000000   0.000000
      1       0.000000   0.000000   0.000000   0.000000   0.000000   0.000000
      2       0.000000   0.000000   0.000000   0.000000   0.000000   0.000000
      3       0.000000   0.000000   0.000000   0.000000   0.000000   0.000000
      4       0.000000   0.000000   0.000000   0.000000   0.000000   0.000000
      5       0.000000   0.000000   0.000000   0.000000   0.000000   0.000000
      6       0.000000   0.000000   0.000000   0.000000   0.000000   0.000000
      7       0.000000   0.000000   0.000000   0.000000   0.000000   0.000000
      8       0.000000   0.000000   0.000000   0.000000   0.000000   0.000000
      9       0.000000   0.000000   0.000000   0.000000   0.000000   0.000000
     10       0.000000   0.000000   0.000000   0.000000   0.000000   0.000000
     11       0.000000   0.000000   0.000000   0.000000   0.000000   0.000000
     12       0.000000   0.000000   0.000000   0.000000   0.000000   0.000000
     13       0.000000   0.000000   0.000000   0.000000   0.000000   0.000000
     14       0.000000   0.000000   0.000000   0.000000   0.000000   0.000000
     15       0.000000   0.000000   0.000000   0.000000   0.000000   0.000000
     16       0.000000   0.000000   0.000000   0.000000   0.000000   0.000000
     17       0.000000   0.000000   0.000000   0.000000   0.000000   0.000000
     18       0.000000   0.000000   0.000000   0.000000   0.000000   0.000000
     19       0.000000   0.000000   0.000000   0.000000   0.000000   0.000000
     20       0.000000   0.000000   0.000000   0.000000   0.000000   0.000000
     21       0.000000   0.000000   0.000000   0.000000   0.000000   0.000000
     22       0.000000   0.000000   0.000000   0.000000   0.000000   0.000000
     23       0.000000   0.000000   0.000000   0.000000   0.000000   0.000000
     24       0.000000   0.000000   0.000000   0.000000   0.000000   0.000000
     25       0.000000   0.000000   0.000000   0.000000   0.000000   0.000000
     26       0.000000   0.000000   0.000000   0.000000   0.000000   0.000000
     27       0.000000   0.000000   0.000000   0.000000   0.000000   0.000000
     28       0.000000   0.000000   0.000000   0.000000   0.000000   0.000000
     29       0.000000   0.000000   0.000000   0.000000   0.000000   0.000000
     30       0.000000   0.000000   0.000000   0.000000   0.000000   0.000000
     31       0.000000   0.000000   0.000000   0.000000   0.000000   0.000000
     32       0.000000   0.000000   0.000000   0.000000   0.000000   0.000000
     33       0.000000   0.000000   0.000000   0.000000   0.000000   0.000000
     34       0.000000   0.000000   0.000000   0.000000   0.000000   0.000000
     35       0.000000   0.000000   0.000000   0.000000   0.000000   0.000000
     36       0.000000   0.000000   0.000000   0.000000   0.000000   0.000000
     37       0.000000   0.000000   0.000000   0.000000   0.000000   0.000000
     38       0.000000   0.000000   0.000000   0.000000   0.000000   0.000000
     39       0.000000   0.000000   0.000000   0.000000   0.000000   0.000000
     40       0.000000   0.000000   0.000000   0.000000   0.000000   0.000000
     41       0.000000   0.000000   0.000000   0.000000   0.000000   0.000000
     42       0.000000   0.000000   0.000000   0.000000   0.000000   0.000000
     43       0.000000   0.000000   0.000000   0.000000   0.000000   0.000000
     44       0.000000   0.000000   0.000000   0.000000   0.000000   0.000000
     45       0.000000   0.000000   0.000000   0.000000   0.000000   0.000000
     46       0.000000   0.000000   0.000000   0.000000   0.000000   0.000000
     47       0.000000   0.000000   0.000000   0.000000   0.000000   0.000000
                  6          7          8          9         10         11    
      0      -0.013919  -0.009868   0.001181  -0.004679   0.008179  -0.190654
      1      -0.114319  -0.078321  -0.050990  -0.037156   0.063593   0.020201
      2       0.069968   0.048295  -0.103396  -0.006449  -0.037922  -0.005729
      3      -0.179317  -0.049153  -0.076985  -0.041052   0.062776  -0.237354
      4      -0.155131  -0.086773  -0.069657  -0.046362   0.076046   0.005486
      5       0.143267   0.276367  -0.147054  -0.009342  -0.116953  -0.049998
      6       0.130650   0.003804  -0.088773   0.000954  -0.033324  -0.238628
      7      -0.226612  -0.287768  -0.065928  -0.050523   0.148091  -0.003681
      8       0.088169  -0.045421  -0.154216  -0.009982  -0.017124  -0.044500
      9      -0.014791   0.018952   0.109040   0.007518  -0.004098   0.126996
     10      -0.139157   0.156744  -0.081227  -0.051121  -0.024356  -0.044093
     11       0.084037  -0.093860  -0.146265  -0.005896   0.015787  -0.047383
     12      -0.152236   0.033114   0.127732  -0.069148  -0.020513   0.172363
     13      -0.172260   0.159206  -0.073948  -0.071796  -0.028184  -0.029326
     14       0.177311  -0.284486  -0.163545   0.057746   0.111864  -0.006087
     15       0.103854   0.030282   0.082202   0.073641  -0.001466   0.170010
     16      -0.259491   0.322496  -0.046980  -0.122512  -0.112995  -0.017627
     17       0.083849  -0.008203  -0.140846  -0.008232  -0.025294  -0.010073
     18       0.009981   0.015012   0.097592   0.021671  -0.003014   0.191324
     19       0.072623   0.130828  -0.047292   0.061287  -0.015377   0.012589
     20      -0.046911  -0.082400  -0.012523  -0.035227   0.009898   0.064404
     21      -0.134889   0.048740   0.204496  -0.000577  -0.010826   0.257388
     22       0.250485   0.335202  -0.048228   0.147597  -0.017414   0.031845
     23      -0.037984   0.026067   0.039935  -0.006153   0.005058   0.109438
     24       0.182921   0.002621   0.155513   0.082076   0.003814   0.249718
     25       0.111380   0.117371  -0.028209   0.075809  -0.013429   0.031058
     26      -0.190914  -0.312423   0.071806  -0.104155   0.013716   0.109857
     27       0.015411  -0.013346  -0.163502  -0.053308   0.002310   0.113272
     28       0.018772  -0.156868   0.043770   0.029671  -0.004236   0.060939
     29      -0.020527   0.082450   0.052384   0.013563   0.001863   0.123171
     30       0.051474  -0.003432  -0.135798  -0.136182   0.005751   0.117197
     31       0.279650  -0.091041   0.326926  -0.551982   0.019630   0.104966
     32      -0.188846   0.026343   0.135168   0.430476  -0.016099   0.146969
     33      -0.256887  -0.090871  -0.441250   0.547228  -0.021910   0.073804
     34      -0.017602  -0.155196  -0.002270   0.115393  -0.008182   0.053989
     35       0.156330   0.354773   0.064941  -0.252005   0.003585   0.107761
     36       0.016316  -0.005352  -0.001979  -0.000779  -0.001529  -0.245716
     37       0.127620  -0.043684   0.094934   0.024319  -0.014858  -0.051062
     38      -0.074568   0.024437   0.165135   0.017203   0.008173  -0.134075
     39       0.187681   0.026991   0.097655   0.045733  -0.035944  -0.343007
     40       0.170943  -0.041729   0.125960   0.036177  -0.043872  -0.082175
     41      -0.209510  -0.176898   0.248407  -0.012276  -0.530237  -0.214479
     42       0.011973  -0.022567  -0.222493  -0.043246  -0.060590  -0.043724
     43       0.096093  -0.203138   0.158190   0.010775  -0.504568  -0.113151
     44      -0.055438   0.119642   0.227561   0.043162   0.303315  -0.189363
     45      -0.130613  -0.017417   0.117050  -0.001436   0.085638  -0.345133
     46       0.295996   0.138344   0.123686   0.076937   0.436484  -0.085066
     47      -0.068565   0.112130   0.246321   0.044144   0.290707  -0.208058
                 12         13         14         15         16         17    
      0      -0.002673   0.005028  -0.006831   0.005561  -0.031097  -0.002011
      1       0.110733   0.043439  -0.059901   0.004752   0.060099  -0.027019
      2       0.182676  -0.024843   0.036917  -0.012508   0.090114   0.007902
      3       0.037469  -0.176520   0.251869  -0.240622  -0.208199  -0.142945
      4       0.117127  -0.008218   0.012781  -0.059332   0.007690  -0.059858
      5       0.187895   0.388546  -0.236978  -0.103341  -0.026745  -0.188478
      6       0.034595   0.127513  -0.220168   0.245595  -0.125804   0.219906
      7       0.109233  -0.374585   0.257135   0.010872   0.024174   0.120725
      8       0.195905  -0.154653   0.071038   0.114627   0.017003   0.187295
      9       0.122059   0.007284   0.008976   0.001743   0.052257   0.007739
     10       0.051643   0.045805   0.026925  -0.056343  -0.096663  -0.000055
     11       0.110794  -0.028804  -0.019188   0.043505  -0.125995   0.020115
     12       0.243682  -0.204391  -0.256855   0.036945   0.024967  -0.186493
     13       0.082109  -0.014662  -0.044427  -0.039114  -0.093188  -0.049829
     14       0.191935   0.418263   0.055073  -0.252425  -0.180180  -0.138596
     15       0.270999   0.154216   0.256297  -0.004780   0.016499   0.322105
     16       0.078963  -0.405000  -0.113218   0.210812  -0.049571   0.107624
     17       0.195033  -0.162220   0.040636   0.157815  -0.112851   0.223041
     18       0.102706   0.001701   0.005726   0.014251  -0.081869  -0.015521
     19      -0.093162   0.018789   0.065819   0.067301   0.026691   0.001047
     20      -0.146359  -0.010200  -0.031936   0.000725   0.011207  -0.065198
     21       0.105148   0.175341   0.258431  -0.016754   0.003053   0.260092
     22      -0.071601  -0.188932  -0.316905  -0.223104   0.006528  -0.024702
     23      -0.133909  -0.014138  -0.071224  -0.147640   0.041739   0.081508
     24       0.099474  -0.198193  -0.291706   0.006626  -0.011459  -0.257971
     25      -0.089952  -0.031157  -0.009299   0.066614   0.041782  -0.063276
     26      -0.140815   0.158656   0.303905   0.311738   0.087596  -0.076141
     27      -0.213033  -0.001260  -0.004732  -0.004185  -0.022868  -0.012197
     28      -0.033192  -0.007672  -0.014915  -0.009186   0.003196   0.000235
     29      -0.096332  -0.000763  -0.013679  -0.073926   0.018715   0.096953
     30      -0.221034  -0.000999  -0.014257  -0.047903  -0.009596   0.040472
     31       0.050741  -0.006059  -0.061114  -0.163810  -0.112065   0.115533
     32       0.280288  -0.007631   0.020102   0.197090  -0.385549  -0.340152
     33      -0.289121  -0.010166  -0.006414  -0.041139   0.152268   0.114244
     34      -0.054146  -0.005873  -0.005083  -0.000130   0.040290   0.016122
     35      -0.209407   0.062427   0.229312   0.495730   0.051848  -0.385031
     36       0.001886   0.000393  -0.003042  -0.005939   0.079462  -0.003113
     37      -0.028890   0.003189  -0.016926   0.034426   0.045349   0.025559
     38      -0.048470  -0.002196   0.011200  -0.026340   0.078140  -0.040778
     39      -0.120487  -0.161045   0.277921  -0.298590  -0.247967  -0.188286
     40      -0.067093  -0.042404   0.064167  -0.052067  -0.062485  -0.028142
     41      -0.147671   0.053387  -0.062944   0.051412  -0.165646   0.070380
     42       0.254525  -0.003333   0.016236  -0.051632   0.659944  -0.139576
     43      -0.107642  -0.045525   0.099943  -0.105780  -0.157353  -0.060335
     44      -0.117419   0.026253  -0.061697   0.071462  -0.082076   0.070509
     45      -0.123828   0.143428  -0.263145   0.284332  -0.159386   0.281724
     46      -0.066979  -0.096268   0.133610  -0.114710  -0.112941  -0.071554
     47      -0.138603   0.028657  -0.061309   0.066673  -0.142269   0.077368
                 18         19         20         21         22         23    
      0      -0.075517  -0.121558  -0.270577   0.030987  -0.036947  -0.004823
      1       0.008868   0.056912  -0.006666   0.076476   0.029480  -0.141866
      2       0.023546   0.019107  -0.041549   0.140849   0.118963   0.039353
      3      -0.163842   0.033608  -0.359686   0.261870   0.041910   0.206354
      4      -0.014489   0.087549  -0.033604   0.129918   0.045171  -0.065815
      5      -0.071752   0.199460  -0.151897   0.263856   0.013081  -0.234733
      6      -0.056112  -0.070116  -0.330110   0.258509   0.059508  -0.132535
      7       0.059479  -0.012652   0.013562   0.140991   0.144103   0.194726
      8       0.053292   0.008895  -0.071113   0.278732   0.204179   0.116089
      9      -0.170574  -0.025706   0.006328  -0.137072   0.117978  -0.033407
     10       0.004774  -0.038132   0.048162  -0.062734  -0.031813   0.127485
     11      -0.033574  -0.010030   0.041480  -0.131486  -0.131793  -0.038842
     12      -0.328292   0.359250  -0.025613  -0.210233  -0.012222  -0.054960
     13      -0.041421   0.065013   0.041193  -0.077210  -0.061097   0.097277
     14      -0.125994   0.123120   0.124502  -0.170187  -0.026362   0.312912
     15      -0.136369   0.002872   0.145750  -0.225795   0.280411   0.098746
     16      -0.004087   0.060990   0.054046  -0.077780  -0.131205  -0.171336
     17      -0.025511   0.046634   0.119995  -0.177861  -0.076109  -0.098321
     18       0.085286  -0.041232   0.085675   0.124106  -0.145896   0.012416
     19      -0.058602  -0.064731   0.078369   0.025243  -0.030364  -0.109194
     20      -0.091962  -0.161899   0.182160   0.051025   0.066946   0.013589
     21       0.093154  -0.060768   0.162695   0.289649  -0.169061  -0.025485
     22      -0.077584  -0.154809   0.157081   0.036612   0.164904   0.144917
     23      -0.076804  -0.177268   0.221364   0.127906   0.114264   0.094033
     24      -0.097586   0.220468   0.083708   0.301535  -0.300662   0.388894
     25      -0.098441   0.023973   0.063558   0.069437  -0.082375   0.004078
     26      -0.154001   0.171322   0.048896   0.158450  -0.319768  -0.040331
     27       0.086463   0.002928  -0.047868  -0.030191   0.063020  -0.016214
     28       0.029564   0.071269  -0.075699  -0.038729   0.035235   0.040700
     29       0.049513   0.114631  -0.120386  -0.040956  -0.039705  -0.018760
     30       0.069087   0.007412  -0.040297  -0.013792   0.010520  -0.035325
     31       0.230576  -0.105256  -0.043557  -0.045404   0.013107  -0.162803
     32       0.663577  -0.235445  -0.180279  -0.238019   0.470414  -0.151830
     33      -0.197586   0.221326  -0.055965   0.052873  -0.200451   0.081457
     34      -0.032114   0.124708  -0.079766  -0.021724  -0.022359   0.062892
     35      -0.058381   0.417952  -0.262765  -0.106660   0.121796   0.330349
     36       0.102597   0.096609   0.211850  -0.035300   0.010882   0.004445
     37       0.024030  -0.060961  -0.045530  -0.018619  -0.020298   0.093646
     38       0.035241  -0.046522  -0.043961  -0.043447  -0.073766  -0.026965
     39      -0.073358   0.363639   0.318270   0.082609   0.090571  -0.372236
     40      -0.031603   0.031523  -0.002751   0.025560   0.012905  -0.031960
     41      -0.050963   0.107453   0.075411   0.105210   0.127900   0.017490
     42       0.322288  -0.229496  -0.000088  -0.279680  -0.290099   0.075449
     43      -0.082854   0.087200   0.004236   0.056117   0.027462  -0.138993
     44      -0.011677   0.028708   0.026270   0.041413   0.052084   0.063060
     45       0.060741   0.206015   0.369996   0.107863   0.257109   0.249575
     46      -0.068886   0.075349  -0.007847   0.058972   0.031235  -0.141915
     47      -0.034457   0.091576   0.076573   0.084410   0.104395   0.005268
                 24         25         26         27         28         29    
      0      -0.011371   0.011398   0.011931  -0.040821  -0.099979   0.098406
      1      -0.049122  -0.007337   0.035338  -0.039924  -0.023531   0.015768
      2       0.068865   0.034605   0.002233  -0.044433  -0.063132   0.050698
      3       0.203341  -0.528491  -0.162866   0.099004   0.368157  -0.271023
      4       0.011601  -0.143964  -0.011322  -0.000083   0.092975  -0.076719
      5      -0.023142  -0.375270  -0.037924   0.012182   0.210834  -0.142834
      6      -0.345585   0.310404   0.036266   0.436488   0.372715  -0.267496
      7       0.042201   0.118217  -0.027170   0.125485   0.074377  -0.035345
      8      -0.071421   0.241038  -0.016019   0.274940   0.218951  -0.157185
      9       0.051528   0.035890   0.024559  -0.048018   0.032420  -0.128375
     10      -0.011221   0.057769   0.054761   0.000575  -0.003694  -0.032740
     11       0.002983  -0.004576  -0.029065  -0.069927  -0.003204  -0.081828
     12       0.135117   0.057383  -0.467261   0.437451  -0.108986   0.374660
     13       0.013949   0.057162  -0.077822   0.125793  -0.037532   0.097169
     14       0.045436   0.148250  -0.165974   0.331741  -0.031818   0.260959
     15      -0.373662  -0.384911   0.317069   0.249279  -0.057652   0.351681
     16      -0.093976  -0.173959  -0.025850   0.028322   0.009255   0.109324
     17      -0.242905  -0.315626   0.083938   0.093913  -0.036933   0.223169
     18       0.011839   0.024511   0.004581  -0.051048   0.103022   0.100805
     19       0.087953   0.000922  -0.033808   0.052697  -0.001766   0.019237
     20      -0.023545  -0.013922   0.021700   0.004881   0.047568   0.061547
     21      -0.311260  -0.047933  -0.538031  -0.053504  -0.365175  -0.299345
     22      -0.222852  -0.028169  -0.096697  -0.053349  -0.101882  -0.109269
     23      -0.307256  -0.061043  -0.280435  -0.047286  -0.233400  -0.196669
     24      -0.091745  -0.078778   0.388583   0.201382  -0.382931  -0.314244
     25       0.059208  -0.023132   0.079322   0.120200  -0.138790  -0.098700
     26       0.192281  -0.043769   0.188904   0.251621  -0.308027  -0.249042
     27       0.000232  -0.012098  -0.005029   0.025566  -0.031547  -0.020197
     28      -0.050111   0.006508  -0.021889  -0.044264   0.024834   0.010266
     29       0.044741   0.009076   0.027711   0.006031   0.012010   0.006106
     30       0.035081  -0.006935   0.010069   0.036855  -0.027265  -0.012523
     31       0.171775  -0.015725   0.043609   0.146969  -0.086493  -0.025288
     32       0.057060  -0.072540  -0.008011   0.184518  -0.187323  -0.117329
     33      -0.012394   0.037784   0.020315  -0.069520   0.068855   0.051954
     34      -0.052795   0.018208  -0.017678  -0.063812   0.046589   0.028667
     35      -0.342506   0.040950  -0.107882  -0.265403   0.141391   0.074147
     36       0.012262  -0.001359  -0.000850  -0.010323  -0.007211  -0.002913
     37       0.049707  -0.052499  -0.027258   0.005781   0.017961  -0.008772
     38      -0.057131   0.010792   0.002698   0.040908   0.030397  -0.016741
     39      -0.184545   0.155646   0.079664   0.023333   0.039802  -0.033912
     40      -0.011426   0.000490   0.003069   0.005957   0.019998  -0.012281
     41       0.074782   0.001850  -0.001910  -0.056496  -0.052323   0.041779
     42      -0.084529  -0.065632  -0.040894   0.149848   0.169093  -0.084786
     43      -0.075610   0.049176   0.045387  -0.020617  -0.032492   0.012597
     44       0.060365  -0.013620  -0.017080  -0.022387  -0.024265   0.011097
     45       0.261276  -0.119763  -0.052288  -0.076024   0.025109  -0.023662
     46      -0.067010   0.064903   0.043369  -0.027705  -0.059656   0.044737
     47       0.040784   0.003141   0.006317  -0.024076  -0.002537   0.004091
                 30         31         32         33         34         35    
      0      -0.021582  -0.009379  -0.028791   0.030434  -0.015538  -0.009898
      1      -0.007187   0.009468   0.013960  -0.034298   0.003879   0.021703
      2      -0.015300   0.013033   0.016945  -0.040682   0.026516   0.031947
      3       0.043837   0.081682   0.165522  -0.245166   0.138132   0.077785
      4       0.013848   0.021490   0.041338  -0.064908   0.024927   0.027619
      5       0.098372  -0.129327  -0.240052   0.451291  -0.208151  -0.195660
      6       0.046644   0.061725   0.129474  -0.196160   0.060456   0.052790
      7       0.072819  -0.138181  -0.259041   0.473800  -0.209395  -0.198988
      8       0.062347  -0.034147  -0.058444   0.132058  -0.057199  -0.060303
      9       0.007127  -0.002628  -0.043237  -0.018353   0.003953  -0.019072
     10      -0.002322  -0.005581   0.034308   0.018805  -0.005138   0.009513
     11      -0.002575  -0.009713   0.048315   0.026892  -0.008364   0.012160
     12       0.001247  -0.004609   0.298888   0.174552  -0.034807   0.112712
     13      -0.004265  -0.003371   0.080873   0.042986  -0.008531   0.027794
     14      -0.003900   0.040074  -0.469419  -0.292698   0.095996  -0.167609
     15       0.000020   0.006231   0.221025   0.121707  -0.044826   0.085248
     16      -0.002370   0.036617  -0.506593  -0.314119   0.088730  -0.181246
     17      -0.006381   0.017645  -0.124329  -0.090226   0.020968  -0.044184
     18       0.002217   0.050802   0.001663   0.012477  -0.004474   0.003362
     19       0.002032  -0.040971   0.006988  -0.006257   0.003987   0.001040
     20       0.003587  -0.047461   0.010278  -0.007087   0.002774   0.002063
     21      -0.019738  -0.257654   0.008272  -0.066017   0.028606  -0.011279
     22      -0.004942   0.616736  -0.058217   0.128474  -0.052381   0.009520
     23      -0.011455   0.161477  -0.022384   0.029114  -0.011855  -0.000904
     24      -0.019232  -0.360031   0.013891  -0.090716   0.031774  -0.014027
     25      -0.004654  -0.072761   0.003390  -0.016536   0.006449  -0.002517
     26      -0.010170   0.568345  -0.057645   0.116606  -0.048536   0.007311
     27      -0.000366  -0.002411  -0.001672  -0.001681   0.000619  -0.000309
     28       0.000335  -0.005409   0.000224  -0.001335   0.000491  -0.000165
     29       0.000615  -0.010551   0.000692  -0.002472   0.000939  -0.000073
     30      -0.000495   0.004808  -0.000935   0.000515  -0.000100   0.000011
     31      -0.003253   0.041327  -0.002175   0.008379  -0.002813   0.000099
     32      -0.003189   0.012624  -0.008505  -0.001174   0.000199  -0.002030
     33      -0.001278   0.041119   0.001708   0.010635  -0.003890   0.000808
     34       0.000001   0.004781   0.000529   0.001101  -0.000362  -0.000090
     35      -0.001384   0.015171  -0.003237   0.000259  -0.000435  -0.001841
     36       0.138681   0.002601   0.008037  -0.009592  -0.001938  -0.001539
     37      -0.006541  -0.002454  -0.010839  -0.016294  -0.049489   0.034279
     38       0.014342  -0.003393  -0.021120   0.017569   0.031592   0.047486
     39      -0.536508  -0.028363  -0.100265  -0.043307  -0.276899   0.216169
     40      -0.164832  -0.006211  -0.021157  -0.023913  -0.098347   0.048037
     41      -0.063866   0.050523   0.269907  -0.222642  -0.353606  -0.536362
     42      -0.518300   0.016720   0.113500   0.020347   0.053655  -0.290723
     43       0.153440  -0.005141  -0.057715   0.236123   0.583067   0.043728
     44       0.168413  -0.003958  -0.020179  -0.141402  -0.341582   0.118334
     45      -0.497752  -0.021385  -0.085172   0.158625   0.253737   0.098265
     46       0.106589   0.050998   0.246403   0.000491   0.219018  -0.564467
     47      -0.237974   0.014587   0.076246   0.092572   0.265366  -0.231704
                 36         37         38         39         40         41    
      0       0.002108   0.001008  -0.003480   0.008682  -0.027014  -0.008377
      1      -0.000894   0.000451  -0.030169   0.067330   0.026031  -0.000486
      2       0.000157  -0.001575   0.018152  -0.041027   0.031798   0.013888
      3      -0.004782  -0.001450  -0.078060   0.157045   0.128710   0.016920
      4      -0.002070   0.005632   0.298000  -0.590686  -0.578383  -0.082906
      5      -0.005651   0.000476   0.006877  -0.007258   0.031068   0.009249
      6      -0.002078  -0.010481   0.121001  -0.266621   0.216092   0.084103
      7      -0.000771  -0.009874   0.104525  -0.238497   0.246919   0.089415
      8      -0.001649   0.015067  -0.236618   0.522037  -0.446131  -0.167799
      9      -0.004692  -0.000544  -0.004819  -0.005516   0.016164  -0.025377
     10       0.000487   0.002679   0.071914   0.034624   0.000927  -0.011191
     11       0.001324  -0.001626  -0.022002  -0.005298  -0.025413   0.047101
     12       0.016474   0.010954   0.205039   0.100774  -0.034320   0.032029
     13       0.008006  -0.031463  -0.810337  -0.406662   0.180743  -0.188077
     14       0.009680  -0.001851   0.003591   0.009319  -0.016407   0.026783
     15      -0.003814  -0.025954  -0.139894  -0.024669  -0.169459   0.294077
     16       0.000271  -0.018395  -0.101120  -0.006717  -0.182863   0.313729
     17       0.000939   0.045740   0.272664   0.040074   0.354839  -0.610096
     18       0.013810  -0.027889   0.003057   0.002769   0.007968   0.010871
     19       0.009440  -0.043389  -0.002770  -0.004956  -0.021321  -0.040104
     20      -0.016694   0.058917  -0.003438  -0.001989  -0.002290   0.001329
     21      -0.034449   0.397386  -0.018671  -0.016598  -0.014433  -0.014448
     22       0.014285   0.381814  -0.027276  -0.020896  -0.033219  -0.042652
     23      -0.032520  -0.813827   0.046284   0.034674   0.044248   0.044504
     24      -0.003358  -0.060170  -0.024877  -0.022491  -0.071851  -0.133342
     25       0.011370   0.136336   0.090638   0.095232   0.301270   0.546426
     26       0.079159   0.028744  -0.005452  -0.006095  -0.017822  -0.032877
     27       0.045412   0.000775   0.000200   0.000127  -0.000375   0.000107
     28       0.048142   0.000940  -0.000525  -0.000451  -0.000329  -0.000786
     29       0.035074   0.005112  -0.000333  -0.000245  -0.000543  -0.001019
     30      -0.070755  -0.001032  -0.002123  -0.001605   0.002141  -0.002781
     31      -0.677576   0.004796   0.000019   0.000158  -0.000161   0.000587
     32      -0.147033  -0.003716  -0.000667  -0.000667   0.000221  -0.001466
     33      -0.661085   0.005160  -0.002326  -0.001612   0.000369  -0.000836
     34      -0.130769  -0.002802   0.000247  -0.000505  -0.005500  -0.008473
     35      -0.211077  -0.004331  -0.001265  -0.000596  -0.000695  -0.000450
     36      -0.000285   0.000004   0.000598  -0.000858  -0.000530   0.003183
     37      -0.000025  -0.000009   0.001003  -0.011687  -0.007140   0.000118
     38      -0.000006  -0.000188  -0.002073   0.005595  -0.006831  -0.013709
     39      -0.000123   0.000361   0.007231  -0.036862  -0.022785  -0.006027
     40       0.000108  -0.000637  -0.014922   0.125658   0.077824   0.027691
     41       0.001850  -0.000030  -0.000902   0.000061  -0.007841  -0.008054
     42       0.002603   0.000562   0.002532   0.000953   0.030345   0.028113
     43      -0.000610   0.000717   0.004112  -0.006272   0.037246   0.035753
     44      -0.000672   0.001421   0.003250   0.007579   0.070958   0.056641
     45      -0.000028   0.000641  -0.017282   0.049420  -0.018951  -0.064555
     46       0.001445   0.000638  -0.012951   0.038916  -0.021386  -0.064963
     47       0.000938  -0.000393   0.028401  -0.086701   0.027707   0.118513
                 42         43         44         45         46         47    
      0       0.016500  -0.000299   0.009654  -0.000903   0.000016   0.000080
      1      -0.014441  -0.016404  -0.006532  -0.000893   0.000018  -0.000084
      2      -0.020543   0.007098  -0.014048  -0.001012  -0.000036  -0.000026
      3      -0.073203  -0.033821  -0.032258  -0.003937  -0.000184   0.000027
      4       0.336406   0.145740   0.155653   0.011220  -0.000462   0.000888
      5      -0.018340  -0.001221  -0.009695  -0.000225  -0.000235   0.000305
      6      -0.133406   0.036837  -0.075026  -0.004086   0.000011  -0.000021
      7      -0.153465   0.033985  -0.086445  -0.003067   0.000130  -0.000246
      8       0.274819  -0.075875   0.158123   0.006280  -0.000226   0.000317
      9       0.015120  -0.001164   0.005525  -0.000797  -0.000152   0.000041
     10      -0.007865  -0.004302  -0.001107   0.000296   0.000032   0.000064
     11      -0.021052   0.003656  -0.008986   0.001411   0.000003   0.000133
     12      -0.046651  -0.007145  -0.014054   0.001934   0.000764  -0.002898
     13       0.219376   0.029353   0.075946  -0.010512  -0.000499   0.005259
     14      -0.016573   0.001854  -0.006108   0.000935   0.000451  -0.001151
     15      -0.128204   0.021945  -0.054570   0.007352  -0.000980  -0.001842
     16      -0.142501   0.021263  -0.062095   0.008428  -0.000077  -0.001945
     17       0.266554  -0.046682   0.118273  -0.015999   0.000851   0.002603
     18       0.018057   0.000658   0.001486   0.000287   0.000911   0.001707
     19      -0.049219  -0.002752  -0.002616  -0.000472   0.002557  -0.001505
     20      -0.004369   0.000238  -0.000972  -0.000127  -0.000935  -0.000493
     21      -0.044227   0.000436  -0.006768  -0.000954  -0.002729  -0.001498
     22      -0.084226  -0.001717  -0.009153  -0.001204  -0.004051  -0.000665
     23       0.112839   0.000911   0.013859   0.002185  -0.001255   0.000622
     24      -0.170180  -0.009285  -0.010209  -0.001547   0.003092  -0.002978
     25       0.704220   0.036067   0.041796   0.006809  -0.010652   0.006293
     26      -0.045346  -0.002539  -0.003548  -0.000326   0.003105  -0.002574
     27      -0.000667  -0.000035  -0.000258  -0.000049   0.021143   0.065681
     28      -0.000680   0.000040   0.000081   0.000032   0.052036  -0.041985
     29      -0.001319  -0.000075  -0.000036  -0.000031   0.001394   0.005578
     30       0.002887   0.000176   0.001491  -0.000083  -0.491909  -0.858661
     31      -0.000103  -0.000020  -0.000218  -0.000072   0.102110   0.102334
     32      -0.000262   0.000025   0.000197  -0.000009  -0.039221  -0.049406
     33       0.001166   0.000233   0.000700   0.000042   0.188980  -0.066530
     34      -0.013157  -0.000903  -0.001458  -0.000252  -0.840362   0.488435
     35      -0.000963   0.000131  -0.000049   0.000204   0.028526  -0.023833
     36      -0.002341  -0.005953   0.013904  -0.042061   0.000009   0.000000
     37       0.010368  -0.078442  -0.032026  -0.011863  -0.000008   0.000041
     38       0.015842   0.035053  -0.072782  -0.023474   0.000016  -0.000019
     39       0.033576  -0.206185  -0.107990   0.086052  -0.000029  -0.000204
     40      -0.127221   0.745866   0.424402  -0.400430  -0.000073   0.000507
     41       0.012845  -0.007804  -0.054699   0.001596   0.000050  -0.000203
     42      -0.050991   0.016763   0.208566   0.259399  -0.000078   0.000352
     43      -0.061141  -0.015694   0.254566   0.361898  -0.000048   0.000264
     44      -0.112173   0.068930   0.451699   0.654824  -0.000147   0.000488
     45       0.054469   0.261049  -0.270550   0.174531  -0.000075  -0.000226
     46       0.059999   0.219711  -0.290314   0.180842  -0.000060  -0.000034
     47      -0.096148  -0.485338   0.485757  -0.372565   0.000070   0.000150


-----------
IR SPECTRUM  
-----------

 Mode    freq (cm**-1)   T**2         TX         TY         TZ
-------------------------------------------------------------------
   6:        88.58    0.000000  (  0.000000   0.000000   0.000000)
   7:       113.15    0.000000  (  0.000000   0.000000   0.000000)
   8:       191.15    0.000000  (  0.000000   0.000000   0.000000)
   9:       222.68    0.000000  (  0.000000   0.000000   0.000000)
  10:       254.45    0.000000  (  0.000000   0.000000   0.000000)
  11:       392.76    0.000000  (  0.000000   0.000000   0.000000)
  12:       411.08    0.000000  (  0.000000   0.000000   0.000000)
  13:       770.88    0.000000  (  0.000000   0.000000   0.000000)
  14:       823.65    0.000000  (  0.000000   0.000000   0.000000)
  15:       919.92    0.000000  (  0.000000   0.000000   0.000000)
  16:       932.23    0.000000  (  0.000000   0.000000   0.000000)
  17:       979.66    0.000000  (  0.000000   0.000000   0.000000)
  18:      1002.21    0.000000  (  0.000000   0.000000   0.000000)
  19:      1062.02    0.000000  (  0.000000   0.000000   0.000000)
  20:      1095.22    0.000000  (  0.000000   0.000000   0.000000)
  21:      1121.54    0.000000  (  0.000000   0.000000   0.000000)
  22:      1150.72    0.000000  (  0.000000   0.000000   0.000000)
  23:      1202.33    0.000000  (  0.000000   0.000000   0.000000)
  24:      1235.87    0.000000  (  0.000000   0.000000   0.000000)
  25:      1274.13    0.000000  (  0.000000   0.000000   0.000000)
  26:      1279.83    0.000000  (  0.000000   0.000000   0.000000)
  27:      1292.59    0.000000  (  0.000000   0.000000   0.000000)
  28:      1351.42    0.000000  (  0.000000   0.000000   0.000000)
  29:      1379.95    0.000000  (  0.000000   0.000000   0.000000)
  30:      1430.76    0.000000  (  0.000000   0.000000   0.000000)
  31:      1494.68    0.000000  (  0.000000   0.000000   0.000000)
  32:      1503.92    0.000000  (  0.000000   0.000000   0.000000)
  33:      1506.47    0.000000  (  0.000000   0.000000   0.000000)
  34:      1507.05    0.000000  (  0.000000   0.000000   0.000000)
  35:      1511.92    0.000000  (  0.000000   0.000000   0.000000)
  36:      1567.78    0.000000  (  0.000000   0.000000   0.000000)
  37:      2860.51    0.000000  (  0.000000   0.000000   0.000000)
  38:      2930.11    0.000000  (  0.000000   0.000000   0.000000)
  39:      2942.18    0.000000  (  0.000000   0.000000   0.000000)
  40:      2961.80    0.000000  (  0.000000   0.000000   0.000000)
  41:      2964.92    0.000000  (  0.000000   0.000000   0.000000)
  42:      2968.32    0.000000  (  0.000000   0.000000   0.000000)
  43:      2978.53    0.000000  (  0.000000   0.000000   0.000000)
  44:      2984.47    0.000000  (  0.000000   0.000000   0.000000)
  45:      2997.05    0.000000  (  0.000000   0.000000   0.000000)
  46:      3390.29    0.000000  (  0.000000   0.000000   0.000000)
  47:      3411.15    0.000000  (  0.000000   0.000000   0.000000)

The first frequency considered to be a vibration is 6
The total number of vibrations considered is 42


--------------------------
THERMOCHEMISTRY AT 298.15K
--------------------------

Temperature         ... 298.15 K
Pressure            ... 1.00 atm
Total Mass          ... 73.14 AMU

Throughout the following assumptions are being made:
  (1) The electronic state is orbitally nondegenerate
  (2) There are no thermally accessible electronically excited states
  (3) Hindered rotations indicated by low frequency modes are not
      treated as such but are treated as vibrations and this may
      cause some error
  (4) All equations used are the standard statistical mechanics
      equations for an ideal gas
  (5) All vibrations are strictly harmonic

freq.      88.58  E(vib)   ...       0.47 
freq.     113.15  E(vib)   ...       0.45 
freq.     191.15  E(vib)   ...       0.36 
freq.     222.68  E(vib)   ...       0.33 
freq.     254.45  E(vib)   ...       0.30 
freq.     392.76  E(vib)   ...       0.20 
freq.     411.08  E(vib)   ...       0.19 
freq.     770.88  E(vib)   ...       0.05 
freq.     823.65  E(vib)   ...       0.05 
freq.     919.92  E(vib)   ...       0.03 
freq.     932.23  E(vib)   ...       0.03 
freq.     979.66  E(vib)   ...       0.03 
freq.    1002.21  E(vib)   ...       0.02 
freq.    1062.02  E(vib)   ...       0.02 
freq.    1095.22  E(vib)   ...       0.02 
freq.    1121.54  E(vib)   ...       0.01 
freq.    1150.72  E(vib)   ...       0.01 
freq.    1202.33  E(vib)   ...       0.01 
freq.    1235.87  E(vib)   ...       0.01 
freq.    1274.13  E(vib)   ...       0.01 
freq.    1279.83  E(vib)   ...       0.01 
freq.    1292.59  E(vib)   ...       0.01 
freq.    1351.42  E(vib)   ...       0.01 
freq.    1379.95  E(vib)   ...       0.01 
freq.    1430.76  E(vib)   ...       0.00 
freq.    1494.68  E(vib)   ...       0.00 
freq.    1503.92  E(vib)   ...       0.00 
freq.    1506.47  E(vib)   ...       0.00 
freq.    1507.05  E(vib)   ...       0.00 
freq.    1511.92  E(vib)   ...       0.00 
freq.    1567.78  E(vib)   ...       0.00 
freq.    2860.51  E(vib)   ...       0.00 
freq.    2930.11  E(vib)   ...       0.00 
freq.    2942.18  E(vib)   ...       0.00 
freq.    2961.80  E(vib)   ...       0.00 
freq.    2964.92  E(vib)   ...       0.00 
freq.    2968.32  E(vib)   ...       0.00 
freq.    2978.53  E(vib)   ...       0.00 
freq.    2984.47  E(vib)   ...       0.00 
freq.    2997.05  E(vib)   ...       0.00 
freq.    3390.29  E(vib)   ...       0.00 
freq.    3411.15  E(vib)   ...       0.00 

------------
INNER ENERGY
------------

The inner energy is: U= E(el) + E(ZPE) + E(vib) + E(rot) + E(trans)
    E(el)   - is the total energy from the electronic structure calculation
              = E(kin-el) + E(nuc-el) + E(el-el) + E(nuc-nuc)
    E(ZPE)  - the the zero temperature vibrational energy from the frequency calculation
    E(vib)  - the the finite temperature correction to E(ZPE) due to population
              of excited vibrational states
    E(rot)  - is the rotational thermal energy
    E(trans)- is the translational thermal energy

Summary of contributions to the inner energy U:
Electronic energy                ...    -17.08923087 Eh
Zero point energy                ...      0.14685055 Eh      92.15 kcal/mol
Thermal vibrational correction   ...      0.00421267 Eh       2.64 kcal/mol
Thermal rotational correction    ...      0.00141627 Eh       0.89 kcal/mol
Thermal translational correction ...      0.00141627 Eh       0.89 kcal/mol
-----------------------------------------------------------------------
Total thermal energy                    -16.93533511 Eh


Summary of corrections to the electronic energy:
(perhaps to be used in another calculation)
Total thermal correction                  0.00704521 Eh       4.42 kcal/mol
Non-thermal (ZPE) correction              0.14685055 Eh      92.15 kcal/mol
-----------------------------------------------------------------------
Total correction                          0.15389576 Eh      96.57 kcal/mol


--------
ENTHALPY
--------

The enthalpy is H = U + kB*T
                kB is Boltzmann's constant
Total free energy                 ...    -16.93533511 Eh 
Thermal Enthalpy correction       ...      0.00094421 Eh       0.59 kcal/mol
-----------------------------------------------------------------------
Total Enthalpy                    ...    -16.93439090 Eh


Note: Only C1 symmetry has been detected, increase convergence thresholds 
      if your molecule has a higher symmetry. Symmetry factor of 1.0 is   
      used for the rotational entropy correction. 
 

Note: Rotational entropy computed according to Herzberg 
Infrared and Raman Spectra, Chapter V,1, Van Nostrand Reinhold, 1945 
Point Group:  C1, Symmetry Number:   1  
Rotational constants in cm-1:     0.606387     0.065302     0.061944 

Vibrational entropy computed according to the QRRHO of S. Grimme
Chem.Eur.J. 2012 18 9955


-------
ENTROPY
-------

The entropy contributions are T*S = T*(S(el)+S(vib)+S(rot)+S(trans))
     S(el)   - electronic entropy
     S(vib)  - vibrational entropy
     S(rot)  - rotational entropy
     S(trans)- translational entropy
The entropies will be listed as mutliplied by the temperature to get
units of energy

Electronic entropy                ...      0.00000000 Eh      0.00 kcal/mol
Vibrational entropy               ...      0.00734594 Eh      4.61 kcal/mol
Rotational entropy                ...      0.01234831 Eh      7.75 kcal/mol
Translational entropy             ...      0.01842822 Eh     11.56 kcal/mol
-----------------------------------------------------------------------
Final entropy term                ...      0.03812247 Eh     23.92 kcal/mol

In case the symmetry of your molecule has not been determined correctly
or in case you have a reason to use a different symmetry number we print 
out the resulting rotational entropy values for sn=1,12 :
 --------------------------------------------------------
|  sn= 1 | S(rot)=       0.01234831 Eh      7.75 kcal/mol|
|  sn= 2 | S(rot)=       0.01169385 Eh      7.34 kcal/mol|
|  sn= 3 | S(rot)=       0.01131102 Eh      7.10 kcal/mol|
|  sn= 4 | S(rot)=       0.01103940 Eh      6.93 kcal/mol|
|  sn= 5 | S(rot)=       0.01082871 Eh      6.80 kcal/mol|
|  sn= 6 | S(rot)=       0.01065656 Eh      6.69 kcal/mol|
|  sn= 7 | S(rot)=       0.01051102 Eh      6.60 kcal/mol|
|  sn= 8 | S(rot)=       0.01038494 Eh      6.52 kcal/mol|
|  sn= 9 | S(rot)=       0.01027373 Eh      6.45 kcal/mol|
|  sn=10 | S(rot)=       0.01017425 Eh      6.38 kcal/mol|
|  sn=11 | S(rot)=       0.01008426 Eh      6.33 kcal/mol|
|  sn=12 | S(rot)=       0.01000211 Eh      6.28 kcal/mol|
 --------------------------------------------------------


-------------------
GIBBS FREE ENERGY
-------------------

The Gibbs free energy is G = H - T*S

Total enthalpy                    ...    -16.93439090 Eh 
Total entropy correction          ...     -0.03812247 Eh    -23.92 kcal/mol
-----------------------------------------------------------------------
Final Gibbs free energy         ...    -16.97251337 Eh

For completeness - the Gibbs free energy minus the electronic energy
G-E(el)                           ...      0.11671750 Eh     73.24 kcal/mol


Total Time for Numerical Frequencies  :        28.306 sec
Time for Reference State(s)           :         0.133 sec
Time for Displacements                :        24.789 sec

Timings for individual modules:

Sum of individual times         ...        0.284 sec (=   0.005 min)
XTB module                      ...        0.284 sec (=   0.005 min) 100.0 %
                             ****ORCA TERMINATED NORMALLY****
TOTAL RUN TIME: 0 days 0 hours 0 minutes 29 seconds 474 msec
