SLURM_JOB_ID=126

                                 *****************
                                 * O   R   C   A *
                                 *****************

           --- An Ab Initio, DFT and Semiempirical electronic structure package ---

                  #######################################################
                  #                        -***-                        #
                  #          Department of theory and spectroscopy      #
                  #               Directorship: Frank Neese             #
                  #        Max Planck Institute fuer Kohlenforschung    #
                  #                Kaiser Wilhelm Platz 1               #
                  #                 D-45470 Muelheim/Ruhr               #
                  #                      Germany                        #
                  #                                                     #
                  #                  All rights reserved                #
                  #                        -***-                        #
                  #######################################################


                         Program Version 4.2.1 -  RELEASE  -


 With contributions from (in alphabetic order):
   Daniel Aravena         : Magnetic Suceptibility
   Michael Atanasov       : Ab Initio Ligand Field Theory (pilot matlab implementation)
   Alexander A. Auer      : GIAO ZORA, VPT2
   Ute Becker             : Parallelization
   Giovanni Bistoni       : ED, misc. LED, open-shell LED, HFLD
   Martin Brehm           : Molecular dynamics
   Dmytro Bykov           : SCF Hessian
   Vijay G. Chilkuri      : MRCI spin determinant printing, contributions to CSF-ICE
   Dipayan Datta          : RHF DLPNO-CCSD density
   Achintya Kumar Dutta   : EOM-CC, STEOM-CC
   Dmitry Ganyushin       : Spin-Orbit,Spin-Spin,Magnetic field MRCI
   Miquel Garcia          : C-PCM Hessian, Gaussian charge scheme
   Yang Guo               : DLPNO-NEVPT2, CIM, IAO-localization
   Andreas Hansen         : Spin unrestricted coupled pair/coupled cluster methods
   Benjamin Helmich-Paris : CASSCF linear response (MC-RPA)
   Lee Huntington         : MR-EOM, pCC
   Robert Izsak           : Overlap fitted RIJCOSX, COSX-SCS-MP3, EOM
   Christian Kollmar      : KDIIS, OOCD, Brueckner-CCSD(T), CCSD density
   Simone Kossmann        : Meta GGA functionals, TD-DFT gradient, OOMP2, MP2 Hessian
   Martin Krupicka        : AUTO-CI
   Lucas Lang             : DCDCAS
   Dagmar Lenk            : GEPOL surface, SMD
   Dimitrios Liakos       : Extrapolation schemes; Compound Job, initial MDCI parallelization
   Dimitrios Manganas     : Further ROCIS development; embedding schemes
   Dimitrios Pantazis     : SARC Basis sets
   Taras Petrenko         : DFT Hessian,TD-DFT gradient, ASA, ECA, R-Raman, ABS, FL, XAS/XES, NRVS
   Peter Pinski           : DLPNO-MP2, DLPNO-MP2 Gradient
   Christoph Reimann      : Effective Core Potentials
   Marius Retegan         : Local ZFS, SOC
   Christoph Riplinger    : Optimizer, TS searches, QM/MM, DLPNO-CCSD(T), (RO)-DLPNO pert. Triples
   Tobias Risthaus        : Range-separated hybrids, TD-DFT gradient, RPA, STAB
   Michael Roemelt        : Original ROCIS implementation
   Masaaki Saitow         : Open-shell DLPNO-CCSD energy and density
   Barbara Sandhoefer     : DKH picture change effects
   Avijit Sen             : IP-ROCIS
   Kantharuban Sivalingam : CASSCF convergence, NEVPT2, FIC-MRCI
   Bernardo de Souza      : ESD, SOC TD-DFT
   Georgi Stoychev        : AutoAux, RI-MP2 NMR
   Willem Van den Heuvel  : Paramagnetic NMR
   Boris Wezisla          : Elementary symmetry handling
   Frank Wennmohs         : Technical directorship


 We gratefully acknowledge several colleagues who have allowed us to
 interface, adapt or use parts of their codes:
   Stefan Grimme, W. Hujo, H. Kruse,             : VdW corrections, initial TS optimization,
                  C. Bannwarth                     DFT functionals, gCP, sTDA/sTD-DF
   Ed Valeev, F. Pavosevic, A. Kumar             : LibInt (2-el integral package), F12 methods
   Garnet Chan, S. Sharma, J. Yang, R. Olivares  : DMRG
   Ulf Ekstrom                                   : XCFun DFT Library
   Mihaly Kallay                                 : mrcc  (arbitrary order and MRCC methods)
   Andreas Klamt, Michael Diedenhofen            : otool_cosmo (COSMO solvation model)
   Jiri Pittner, Ondrej Demel                    : Mk-CCSD
   Frank Weinhold                                : gennbo (NPA and NBO analysis)
   Christopher J. Cramer and Donald G. Truhlar   : smd solvation model
   Lars Goerigk                                  : TD-DFT with DH, B97 family of functionals
   V. Asgeirsson, H. Jonsson                     : NEB implementation
   FAccTs GmbH                                   : IRC, NEB, NEB-TS, Multilevel, MM, QM/MM, CI optimization
   S Lehtola, MJT Oliveira, MAL Marques          : LibXC Library


 Your calculation uses the libint2 library for the computation of 2-el integrals
 For citations please refer to: http://libint.valeyev.net

 Your ORCA version has been built with support for libXC version: 4.2.3
 For citations please refer to: https://tddft.org/programs/libxc/

 This ORCA versions uses:
   CBLAS   interface :  Fast vector & matrix operations
   LAPACKE interface :  Fast linear algebra routines
   SCALAPACK package :  Parallel linear algebra routines




***************************************
The coordinates will be read from file: init.xyz
***************************************


Your calculation utilizes the atom-pairwise dispersion correction
based on tight binding partial charges (D4)
Cite in your paper:
E.Caldeweyher, C.Bannwarth, S.Grimme, J.Chem.Phys., (2017), 147, 034112.
E.Caldeweyher, S.Ehlert, A.Hansen, H.Neugebauer, S.Grimme, J.Chem.Phys., (2018), in progress.
   

Your calculation utilizes the SMD solvation module
Please cite in your paper:
A.V. Marenich, C.J. Cramer, D.G. Truhlar J. Phys. Chem. B, 113, (2009), 6378 

----- Orbital basis set information -----
Your calculation utilizes the basis: def2-TZVP
   F. Weigend and R. Ahlrichs, Phys. Chem. Chem. Phys. 7, 3297 (2005).

----- AuxJ basis set information -----
Your calculation utilizes the auxiliary basis: def2/J
   F. Weigend, Phys. Chem. Chem. Phys. 8, 1057 (2006).

================================================================================
                                        WARNINGS
                       Please study these warnings very carefully!
================================================================================


WARNING: Geometry Optimization
  ===> : Switching off AutoStart
         For restart on a previous wavefunction, please use MOREAD

INFO   : the flag for use of LIBINT has been found!

================================================================================
                                       INPUT FILE
================================================================================
NAME = /tmp/slurm-scratch/opt+freq.126/opt+freq.inp
|  1> ! BLYP D4 def2-TZVP RI def2/J Opt Freq TightSCF Grid4 FinalGrid5 PrintBasis PrintMOs
|  2> %maxcore 1150
|  3> 
|  4> * xyzfile 0 1 init.xyz
|  5> 
|  6> %cpcm
|  7>  smd true
|  8>  smdsolvent "dichloromethane"
|  9> end
| 10> 
| 11> %geom
| 12>  maxiter 30
| 13>  trust 0.2
| 14>  inhess read
| 15>  inhessname "freq.hess"
| 16> end
| 17> %pal nprocs 11 end
| 18> 
| 19>                          ****END OF INPUT****
================================================================================

                       *****************************
                       * Geometry Optimization Run *
                       *****************************

Geometry optimization settings:
Update method            Update   .... BFGS
Choice of coordinates    CoordSys .... Z-matrix Internals
Initial Hessian          InHess   .... Read

Convergence Tolerances:
Energy Change            TolE     ....  5.0000e-06 Eh
Max. Gradient            TolMAXG  ....  3.0000e-04 Eh/bohr
RMS Gradient             TolRMSG  ....  1.0000e-04 Eh/bohr
Max. Displacement        TolMAXD  ....  4.0000e-03 bohr
RMS Displacement         TolRMSD  ....  2.0000e-03 bohr
Strict Convergence                ....  False
------------------------------------------------------------------------------
                        ORCA OPTIMIZATION COORDINATE SETUP
------------------------------------------------------------------------------

The optimization will be done in new redundant internal coordinates
Making redundant internal coordinates   ...  (new redundants) done
Evaluating the initial hessian          ... (Reading Exact Hessian)...  
InHessName: freq.hess	The file <freq.hess> is opened as a .hess file
done
done
Diagonalizing the Hessian               .... done
Dimension of the hessian                .... 75
Lowest eigenvalues of the non projected Hessian:
 -0.000000000 -0.000000000 -0.000000000 -0.000000000 -0.000000000
done
Evaluating the coordinates              ...  done
Calculating the B-matrix                .... done
Calculating the G-matrix                .... done
Diagonalizing the G-matrix              .... done
Small eigenvalue found = 2.673e-02
The first mode is                       ....   33
The number of degrees of freedom        ....   42

    -----------------------------------------------------------------
                    Redundant Internal Coordinates


    -----------------------------------------------------------------
         Definition                    Initial Value    d2E/dq (diagonal element)
    -----------------------------------------------------------------
      1. B(H   1,C   0)                  1.0944         0.311347   
      2. B(H   2,C   0)                  1.0943         0.311406   
      3. B(C   3,C   0)                  1.5272         0.306235   
      4. B(H   4,C   3)                  1.0960         0.308067   
      5. B(H   5,C   3)                  1.0942         0.313057   
      6. B(C   6,C   3)                  1.5226         0.309886   
      7. B(H   7,C   6)                  1.0989         0.293609   
      8. B(H   8,C   6)                  1.0931         0.313833   
      9. B(N   9,C   6)                  1.4699         0.323442   
     10. B(H  10,N   9)                  1.0144         0.414832   
     11. B(H  11,N   9)                  1.0153         0.412418   
     12. B(C  12,C   0)                  1.5262         0.310665   
     13. B(H  13,C  12)                  1.0928         0.317217   
     14. B(H  14,C  12)                  1.0919         0.319227   
     15. B(H  15,C  12)                  1.0928         0.317622   
     16. A(H   1,C   0,C  12)          109.4296         0.045770   
     17. A(H   2,C   0,C  12)          109.3918         0.045802   
     18. A(H   2,C   0,C   3)          109.3059         0.046008   
     19. A(H   1,C   0,C   3)          109.2170         0.045621   
     20. A(H   1,C   0,H   2)          106.2928         0.017740   
     21. A(C   3,C   0,C  12)          112.9833         0.122378   
     22. A(C   0,C   3,C   6)          113.2294         0.119533   
     23. A(H   4,C   3,H   5)          106.4965         0.017627   
     24. A(C   0,C   3,H   5)          109.8564         0.044459   
     25. A(H   5,C   3,C   6)          108.8110         0.045133   
     26. A(C   0,C   3,H   4)          109.2630         0.044921   
     27. A(H   4,C   3,C   6)          108.9594         0.045856   
     28. A(H   8,C   6,N   9)          107.8207         0.047090   
     29. A(H   7,C   6,N   9)          112.8985         0.052469   
     30. A(H   7,C   6,H   8)          106.6969         0.020675   
     31. A(C   3,C   6,H   8)          109.3673         0.051775   
     32. A(C   3,C   6,H   7)          108.9912         0.054606   
     33. A(C   3,C   6,N   9)          110.9285         0.132646   
     34. A(H  10,N   9,H  11)          105.6461         0.048826   
     35. A(C   6,N   9,H  11)          109.2434         0.134557   
     36. A(C   6,N   9,H  10)          109.6620         0.131531   
     37. A(H  13,C  12,H  15)          107.5785         0.051837   
     38. A(C   0,C  12,H  15)          111.1438         0.100984   
     39. A(H  13,C  12,H  14)          107.6709         0.051741   
     40. A(C   0,C  12,H  14)          111.4759         0.099758   
     41. A(H  14,C  12,H  15)          107.6681         0.051591   
     42. A(C   0,C  12,H  13)          111.1191         0.102259   
     43. D(C   6,C   3,C   0,H   1)     58.2927         0.013526   
     44. D(C   6,C   3,C   0,H   2)    -57.6142         0.013552   
     45. D(H   4,C   3,C   0,H   1)    179.9289         0.014707   
     46. D(H   4,C   3,C   0,H   2)     64.0220         0.015076   
     47. D(H   4,C   3,C   0,C  12)    -58.0323         0.014059   
     48. D(H   5,C   3,C   0,H   1)    -63.5827         0.014905   
     49. D(H   5,C   3,C   0,H   2)   -179.4897         0.014576   
     50. D(C   6,C   3,C   0,C  12)   -179.6685         0.013035   
     51. D(H   5,C   3,C   0,C  12)     58.4560         0.013877   
     52. D(H   8,C   6,C   3,H   4)    177.9457         0.014646   
     53. D(H   8,C   6,C   3,C   0)    -60.2479         0.013866   
     54. D(H   7,C   6,C   3,H   5)    178.5093         0.014655   
     55. D(H   8,C   6,C   3,H   5)     62.2108         0.015168   
     56. D(H   7,C   6,C   3,H   4)    -65.7557         0.015283   
     57. D(H   7,C   6,C   3,C   0)     56.0506         0.013968   
     58. D(N   9,C   6,C   3,H   5)    -56.5883         0.015065   
     59. D(N   9,C   6,C   3,H   4)     59.1466         0.015060   
     60. D(N   9,C   6,C   3,C   0)   -179.0470         0.014981   
     61. D(H  11,N   9,C   6,H   8)    174.8615         0.018427   
     62. D(H  11,N   9,C   6,H   7)     57.2556         0.017663   
     63. D(H  11,N   9,C   6,C   3)    -65.4108         0.014968   
     64. D(H  10,N   9,C   6,H   8)     59.5163         0.017575   
     65. D(H  10,N   9,C   6,H   7)    -58.0896         0.017337   
     66. D(H  10,N   9,C   6,C   3)    179.2439         0.015051   
     67. D(H  14,C  12,C   0,C   3)   -179.9994         0.014696   
     68. D(H  14,C  12,C   0,H   2)     57.9945         0.014945   
     69. D(H  14,C  12,C   0,H   1)    -58.0800         0.014915   
     70. D(H  13,C  12,C   0,C   3)     59.8918         0.014125   
     71. D(H  13,C  12,C   0,H   2)    -62.1143         0.015286   
     72. D(H  15,C  12,C   0,H   1)     62.0420         0.015269   
     73. D(H  13,C  12,C   0,H   1)   -178.1889         0.015099   
     74. D(H  15,C  12,C   0,C   3)    -59.8774         0.014138   
     75. D(H  15,C  12,C   0,H   2)    178.1165         0.015135   
    -----------------------------------------------------------------

Number of atoms                         .... 16
Number of degrees of freedom            .... 75

         *************************************************************
         *                GEOMETRY OPTIMIZATION CYCLE   1            *
         *************************************************************
---------------------------------
CARTESIAN COORDINATES (ANGSTROEM)
---------------------------------
  C     -3.545178   -1.082295    0.001813
  H     -3.275739   -2.143019    0.004994
  H     -3.090882   -0.652846   -0.896312
  C     -2.952900   -0.409507    1.238279
  H     -3.221211    0.653088    1.235190
  H     -3.394676   -0.838891    2.142579
  C     -1.438017   -0.536974    1.323742
  H     -0.992570   -0.130805    0.404953
  H     -1.164937   -1.594663    1.364192
  N     -0.924782    0.107016    2.541306
  H      0.082996    0.000049    2.585125
  H     -1.091884    1.106950    2.486822
  C     -5.062747   -0.944230   -0.082401
  H     -5.361074    0.106408   -0.119602
  H     -5.459751   -1.433272   -0.974244
  H     -5.548350   -1.394610    0.786765

----------------------------
CARTESIAN COORDINATES (A.U.)
----------------------------
  NO LB      ZA    FRAG     MASS         X           Y           Z
   0 C     6.0000    0    12.011   -6.699415   -2.045240    0.003426
   1 H     1.0000    0     1.008   -6.190250   -4.049719    0.009438
   2 H     1.0000    0     1.008   -5.840921   -1.233700   -1.693784
   3 C     6.0000    0    12.011   -5.580172   -0.773857    2.340007
   4 H     1.0000    0     1.008   -6.087206    1.234158    2.334171
   5 H     1.0000    0     1.008   -6.415008   -1.585274    4.048887
   6 C     6.0000    0    12.011   -2.717458   -1.014733    2.501510
   7 H     1.0000    0     1.008   -1.875685   -0.247185    0.765250
   8 H     1.0000    0     1.008   -2.201411   -3.013477    2.577949
   9 N     7.0000    0    14.007   -1.747585    0.202232    4.802373
  10 H     1.0000    0     1.008    0.156840    0.000092    4.885178
  11 H     1.0000    0     1.008   -2.063361    2.091832    4.699412
  12 C     6.0000    0    12.011   -9.567204   -1.784337   -0.155716
  13 H     1.0000    0     1.008  -10.130961    0.201083   -0.226015
  14 H     1.0000    0     1.008  -10.317434   -2.708492   -1.841055
  15 H     1.0000    0     1.008  -10.484863   -2.635431    1.486770

--------------------------------
INTERNAL COORDINATES (ANGSTROEM)
--------------------------------
 C      0   0   0     0.000000000000     0.00000000     0.00000000
 H      1   0   0     1.094414881360     0.00000000     0.00000000
 H      1   2   0     1.094275319854   106.29279030     0.00000000
 C      1   2   3     1.527181289806   109.21699201   242.18289010
 H      4   1   2     1.095951687054   109.26299630   179.92889124
 H      4   1   2     1.094209656537   109.85641232   296.41726079
 C      4   1   2     1.522636660070   113.22940721    58.29273213
 H      7   4   1     1.098894595030   108.99124884    56.05062704
 H      7   4   1     1.093122234234   109.36726245   299.75205728
 N      7   4   1     1.469896703044   110.92846990   180.95299863
 H     10   7   4     1.014385969527   109.66199979   179.24391750
 H     10   7   4     1.015262605633   109.24343367   294.58916047
 C      1   2   3     1.526161549267   109.42961652   118.02826331
 H     13   1   2     1.092805837789   111.11908878   181.81114003
 H     13   1   2     1.091860060237   111.47588063   301.91995448
 H     13   1   2     1.092750340499   111.14375236    62.04195681

---------------------------
INTERNAL COORDINATES (A.U.)
---------------------------
 C      0   0   0     0.000000000000     0.00000000     0.00000000
 H      1   0   0     2.068144402659     0.00000000     0.00000000
 H      1   2   0     2.067880669633   106.29279030     0.00000000
 C      1   2   3     2.885954394581   109.21699201   242.18289010
 H      4   1   2     2.071048544541   109.26299630   179.92889124
 H      4   1   2     2.067756583947   109.85641232   296.41726079
 C      4   1   2     2.877366289002   113.22940721    58.29273213
 H      7   4   1     2.076609834653   108.99124884    56.05062704
 H      7   4   1     2.065701653602   109.36726245   299.75205728
 N      7   4   1     2.777702213907   110.92846990   180.95299863
 H     10   7   4     1.916911676498   109.66199979   179.24391750
 H     10   7   4     1.918568278658   109.24343367   294.58916047
 C      1   2   3     2.884027364235   109.42961652   118.02826331
 H     13   1   2     2.065103750972   111.11908878   181.81114003
 H     13   1   2     2.063316490414   111.47588063   301.91995448
 H     13   1   2     2.064998876293   111.14375236    62.04195681

---------------------
BASIS SET INFORMATION
---------------------
There are 3 groups of distinct atoms

 Group   1 Type C   : 11s6p2d1f contracted to 5s3p2d1f pattern {62111/411/11/1}
 Group   2 Type H   : 5s1p contracted to 3s1p pattern {311/1}
 Group   3 Type N   : 11s6p2d1f contracted to 5s3p2d1f pattern {62111/411/11/1}

Atom   0C    basis set group =>   1
Atom   1H    basis set group =>   2
Atom   2H    basis set group =>   2
Atom   3C    basis set group =>   1
Atom   4H    basis set group =>   2
Atom   5H    basis set group =>   2
Atom   6C    basis set group =>   1
Atom   7H    basis set group =>   2
Atom   8H    basis set group =>   2
Atom   9N    basis set group =>   3
Atom  10H    basis set group =>   2
Atom  11H    basis set group =>   2
Atom  12C    basis set group =>   1
Atom  13H    basis set group =>   2
Atom  14H    basis set group =>   2
Atom  15H    basis set group =>   2

-------------------------
BASIS SET IN INPUT FORMAT
-------------------------

 # Basis set for element : H 
 NewGTO H 
 S 3 
   1      34.0613410000      0.0254393072
   2       5.1235746000      0.1900859489
   3       1.1646626000      0.8524411301
 S 1 
   1       0.3272304100      1.0000000000
 S 1 
   1       0.1030724100      1.0000000000
 P 1 
   1       0.8000000000      1.0000000000
  end;

 # Basis set for element : C 
 NewGTO C 
 S 6 
   1   13575.3496820000      0.0006064549
   2    2035.2333680000      0.0046979088
   3     463.2256235900      0.0243324776
   4     131.2001959800      0.0973999683
   5      42.8530158910      0.3019558425
   6      15.5841857660      0.6623360915
 S 2 
   1       6.2067138508      0.6559530854
   2       2.5764896527      0.3758563329
 S 1 
   1       0.5769633942      1.0000000000
 S 1 
   1       0.2297283136      1.0000000000
 S 1 
   1       0.0951644400      1.0000000000
 P 4 
   1      34.6972322440      0.0113272200
   2       7.9582622826      0.0761696592
   3       2.3780826883      0.3019225220
   4       0.8143320818      0.7278502735
 P 1 
   1       0.2888754725      1.0000000000
 P 1 
   1       0.1005682367      1.0000000000
 D 1 
   1       1.0970000000      1.0000000000
 D 1 
   1       0.3180000000      1.0000000000
 F 1 
   1       0.7610000000      1.0000000000
  end;

 # Basis set for element : N 
 NewGTO N 
 S 6 
   1   19730.8006470000      0.0005862639
   2    2957.8958745000      0.0045428821
   3     673.2213359500      0.0235584136
   4     190.6824949400      0.0947091933
   5      62.2954418980      0.2971978492
   6      22.6541611820      0.6691624689
 S 2 
   1       8.9791477428      0.6459668363
   2       3.6863002370      0.3870057440
 S 1 
   1       0.8466007680      1.0000000000
 S 1 
   1       0.3364713377      1.0000000000
 S 1 
   1       0.1364765367      1.0000000000
 P 4 
   1      49.2003805100      0.0114488252
   2      11.3467905370      0.0784223379
   3       3.4273972411      0.3081809474
   4       1.1785525134      0.7202719637
 P 1 
   1       0.4164220497      1.0000000000
 P 1 
   1       0.1426082601      1.0000000000
 D 1 
   1       1.6540000000      1.0000000000
 D 1 
   1       0.4690000000      1.0000000000
 F 1 
   1       1.0930000000      1.0000000000
  end;

---------------------------------
AUXILIARY/J BASIS SET INFORMATION
---------------------------------
There are 3 groups of distinct atoms

 Group   1 Type C   : 12s5p4d2f1g contracted to 6s4p3d1f1g pattern {711111/2111/211/2/1}
 Group   2 Type H   : 5s2p1d contracted to 3s1p1d pattern {311/2/1}
 Group   3 Type N   : 12s5p4d2f1g contracted to 6s4p3d1f1g pattern {711111/2111/211/2/1}

Atom   0C    basis set group =>   1
Atom   1H    basis set group =>   2
Atom   2H    basis set group =>   2
Atom   3C    basis set group =>   1
Atom   4H    basis set group =>   2
Atom   5H    basis set group =>   2
Atom   6C    basis set group =>   1
Atom   7H    basis set group =>   2
Atom   8H    basis set group =>   2
Atom   9N    basis set group =>   3
Atom  10H    basis set group =>   2
Atom  11H    basis set group =>   2
Atom  12C    basis set group =>   1
Atom  13H    basis set group =>   2
Atom  14H    basis set group =>   2
Atom  15H    basis set group =>   2

-------------------------------------
AUXILIARY/J BASIS SET IN INPUT FORMAT
-------------------------------------

 # Auxiliary/J basis set for element : H 
 NewAuxJGTO H 
 S 3 
   1      15.6752927000      0.1007184237
   2       3.6063578000      0.3404257499
   3       1.2080016000      0.6491996172
 S 1 
   1       0.4726794000      1.0000000000
 S 1 
   1       0.2018100000      1.0000000000
 P 2 
   1       2.0281365000      0.5596620919
   2       0.5358730000      0.5596620919
 D 1 
   1       2.2165124000      1.0000000000
  end;

 # Auxiliary/J basis set for element : C 
 NewAuxJGTO C 
 S 7 
   1    1861.0916331000      0.0134602335
   2     642.9939764000      0.0299160374
   3     235.1105725000      0.1008649584
   4      90.7028894000      0.2370970548
   5      36.7794552000      0.3924037254
   6      15.6046273000      0.3195862154
   7       6.8907294000      0.0530104441
 S 1 
   1       3.1478850000     -1.0000000000
 S 1 
   1       1.4777287000      1.0000000000
 S 1 
   1       0.7076466000      1.0000000000
 S 1 
   1       0.3430122000      1.0000000000
 S 1 
   1       0.1669453000      1.0000000000
 P 2 
   1      13.5472892000     -0.6769313712
   2       5.4669419000     -0.3779500978
 P 1 
   1       2.1751721000      1.0000000000
 P 1 
   1       0.8582194000      1.0000000000
 P 1 
   1       0.3376720000      1.0000000000
 D 2 
   1       5.9287253000     -0.3533329857
   2       1.9809209000     -0.7456525731
 D 1 
   1       0.8055417000     -1.0000000000
 D 1 
   1       0.3531244000     -1.0000000000
 F 2 
   1       1.6755626000      0.6311076882
   2       0.5997536000      0.4968166032
 G 1 
   1       1.0024600000     -1.0000000000
  end;

 # Auxiliary/J basis set for element : N 
 NewAuxJGTO N 
 S 7 
   1    2542.9401785000      0.0128431329
   2    1029.5472946000      0.0206655120
   3     424.9053546000      0.0652200677
   4     178.4573708000      0.1617388940
   5      76.1362742000      0.3094256941
   6      32.9338653000      0.3918849307
   7      14.4155436000      0.1822470660
 S 1 
   1       6.3718891000     -1.0000000000
 S 1 
   1       2.8381742000      1.0000000000
 S 1 
   1       1.2711793000      1.0000000000
 S 1 
   1       0.5712407000      1.0000000000
 S 1 
   1       0.2569887000      1.0000000000
 P 2 
   1      17.8975990000     -1.0974070137
   2       6.5346319000      0.1380055963
 P 1 
   1       2.3523645000      1.0000000000
 P 1 
   1       0.8397377000      1.0000000000
 P 1 
   1       0.2989335000      1.0000000000
 D 2 
   1       7.6909870000      0.1770780943
   2       2.3044972000      0.8918319220
 D 1 
   1       0.8403987000      1.0000000000
 D 1 
   1       0.3303797000      1.0000000000
 F 2 
   1       2.3331076000      0.6223178877
   2       0.8446137000      0.5036714203
 G 1 
   1       1.4037700000     -1.0000000000
  end;



           ************************************************************
           *        Program running with 11 parallel MPI-processes    *
           *              working on a common directory               *
           ************************************************************
------------------------------------------------------------------------------
                           ORCA GTO INTEGRAL CALCULATION
                           -- RI-GTO INTEGRALS CHOSEN --
------------------------------------------------------------------------------

                         BASIS SET STATISTICS AND STARTUP INFO

Gaussian basis set:
 # of primitive gaussian shells          ...  166
 # of primitive gaussian functions       ...  318
 # of contracted shells                  ...   99
 # of contracted basis functions         ...  221
 Highest angular momentum                ...    3
 Maximum contraction depth               ...    6
Auxiliary gaussian basis set:
 # of primitive gaussian shells          ...  208
 # of primitive gaussian functions       ...  526
 # of contracted shells                  ...  130
 # of contracted aux-basis functions     ...  366
 Highest angular momentum                ...    4
 Maximum contraction depth               ...    7
Ratio of auxiliary to basis functions    ...  1.66
Integral package used                  ... LIBINT
 One Electron integrals                  ... done
 Ordering auxiliary basis shells         ... done
 Integral threshhold             Thresh  ...  2.500e-11
 Primitive cut-off               TCut    ...  2.500e-12
 Pre-screening matrix                    ... done
 Shell pair data                         ... 
 Ordering of the shell pairs             ... done (   0.001 sec) 4607 of 4950 pairs
 Determination of significant pairs      ... done (   0.000 sec)
 Creation of shell pair data             ... done (   0.001 sec)
 Storage of shell pair data              ... done (   0.024 sec)
 Shell pair data done in (   0.026 sec)
 Computing two index integrals           ... done
 Cholesky decomposition of the V-matrix  ... done


Timings:
 Total evaluation time                   ...   0.254 sec (  0.004 min)
 One electron matrix time                ...   0.036 sec (  0.001 min) = 14.3%
 Schwartz matrix evaluation time         ...   0.147 sec (  0.002 min) = 57.8%
 Two index repulsion integral time       ...   0.007 sec (  0.000 min) =  2.6%
 Cholesky decomposition of V             ...   0.021 sec (  0.000 min) =  8.4%
 Three index repulsion integral time     ...   0.000 sec (  0.000 min) =  0.0%



           ************************************************************
           *        Program running with 11 parallel MPI-processes    *
           *              working on a common directory               *
           ************************************************************
-------------------------------------------------------------------------------
                                 ORCA SCF
-------------------------------------------------------------------------------

------------
SCF SETTINGS
------------
Hamiltonian:
 Density Functional     Method          .... DFT(GTOs)
 Exchange Functional    Exchange        .... B88
   X-Alpha parameter    XAlpha          ....  0.666667
   Becke's b parameter  XBeta           ....  0.004200
 Correlation Functional Correlation     .... LYP
 Gradients option       PostSCFGGA      .... off
   Density functional embedding theory  .... OFF
   NL short-range parameter             ....  4.000000
 RI-approximation to the Coulomb term is turned on
   Number of auxiliary basis functions  .... 366


General Settings:
 Integral files         IntName         .... /tmp/slurm-scratch/opt+freq.126/opt+freq
 Hartree-Fock type      HFTyp           .... RHF
 Total Charge           Charge          ....    0
 Multiplicity           Mult            ....    1
 Number of Electrons    NEL             ....   42
 Basis Dimension        Dim             ....  221
 Nuclear Repulsion      ENuc            ....    185.7417682554 Eh

Convergence Acceleration:
 DIIS                   CNVDIIS         .... on
   Start iteration      DIISMaxIt       ....    12
   Startup error        DIISStart       ....  0.200000
   # of expansion vecs  DIISMaxEq       ....     5
   Bias factor          DIISBfac        ....   1.050
   Max. coefficient     DIISMaxC        ....  10.000
 Newton-Raphson         CNVNR           .... off
 SOSCF                  CNVSOSCF        .... on
   Start iteration      SOSCFMaxIt      ....   150
   Startup grad/error   SOSCFStart      ....  0.003300
 Level Shifting         CNVShift        .... on
   Level shift para.    LevelShift      ....    0.2500
   Turn off err/grad.   ShiftErr        ....    0.0010
 Zerner damping         CNVZerner       .... off
 Static damping         CNVDamp         .... on
   Fraction old density DampFac         ....    0.7000
   Max. Damping (<1)    DampMax         ....    0.9800
   Min. Damping (>=0)   DampMin         ....    0.0000
   Turn off err/grad.   DampErr         ....    0.1000
 Fernandez-Rico         CNVRico         .... off

SCF Procedure:
 Maximum # iterations   MaxIter         ....   125
 SCF integral mode      SCFMode         .... Direct
   Integral package                     .... LIBINT
 Reset frequency        DirectResetFreq ....    20
 Integral Threshold     Thresh          ....  2.500e-11 Eh
 Primitive CutOff       TCut            ....  2.500e-12 Eh

Convergence Tolerance:
 Convergence Check Mode ConvCheckMode   .... Total+1el-Energy
 Convergence forced     ConvForced      .... 0
 Energy Change          TolE            ....  1.000e-08 Eh
 1-El. energy change                    ....  1.000e-05 Eh
 Orbital Gradient       TolG            ....  1.000e-05
 Orbital Rotation angle TolX            ....  1.000e-05
 DIIS Error             TolErr          ....  5.000e-07


Diagonalization of the overlap matrix:
Smallest eigenvalue                        ... 1.760e-04
Time for diagonalization                   ...    0.013 sec
Threshold for overlap eigenvalues          ... 1.000e-08
Number of eigenvalues below threshold      ... 0
Time for construction of square roots      ...    0.014 sec
Total time needed                          ...    0.027 sec

-------------------
DFT GRID GENERATION
-------------------

General Integration Accuracy     IntAcc      ...  4.670
Radial Grid Type                 RadialGrid  ... Gauss-Chebyshev
Angular Grid (max. acc.)         AngularGrid ... Lebedev-302
Angular grid pruning method      GridPruning ... 3 (G Style)
Weight generation scheme         WeightScheme... Becke
Basis function cutoff            BFCut       ...    1.0000e-11
Integration weight cutoff        WCut        ...    1.0000e-14
Grids for H and He will be reduced by one unit

# of grid points (after initial pruning)     ...  68394 (   0.0 sec)
# of grid points (after weights+screening)   ...  62761 (   0.0 sec)
nearest neighbour list constructed           ...    0.0 sec
Grid point re-assignment to atoms done       ...    0.0 sec
Grid point division into batches done        ...    0.2 sec
Reduced shell lists constructed in    0.3 sec

Total number of grid points                  ...    62761
Total number of batches                      ...      988
Average number of points per batch           ...       63
Average number of grid points per atom       ...     3923
Average number of shells per batch           ...    70.53 (71.24%)
Average number of basis functions per batch  ...   159.43 (72.14%)
Average number of large shells per batch     ...    57.25 (81.18%)
Average number of large basis fcns per batch ...   129.54 (81.25%)
Maximum spatial batch extension              ...  15.02, 13.56, 16.05 au
Average spatial batch extension              ...   0.19,  0.19,  0.22 au

Time for grid setup =    0.353 sec

------------------------------
INITIAL GUESS: MODEL POTENTIAL
------------------------------
Loading Hartree-Fock densities                     ... done
Calculating cut-offs                               ... done
Setting up the integral package                    ... done
Initializing the effective Hamiltonian             ... done
Starting the Coulomb interaction                   ... done (   0.0 sec)
Reading the grid                                   ... done
Mapping shells                                     ... done
Starting the XC term evaluation                    ... done (   0.1 sec)
  promolecular density results
     # of electrons  =     41.994287495
     EX              =    -30.409932937
     EC              =     -1.339170493
     EX+EC           =    -31.749103429
Transforming the Hamiltonian                       ... done (   0.0 sec)
Diagonalizing the Hamiltonian                      ... done (   0.0 sec)
Back transforming the eigenvectors                 ... done (   0.0 sec)
Now organizing SCF variables                       ... done
                      ------------------
                      INITIAL GUESS DONE (   0.6 sec)
                      ------------------

--------------------
CPCM SOLVATION MODEL
--------------------
CPCM parameters:
  Epsilon                                         ...       8.9300
  Refrac                                          ...       1.0000
  Rsolv                                           ...       1.3000
  Surface type                                    ...    GEPOL SES
  Epsilon function type                           ...         CPCM
Solvent:                                     ... DICHLOROMETHANE
SMD-CDS solvent descriptors:
  Soln                                       ...    1.4242
  Soln25                                     ...    1.4212
  Sola                                       ...    0.1000
  Solb                                       ...    0.0500
  Solg                                       ...   39.1500
  Solc                                       ...    0.0000
  Solh                                       ...    0.6670
Radii:
 Radius for C  used is    3.4960 Bohr (=   1.8500 Ang.)
 Radius for H  used is    2.2677 Bohr (=   1.2000 Ang.)
 Radius for N  used is    3.5716 Bohr (=   1.8900 Ang.)
Calculating surface                               ...        done! (  0.0s)
GEPOL surface points                              ...          631
GEPOL Volume                                      ...     696.6462
GEPOL Surface-area                                ...     453.8385
Calculating surface distance matrix               ...        done! (  0.0s)
Performing Cholesky decomposition & store         ...        done! (  0.0s)
Overall time for CPCM initialization              ...                 0.1s
--------------
SCF ITERATIONS
--------------
ITER       Energy         Delta-E        Max-DP      RMS-DP      [F,P]     Damp
               ***  Starting incremental Fock matrix formation  ***
  0   -213.5108524084   0.000000000000 0.08784817  0.00170679  0.2676642 0.7000
  1   -213.6377413326  -0.126888924241 0.08251042  0.00132944  0.1015267 0.7000
                               ***Turning on DIIS***
  2   -213.6779932630  -0.040251930366 0.08578108  0.00188428  0.0243576 0.0000
  3   -213.7395117048  -0.061518441758 0.07174982  0.00096587  0.0632100 0.0000
  4   -213.7589320804  -0.019420375593 0.02079029  0.00033911  0.0170909 0.0000
  5   -213.7603199189  -0.001387838545 0.00965391  0.00017054  0.0090057 0.0000
                      *** Initiating the SOSCF procedure ***
                           *** Shutting down DIIS ***
                      *** Re-Reading the Fockian *** 
                      *** Removing any level shift *** 
ITER      Energy       Delta-E        Grad      Rot      Max-DP    RMS-DP
  6   -213.76049428  -0.0001743594  0.000488  0.000488  0.005896  0.000116
               *** Restarting incremental Fock matrix formation ***
  7   -213.76050409  -0.0000098154  0.000112  0.000288  0.000891  0.000015
  8   -213.76050318   0.0000009129  0.000166  0.000164  0.000429  0.000008
  9   -213.76050473  -0.0000015474  0.000007  0.000012  0.000025  0.000001
 10   -213.76050472   0.0000000051  0.000009  0.000006  0.000029  0.000000
                  ***Gradient check signals convergence***
              ***Rediagonalizing the Fockian in SOSCF/NRSCF***

               *****************************************************
               *                     SUCCESS                       *
               *           SCF CONVERGED AFTER  11 CYCLES          *
               *****************************************************

Setting up the final grid:

General Integration Accuracy     IntAcc      ...  5.010
Radial Grid Type                 RadialGrid  ... Gauss-Chebyshev
Angular Grid (max. acc.)         AngularGrid ... Lebedev-434
Angular grid pruning method      GridPruning ... 3 (G Style)
Weight generation scheme         WeightScheme... Becke
Basis function cutoff            BFCut       ...    1.0000e-11
Integration weight cutoff        WCut        ...    1.0000e-14
Grids for H and He will be reduced by one unit

# of grid points (after initial pruning)     ... 126994 (   0.0 sec)
# of grid points (after weights+screening)   ... 116312 (   0.1 sec)
nearest neighbour list constructed           ...    0.0 sec
Grid point re-assignment to atoms done       ...    0.0 sec
Grid point division into batches done        ...    0.8 sec
Reduced shell lists constructed in    0.9 sec

Total number of grid points                  ...   116312
Total number of batches                      ...     1823
Average number of points per batch           ...       63
Average number of grid points per atom       ...     7270
Average number of shells per batch           ...    69.23 (69.93%)
Average number of basis functions per batch  ...   156.34 (70.74%)
Average number of large shells per batch     ...    55.89 (80.73%)
Average number of large basis fcns per batch ...   126.28 (80.77%)
Maximum spatial batch extension              ...  12.85, 14.30, 13.62 au
Average spatial batch extension              ...   0.16,  0.16,  0.17 au

Final grid set up in    1.0 sec
Final integration                            ... done (   0.4 sec)
Change in XC energy                          ...     0.000009954
Integrated number of electrons               ...    41.999983955
Previous integrated no of electrons          ...    41.999926469

SMD CDS free energy correction energy :                -1.45341     Kcal/mol
Total Energy after SMD CDS correction =              -213.762810924 Eh

----------------
TOTAL SCF ENERGY
----------------

Total Energy       :         -213.76281092 Eh           -5816.78180 eV

Components:
Nuclear Repulsion  :          185.74176826 Eh            5054.29047 eV
Electronic Energy  :         -399.50457918 Eh          -10871.07227 eV
One Electron Energy:         -654.69994624 Eh          -17815.29125 eV
Two Electron Energy:          255.19536706 Eh            6944.21898 eV
CPCM Dielectric    :           -0.00777495 Eh              -0.21157 eV
SMD CDS (Gcds)     :           -0.00231615 Eh              -0.06303 eV

Virial components:
Potential Energy   :         -426.79815690 Eh          -11613.76828 eV
Kinetic Energy     :          213.03534598 Eh            5796.98648 eV
Virial Ratio       :            2.00341476


DFT components:
N(Alpha)           :       20.999991977625 electrons
N(Beta)            :       20.999991977625 electrons
N(Total)           :       41.999983955251 electrons
E(X)               :      -31.337288282385 Eh       
E(C)               :       -1.352119887316 Eh       
E(XC)              :      -32.689408169701 Eh       
DFET-embed. en.    :        0.000000000000 Eh       
CPCM Solvation Model Properties:
Surface-charge          :           -0.04763810
Charge-correction       :           -0.00015715 Eh              -0.00428 eV
Free-energy (cav+disp)  :            0.00347503 Eh               0.09456 eV
Corrected G(solv)       :         -213.75949305 Eh           -5816.69152 eV

---------------
SCF CONVERGENCE
---------------

  Last Energy change         ...   -6.8383e-09  Tolerance :   1.0000e-08
  Last MAX-Density change    ...    1.1998e-05  Tolerance :   1.0000e-07
  Last RMS-Density change    ...    1.9003e-07  Tolerance :   5.0000e-09
  Last Orbital Gradient      ...    1.7246e-06  Tolerance :   1.0000e-05
  Last Orbital Rotation      ...    2.5291e-06  Tolerance :   1.0000e-05

             **** THE GBW FILE WAS UPDATED (/tmp/slurm-scratch/opt+freq.126/opt+freq.gbw) ****
             **** DENSITY FILE WAS UPDATED (/tmp/slurm-scratch/opt+freq.126/opt+freq.scfp) ****
             **** ENERGY FILE WAS UPDATED (/tmp/slurm-scratch/opt+freq.126/opt+freq.en.tmp) ****
             **** THE GBW FILE WAS UPDATED (/tmp/slurm-scratch/opt+freq.126/opt+freq.gbw) ****
             **** DENSITY FILE WAS UPDATED (/tmp/slurm-scratch/opt+freq.126/opt+freq.scfp) ****
----------------
ORBITAL ENERGIES
----------------

  NO   OCC          E(Eh)            E(eV) 
   0   2.0000     -13.973810      -380.2467 
   1   2.0000      -9.912304      -269.7275 
   2   2.0000      -9.889036      -269.0944 
   3   2.0000      -9.885594      -269.0007 
   4   2.0000      -9.882453      -268.9152 
   5   2.0000      -0.786846       -21.4112 
   6   2.0000      -0.698760       -19.0142 
   7   2.0000      -0.624996       -17.0070 
   8   2.0000      -0.541017       -14.7218 
   9   2.0000      -0.506852       -13.7922 
  10   2.0000      -0.425698       -11.5838 
  11   2.0000      -0.406624       -11.0648 
  12   2.0000      -0.384697       -10.4681 
  13   2.0000      -0.361365        -9.8332 
  14   2.0000      -0.350202        -9.5295 
  15   2.0000      -0.322366        -8.7720 
  16   2.0000      -0.299658        -8.1541 
  17   2.0000      -0.281812        -7.6685 
  18   2.0000      -0.277813        -7.5597 
  19   2.0000      -0.272067        -7.4033 
  20   2.0000      -0.192815        -5.2468 
  21   0.0000       0.022807         0.6206 
  22   0.0000       0.032880         0.8947 
  23   0.0000       0.055872         1.5203 
  24   0.0000       0.064459         1.7540 
  25   0.0000       0.070594         1.9209 
  26   0.0000       0.096474         2.6252 
  27   0.0000       0.110997         3.0204 
  28   0.0000       0.115679         3.1478 
  29   0.0000       0.116008         3.1567 
  30   0.0000       0.122940         3.3454 
  31   0.0000       0.136340         3.7100 
  32   0.0000       0.148579         4.0430 
  33   0.0000       0.163219         4.4414 
  34   0.0000       0.168279         4.5791 
  35   0.0000       0.198842         5.4108 
  36   0.0000       0.212407         5.7799 
  37   0.0000       0.224307         6.1037 
  38   0.0000       0.247806         6.7431 
  39   0.0000       0.262455         7.1418 
  40   0.0000       0.272342         7.4108 
  41   0.0000       0.278132         7.5684 
  42   0.0000       0.287674         7.8280 
  43   0.0000       0.318622         8.6702 
  44   0.0000       0.349089         9.4992 
  45   0.0000       0.354205         9.6384 
  46   0.0000       0.364078         9.9071 
  47   0.0000       0.377807        10.2807 
  48   0.0000       0.387472        10.5437 
  49   0.0000       0.401751        10.9322 
  50   0.0000       0.417054        11.3486 
  51   0.0000       0.422860        11.5066 
  52   0.0000       0.430229        11.7071 
  53   0.0000       0.437419        11.9028 
  54   0.0000       0.441098        12.0029 
  55   0.0000       0.444664        12.0999 
  56   0.0000       0.456019        12.4089 
  57   0.0000       0.468903        12.7595 
  58   0.0000       0.481609        13.1052 
  59   0.0000       0.486959        13.2508 
  60   0.0000       0.513380        13.9698 
  61   0.0000       0.529255        14.4018 
  62   0.0000       0.552677        15.0391 
  63   0.0000       0.571962        15.5639 
  64   0.0000       0.592108        16.1121 
  65   0.0000       0.630112        17.1462 
  66   0.0000       0.661849        18.0098 
  67   0.0000       0.705633        19.2012 
  68   0.0000       0.725650        19.7459 
  69   0.0000       0.781821        21.2744 
  70   0.0000       0.794694        21.6247 
  71   0.0000       0.810089        22.0436 
  72   0.0000       0.831862        22.6361 
  73   0.0000       0.862406        23.4673 
  74   0.0000       0.895738        24.3743 
  75   0.0000       0.917093        24.9554 
  76   0.0000       0.975372        26.5412 
  77   0.0000       0.982272        26.7290 
  78   0.0000       1.000202        27.2169 
  79   0.0000       1.024468        27.8772 
  80   0.0000       1.054832        28.7034 
  81   0.0000       1.080718        29.4078 
  82   0.0000       1.089154        29.6374 
  83   0.0000       1.102115        29.9901 
  84   0.0000       1.140871        31.0447 
  85   0.0000       1.183899        32.2155 
  86   0.0000       1.207703        32.8633 
  87   0.0000       1.240973        33.7686 
  88   0.0000       1.292697        35.1761 
  89   0.0000       1.311754        35.6946 
  90   0.0000       1.347920        36.6788 
  91   0.0000       1.383457        37.6458 
  92   0.0000       1.438820        39.1523 
  93   0.0000       1.458806        39.6961 
  94   0.0000       1.467441        39.9311 
  95   0.0000       1.481903        40.3246 
  96   0.0000       1.488737        40.5106 
  97   0.0000       1.519283        41.3418 
  98   0.0000       1.524840        41.4930 
  99   0.0000       1.536220        41.8027 
 100   0.0000       1.542182        41.9649 
 101   0.0000       1.590245        43.2728 
 102   0.0000       1.637900        44.5695 
 103   0.0000       1.672474        45.5103 
 104   0.0000       1.703066        46.3428 
 105   0.0000       1.732575        47.1458 
 106   0.0000       1.762543        47.9612 
 107   0.0000       1.768620        48.1266 
 108   0.0000       1.782323        48.4995 
 109   0.0000       1.797006        48.8990 
 110   0.0000       1.816935        49.4413 
 111   0.0000       1.848635        50.3039 
 112   0.0000       1.855444        50.4892 
 113   0.0000       1.879239        51.1367 
 114   0.0000       1.895190        51.5708 
 115   0.0000       1.895983        51.5923 
 116   0.0000       1.912617        52.0450 
 117   0.0000       1.952736        53.1367 
 118   0.0000       1.963144        53.4199 
 119   0.0000       2.003954        54.5304 
 120   0.0000       2.053887        55.8891 
 121   0.0000       2.085136        56.7394 
 122   0.0000       2.173595        59.1465 
 123   0.0000       2.210518        60.1513 
 124   0.0000       2.225602        60.5617 
 125   0.0000       2.244661        61.0803 
 126   0.0000       2.268253        61.7223 
 127   0.0000       2.280922        62.0670 
 128   0.0000       2.316896        63.0459 
 129   0.0000       2.331462        63.4423 
 130   0.0000       2.371272        64.5256 
 131   0.0000       2.376932        64.6796 
 132   0.0000       2.393940        65.1424 
 133   0.0000       2.407558        65.5130 
 134   0.0000       2.444644        66.5221 
 135   0.0000       2.471384        67.2498 
 136   0.0000       2.483774        67.5869 
 137   0.0000       2.505548        68.1794 
 138   0.0000       2.526951        68.7618 
 139   0.0000       2.545042        69.2541 
 140   0.0000       2.573634        70.0321 
 141   0.0000       2.580570        70.2209 
 142   0.0000       2.594298        70.5944 
 143   0.0000       2.606161        70.9172 
 144   0.0000       2.633483        71.6607 
 145   0.0000       2.650482        72.1233 
 146   0.0000       2.665991        72.5453 
 147   0.0000       2.667479        72.5858 
 148   0.0000       2.685760        73.0832 
 149   0.0000       2.724338        74.1330 
 150   0.0000       2.742710        74.6329 
 151   0.0000       2.794146        76.0326 
 152   0.0000       2.866458        78.0003 
 153   0.0000       2.900289        78.9209 
 154   0.0000       2.942757        80.0765 
 155   0.0000       2.950708        80.2929 
 156   0.0000       3.011445        81.9456 
 157   0.0000       3.031436        82.4896 
 158   0.0000       3.062398        83.3321 
 159   0.0000       3.093418        84.1762 
 160   0.0000       3.112796        84.7035 
 161   0.0000       3.136036        85.3359 
 162   0.0000       3.161591        86.0313 
 163   0.0000       3.168476        86.2186 
 164   0.0000       3.175093        86.3987 
 165   0.0000       3.201515        87.1177 
 166   0.0000       3.224078        87.7316 
 167   0.0000       3.260043        88.7103 
 168   0.0000       3.287323        89.4526 
 169   0.0000       3.296079        89.6909 
 170   0.0000       3.306378        89.9711 
 171   0.0000       3.323408        90.4345 
 172   0.0000       3.357192        91.3538 
 173   0.0000       3.406793        92.7036 
 174   0.0000       3.425289        93.2069 
 175   0.0000       3.468325        94.3779 
 176   0.0000       3.503386        95.3320 
 177   0.0000       3.510738        95.5320 
 178   0.0000       3.531511        96.0973 
 179   0.0000       3.595054        97.8264 
 180   0.0000       3.649989        99.3213 
 181   0.0000       3.744977       101.9060 
 182   0.0000       3.763478       102.4094 
 183   0.0000       3.771783       102.6354 
 184   0.0000       3.802485       103.4709 
 185   0.0000       3.821888       103.9989 
 186   0.0000       3.827153       104.1421 
 187   0.0000       3.868818       105.2759 
 188   0.0000       3.951155       107.5164 
 189   0.0000       3.994090       108.6847 
 190   0.0000       4.027713       109.5996 
 191   0.0000       4.070742       110.7705 
 192   0.0000       4.125466       112.2596 
 193   0.0000       4.208385       114.5160 
 194   0.0000       4.247098       115.5694 
 195   0.0000       4.249919       115.6462 
 196   0.0000       4.325244       117.6959 
 197   0.0000       4.362911       118.7208 
 198   0.0000       4.459359       121.3453 
 199   0.0000       4.484252       122.0227 
 200   0.0000       4.505466       122.6000 
 201   0.0000       4.511144       122.7545 
 202   0.0000       4.564966       124.2190 
 203   0.0000       4.588997       124.8730 
 204   0.0000       4.679893       127.3464 
 205   0.0000       4.741019       129.0097 
 206   0.0000       4.748974       129.2261 
 207   0.0000       4.775072       129.9363 
 208   0.0000       4.836155       131.5985 
 209   0.0000       4.924225       133.9950 
 210   0.0000       4.995937       135.9464 
 211   0.0000       5.059586       137.6783 
 212   0.0000       5.166051       140.5754 
 213   0.0000       5.211429       141.8102 
 214   0.0000       5.464276       148.6905 
 215   0.0000       5.684716       154.6890 
 216   0.0000      22.007826       598.8634 
 217   0.0000      22.092364       601.1638 
 218   0.0000      22.160550       603.0192 
 219   0.0000      22.193085       603.9046 
 220   0.0000      31.554230       858.6342 
------------------
MOLECULAR ORBITALS
------------------
                      0         1         2         3         4         5   
                 -13.97381  -9.91230  -9.88904  -9.88559  -9.88245  -0.78685
                   2.00000   2.00000   2.00000   2.00000   2.00000   2.00000
                  --------  --------  --------  --------  --------  --------
  0C   1s        -0.000004  0.000076  0.467202  0.006896 -0.003795 -0.007771
  0C   2s         0.000022  0.000057  0.606725  0.008872 -0.004874 -0.016043
  0C   3s        -0.000511  0.000454  0.043395  0.000578  0.000287  0.024438
  0C   4s         0.000755 -0.001097 -0.030351 -0.004279  0.001486  0.023118
  0C   5s         0.008643  0.002203  0.054988  0.016689 -0.006493  0.002718
  0C   1pz       -0.000106 -0.000033  0.000415 -0.000234 -0.000130  0.006883
  0C   1px       -0.000106 -0.000143 -0.000400 -0.000224 -0.000392  0.004748
  0C   1py       -0.000045  0.000008  0.000301 -0.000113 -0.000031  0.003629
  0C   2pz        0.000314  0.001201 -0.002999 -0.000774  0.000864  0.004022
  0C   2px        0.000713  0.002981  0.003815  0.000250  0.001655  0.003428
  0C   2py        0.000101  0.000314 -0.002278 -0.000490  0.000325  0.002338
  0C   3pz        0.002215  0.000265  0.002967  0.005134  0.001696 -0.000078
  0C   3px        0.001924  0.004433 -0.000517  0.002744  0.007262  0.003488
  0C   3py        0.001664  0.000641  0.001859  0.002833  0.000114  0.002088
  0C   1dz2       0.000007 -0.000041  0.000002  0.000002  0.000020  0.000221
  0C   1dxz      -0.000100  0.000053 -0.000000  0.000003 -0.000033  0.000480
  0C   1dyz      -0.000002  0.000030  0.000044  0.000101 -0.000066  0.000376
  0C   1dx2y2    -0.000032  0.000131  0.000046  0.000102 -0.000109  0.000197
  0C   1dxy      -0.000056  0.000003 -0.000014 -0.000033  0.000013  0.000211
  0C   2dz2       0.000042  0.000659  0.000304  0.000927  0.001661 -0.000178
  0C   2dxz       0.000663  0.000323 -0.001407  0.000939  0.000085  0.001496
  0C   2dyz       0.000052 -0.000072 -0.001607  0.000615  0.000429  0.000422
  0C   2dx2y2     0.000132 -0.001158 -0.002527 -0.000646 -0.002336  0.000708
  0C   2dxy       0.000376  0.000430 -0.000101  0.000690  0.000614  0.000866
  0C   1f0       -0.000010 -0.000087 -0.000119  0.000176 -0.000090 -0.000062
  0C   1f+1       0.000073 -0.000048  0.000447  0.000622 -0.000741  0.000356
  0C   1f-1       0.000069  0.000000  0.001071  0.000676  0.000360  0.000351
  0C   1f+2       0.000006  0.000116 -0.000043 -0.000099  0.000093  0.000044
  0C   1f-2       0.000031 -0.000003 -0.000403  0.000754 -0.000003  0.000092
  0C   1f+3       0.000037 -0.000110  0.000574  0.000063 -0.001006  0.000253
  0C   1f-3      -0.000033 -0.000054 -0.000613 -0.000012  0.000233 -0.000242
  1H   1s         0.000048 -0.000077 -0.000638 -0.000010  0.000029  0.004888
  1H   2s        -0.000498 -0.000337 -0.004156  0.000309 -0.001013  0.005174
  1H   3s         0.000040 -0.000578 -0.007475 -0.000093 -0.001166  0.001162
  1H   1pz       -0.000026 -0.000032 -0.000067  0.000293 -0.000001  0.000316
  1H   1px        0.000007  0.000058  0.000670  0.000236  0.000385  0.000097
  1H   1py       -0.000079  0.000010 -0.002480  0.000047  0.000000  0.000915
  2H   1s         0.000063 -0.000041 -0.000638 -0.000013  0.000028  0.004971
  2H   2s        -0.000606 -0.000409 -0.004153  0.000281 -0.001015  0.004761
  2H   3s        -0.000405 -0.001494 -0.007483 -0.000109 -0.001157 -0.000634
  2H   1pz       -0.000094 -0.000000 -0.002132  0.000206  0.000040  0.000887
  2H   1px        0.000023  0.000064  0.001092  0.000262  0.000375 -0.000039
  2H   1py       -0.000004 -0.000062  0.000931  0.000198 -0.000070 -0.000183
  3C   1s        -0.000007 -0.000915  0.006864 -0.467196  0.000608 -0.020943
  3C   2s         0.000043 -0.001269  0.008998 -0.606732  0.000835 -0.043280
  3C   3s        -0.000220 -0.000542  0.000728 -0.043457 -0.000494  0.067486
  3C   4s        -0.000793 -0.001795  0.003133  0.030264  0.001565  0.056719
  3C   5s        -0.015013  0.008687 -0.017245 -0.055875 -0.003223  0.001247
  3C   1pz       -0.000130 -0.000107 -0.000226  0.000409 -0.000029  0.004639
  3C   1px       -0.000073 -0.000373 -0.000204 -0.000354 -0.000165  0.024223
  3C   1py       -0.000073 -0.000022 -0.000113  0.000256  0.000001  0.000663
  3C   2pz        0.001335  0.000883 -0.000319 -0.003340  0.001221  0.003379
  3C   2px        0.000421  0.001330  0.000437  0.002811  0.003474  0.010255
  3C   2py        0.000551  0.000165 -0.000188 -0.002322  0.000347  0.000892
  3C   3pz        0.002426  0.001725  0.006318  0.002369  0.001428  0.001274
  3C   3px       -0.004013  0.006348  0.002868 -0.002071  0.004749 -0.001306
  3C   3py        0.001819 -0.000992  0.003355  0.001400  0.000221 -0.003057
  3C   1dz2      -0.000034 -0.000022  0.000017 -0.000034  0.000052 -0.000687
  3C   1dxz      -0.000093  0.000042 -0.000019 -0.000039 -0.000061  0.001039
  3C   1dyz      -0.000042  0.000074 -0.000080 -0.000067 -0.000035  0.000220
  3C   1dx2y2     0.000018  0.000135 -0.000110 -0.000049 -0.000138  0.001706
  3C   1dxy      -0.000062 -0.000003  0.000026 -0.000005  0.000000  0.000267
  3C   2dz2       0.000096 -0.001475 -0.001198  0.000040 -0.000830  0.000206
  3C   2dxz       0.001001 -0.000183 -0.001028  0.001692 -0.000237  0.002900
  3C   2dyz       0.000131 -0.000568 -0.000941  0.001815  0.000107  0.000896
  3C   2dx2y2     0.000448  0.002177  0.000654  0.002270  0.001382  0.001041
  3C   2dxy       0.000710 -0.000472 -0.000783  0.000349 -0.000514  0.001873
  3C   1f0       -0.000107 -0.000095  0.000191 -0.000142 -0.000090 -0.000386
  3C   1f+1       0.000091 -0.000742  0.000598  0.000495 -0.000057 -0.000564
  3C   1f-1       0.000038  0.000334  0.000651  0.001081 -0.000000 -0.000932
  3C   1f+2       0.000143  0.000082 -0.000118 -0.000022  0.000118  0.000564
  3C   1f-2       0.000090 -0.000026  0.000766 -0.000389 -0.000007  0.000153
  3C   1f+3      -0.000002 -0.000964  0.000046  0.000611 -0.000122 -0.000731
  3C   1f-3      -0.000145  0.000182  0.000024 -0.000629 -0.000049  0.000018
  4H   1s        -0.000054 -0.000022 -0.000006  0.000630  0.000068  0.013502
  4H   2s         0.001023  0.001238 -0.000619  0.004191  0.000387  0.014849
  4H   3s        -0.001049  0.000960 -0.000220  0.007598  0.000965  0.003299
  4H   1pz       -0.000074  0.000007  0.000289 -0.000072 -0.000054  0.000342
  4H   1px       -0.000025  0.000375  0.000186  0.000653  0.000065  0.001689
  4H   1py       -0.000171 -0.000044  0.000147 -0.002491  0.000014 -0.002120
  5H   1s        -0.000011  0.000017  0.000012  0.000641  0.000072  0.013170
  5H   2s         0.000314  0.000497 -0.000483  0.004165  0.000450  0.012594
  5H   3s        -0.000321  0.000553 -0.000402  0.007374  0.000870  0.001104
  5H   1pz       -0.000088  0.000087  0.000265 -0.002174 -0.000021 -0.001399
  5H   1px       -0.000020  0.000328  0.000196  0.001034  0.000052  0.001786
  5H   1py       -0.000010 -0.000059  0.000173  0.000930 -0.000059  0.000926
  6C   1s        -0.000012 -0.467290  0.000053  0.000954  0.000033 -0.050391
  6C   2s         0.000063 -0.606892  0.000115  0.001152  0.000064 -0.104594
  6C   3s         0.002139 -0.040290 -0.000739  0.000319  0.000353  0.166661
  6C   4s        -0.010283  0.018821  0.001371 -0.004659 -0.002656  0.146709
  6C   5s         0.024605 -0.039585  0.001518  0.019378 -0.004403  0.021378
  6C   1pz        0.000230 -0.000386 -0.000111  0.000139  0.000012  0.053722
  6C   1px       -0.000025  0.000291  0.000007  0.000285 -0.000094  0.018676
  6C   1py        0.000092 -0.000266 -0.000068  0.000056  0.000020  0.032766
  6C   2pz       -0.007500 -0.001394  0.002083 -0.000983  0.000186  0.022797
  6C   2px       -0.002329 -0.002855  0.001674  0.000772  0.002899  0.002538
  6C   2py       -0.003618  0.000256  0.001095 -0.000688 -0.000226  0.017122
  6C   3pz        0.003479  0.001856  0.001282  0.000215  0.000919  0.002697
  6C   3px       -0.001624  0.004086 -0.000264 -0.006134  0.001816  0.001315
  6C   3py        0.002103  0.002068  0.000888  0.001049  0.000428  0.006365
  6C   1dz2      -0.000158 -0.000155 -0.000025 -0.000010  0.000036  0.002811
  6C   1dxz      -0.000284 -0.000118 -0.000136 -0.000018 -0.000029  0.003794
  6C   1dyz      -0.000213 -0.000223 -0.000065  0.000098  0.000012  0.004740
  6C   1dx2y2     0.000018  0.000027 -0.000070  0.000106 -0.000061  0.000155
  6C   1dxy      -0.000178 -0.000017 -0.000058 -0.000036 -0.000002  0.001900
  6C   2dz2      -0.002085 -0.001018  0.000930 -0.001370  0.000575 -0.002054
  6C   2dxz      -0.001228 -0.000254  0.000599 -0.000017  0.000020  0.003463
  6C   2dyz      -0.002795  0.000137  0.001058 -0.001015 -0.000068  0.002592
  6C   2dx2y2     0.000344  0.001350 -0.000054  0.001087 -0.000963  0.003219
  6C   2dxy      -0.000279 -0.000225  0.000278 -0.000244  0.000228  0.001087
  6C   1f0        0.000034  0.000031 -0.000025  0.000064  0.000006 -0.000397
  6C   1f+1      -0.000158 -0.000935  0.000185  0.000645 -0.000071  0.002967
  6C   1f-1      -0.000246 -0.001505  0.000106 -0.000376  0.000037  0.002855
  6C   1f+2      -0.000011  0.000196  0.000072 -0.000072 -0.000015 -0.000664
  6C   1f-2      -0.000189 -0.000011  0.000180 -0.000002  0.000013  0.000809
  6C   1f+3      -0.000066 -0.000801  0.000013  0.000900 -0.000103  0.002308
  6C   1f-3       0.000103  0.000694 -0.000058 -0.000178  0.000043 -0.001171
  7H   1s        -0.000124  0.000594  0.000099  0.000007 -0.000016  0.027363
  7H   2s        -0.000928  0.003368 -0.000032  0.000232 -0.000185  0.025027
  7H   3s        -0.002394  0.006412  0.000398 -0.000578  0.000342  0.001766
  7H   1pz        0.000060  0.002123  0.000049 -0.000158 -0.000041  0.004713
  7H   1px        0.000157 -0.001067  0.000119 -0.000337  0.000040 -0.000995
  7H   1py        0.000017 -0.000899  0.000136 -0.000031  0.000012 -0.000523
  8H   1s        -0.000023  0.000613  0.000123 -0.000032 -0.000018  0.027730
  8H   2s        -0.000372  0.004165  0.000150  0.000169 -0.000138  0.026307
  8H   3s        -0.002852  0.007059  0.000415 -0.000390  0.000387  0.004662
  8H   1pz        0.000180 -0.000023  0.000103 -0.000104 -0.000012  0.001481
  8H   1px        0.000210 -0.000714  0.000049 -0.000342  0.000019 -0.000389
  8H   1py        0.000205  0.002611 -0.000012 -0.000085 -0.000046  0.004894
  9N   1s        -0.448685  0.000005  0.000002 -0.000003 -0.000001 -0.084907
  9N   2s        -0.625609  0.000097 -0.000017  0.000037  0.000008 -0.188820
  9N   3s        -0.041124 -0.001611  0.000488 -0.000499 -0.000065  0.286725
  9N   4s         0.036764  0.002756 -0.002006  0.002439  0.000163  0.337378
  9N   5s        -0.025543  0.003065 -0.002716 -0.003233 -0.000970  0.097054
  9N   1pz        0.002029  0.000594 -0.000139  0.000059 -0.000009 -0.062209
  9N   1px       -0.000270  0.000261 -0.000015  0.000108  0.000025  0.019183
  9N   1py       -0.000193  0.000375 -0.000063  0.000030  0.000004  0.017328
  9N   2pz       -0.006655 -0.003204  0.001485 -0.000976  0.000111 -0.056869
  9N   2px       -0.002780 -0.001734  0.000515 -0.001316 -0.000078  0.009207
  9N   2py       -0.002906 -0.002252  0.000729 -0.000541 -0.000006  0.007401
  9N   3pz        0.003505 -0.001018  0.000817  0.000851  0.000395 -0.006582
  9N   3px        0.000168 -0.001388  0.000950 -0.000070  0.000538  0.000803
  9N   3py        0.000121 -0.001961  0.000466  0.000497  0.000164  0.000737
  9N   1dz2       0.000044 -0.000118  0.000009 -0.000000  0.000008 -0.001266
  9N   1dxz      -0.000178 -0.000032 -0.000010  0.000042  0.000004  0.002425
  9N   1dyz      -0.000164 -0.000083  0.000018  0.000022  0.000009  0.002188
  9N   1dx2y2     0.000006  0.000081 -0.000015  0.000062 -0.000013 -0.000043
  9N   1dxy       0.000006 -0.000105 -0.000004 -0.000007  0.000001 -0.000654
  9N   2dz2       0.001523  0.002070 -0.000373  0.000152 -0.000060  0.002779
  9N   2dxz       0.001433  0.001367 -0.000230  0.000255 -0.000017  0.006162
  9N   2dyz       0.001592  0.001960 -0.000473  0.000017 -0.000061  0.006369
  9N   2dx2y2    -0.000126 -0.000518  0.000137 -0.000186  0.000120 -0.000663
  9N   2dxy       0.000839  0.001230 -0.000142  0.000311 -0.000010  0.001293
  9N   1f0       -0.000049 -0.000285  0.000025  0.000038  0.000006 -0.000130
  9N   1f+1      -0.000180 -0.000571  0.000018 -0.000018 -0.000001 -0.002591
  9N   1f-1      -0.000218 -0.000739  0.000072  0.000038  0.000005 -0.002846
  9N   1f+2       0.000007  0.000134 -0.000025 -0.000073 -0.000012  0.000543
  9N   1f-2      -0.000210 -0.000648  0.000019 -0.000033  0.000005 -0.000789
  9N   1f+3       0.000073  0.000011  0.000001  0.000048  0.000003 -0.002173
  9N   1f-3      -0.000048 -0.000083 -0.000000  0.000039  0.000004  0.001782
 10H   1s        -0.000178  0.000314 -0.000015  0.000063 -0.000010  0.076456
 10H   2s         0.001058  0.001342 -0.000109  0.000955 -0.000112  0.066327
 10H   3s         0.002325  0.000763 -0.000177  0.000288 -0.000284  0.005958
 10H   1pz       -0.000087 -0.000136 -0.000049 -0.000040 -0.000017 -0.002756
 10H   1px       -0.000738 -0.000323  0.000035 -0.000246  0.000014 -0.013851
 10H   1py        0.000095  0.000012 -0.000029 -0.000006 -0.000010  0.002183
 11H   1s        -0.000218  0.000159 -0.000014 -0.000129 -0.000004  0.077175
 11H   2s         0.000838  0.001523  0.000151  0.000421  0.000196  0.066984
 11H   3s         0.002438  0.000998 -0.000353 -0.000346 -0.000185  0.006018
 11H   1pz        0.000045 -0.000194  0.000028 -0.000044 -0.000002 -0.001430
 11H   1px        0.000125 -0.000025  0.000026 -0.000110  0.000006  0.002924
 11H   1py       -0.000638 -0.000333  0.000006 -0.000093 -0.000023 -0.013918
 12C   1s         0.000001  0.000040  0.003753  0.000672  0.467212 -0.002663
 12C   2s        -0.000006  0.000028  0.004936  0.000840  0.606904 -0.005498
 12C   3s         0.000059 -0.000342  0.000186  0.000328  0.040774  0.008436
 12C   4s         0.000007  0.002558  0.004926  0.000056 -0.021188  0.008025
 12C   5s        -0.001868  0.004573 -0.015102  0.000147  0.041231  0.003435
 12C   1pz        0.000002  0.000019  0.000054  0.000008  0.000075  0.000897
 12C   1px        0.000035 -0.000062  0.000267  0.000095  0.000419  0.003509
 12C   1py       -0.000009  0.000024  0.000001 -0.000006 -0.000006  0.000115
 12C   2pz        0.000129 -0.000034 -0.000555  0.000917 -0.000502  0.001192
 12C   2px       -0.000194  0.002260  0.001378  0.000839 -0.002242  0.002444
 12C   2py        0.000205 -0.000285 -0.000523  0.000445 -0.000033  0.000496
 12C   3pz       -0.000450  0.000625  0.000047  0.000553  0.002043 -0.000221
 12C   3px       -0.000299  0.001565 -0.005377 -0.000075  0.003606  0.000768
 12C   3py       -0.000510 -0.000112  0.000717  0.000326  0.000797 -0.001089
 12C   1dz2       0.000002 -0.000028  0.000040  0.000016  0.000011 -0.000132
 12C   1dxz       0.000022  0.000027 -0.000015  0.000143 -0.000003  0.000122
 12C   1dyz      -0.000018 -0.000005 -0.000057  0.000041  0.000023 -0.000000
 12C   1dx2y2    -0.000014  0.000055 -0.000130  0.000052  0.000005  0.000256
 12C   1dxy       0.000020  0.000013  0.000029  0.000074 -0.000004  0.000024
 12C   2dz2      -0.000033 -0.000415  0.000868 -0.000332  0.000643 -0.000210
 12C   2dxz       0.000073  0.000076  0.000151 -0.000170  0.000081  0.000409
 12C   2dyz       0.000018  0.000112  0.000682 -0.000489  0.000038 -0.000082
 12C   2dx2y2    -0.000021  0.000736 -0.000709  0.000015 -0.001008  0.000301
 12C   2dxy      -0.000009 -0.000249  0.000222 -0.000080  0.000305  0.000082
 12C   1f0       -0.000020  0.000007  0.000076 -0.000033 -0.000043 -0.000058
 12C   1f+1       0.000001 -0.000073  0.000634  0.000098 -0.000931 -0.000075
 12C   1f-1      -0.000002  0.000021 -0.000339 -0.000006 -0.001510 -0.000102
 12C   1f+2       0.000020 -0.000014 -0.000068  0.000064  0.000198  0.000085
 12C   1f-2      -0.000015 -0.000007  0.000038  0.000084  0.000025  0.000019
 12C   1f+3      -0.000016 -0.000093  0.000841  0.000028 -0.000831 -0.000139
 12C   1f-3      -0.000013  0.000050 -0.000185 -0.000048  0.000657  0.000017
 13H   1s        -0.000003  0.000013  0.000045 -0.000093 -0.000597  0.001646
 13H   2s        -0.000118  0.000017 -0.000376 -0.000069 -0.003340  0.001631
 13H   3s         0.000590 -0.000135  0.000069 -0.000425 -0.006977  0.000608
 13H   1pz       -0.000006  0.000004 -0.000091  0.000097 -0.000108  0.000078
 13H   1px       -0.000022  0.000028 -0.000373  0.000047 -0.000752  0.000217
 13H   1py        0.000030 -0.000013 -0.000053 -0.000005  0.002465 -0.000200
 14H   1s        -0.000006  0.000028 -0.000112  0.000079 -0.000708  0.001309
 14H   2s         0.000110 -0.000177 -0.001477  0.001146 -0.003445  0.001494
 14H   3s         0.000097  0.000255  0.001028  0.000532 -0.004657 -0.000474
 14H   1pz       -0.000002 -0.000023 -0.000141  0.000205 -0.002216  0.000217
 14H   1px        0.000048 -0.000054 -0.000484  0.000088 -0.000964  0.000229
 14H   1py        0.000001  0.000000 -0.000026  0.000112 -0.001218  0.000110
 15H   1s         0.000002  0.000023  0.000044 -0.000090 -0.000598  0.001653
 15H   2s         0.000081  0.000144 -0.000401 -0.000080 -0.003357  0.001741
 15H   3s         0.000178 -0.000432  0.000111 -0.000401 -0.006947 -0.000176
 15H   1pz       -0.000011 -0.000029 -0.000126  0.000047  0.002027 -0.000142
 15H   1px       -0.000013  0.000030 -0.000367  0.000057 -0.001195  0.000259
 15H   1py        0.000000  0.000016  0.000009  0.000080 -0.001067  0.000132
                      6         7         8         9        10        11   
                  -0.69876  -0.62500  -0.54102  -0.50685  -0.42570  -0.40662
                   2.00000   2.00000   2.00000   2.00000   2.00000   2.00000
                  --------  --------  --------  --------  --------  --------
  0C   1s         0.067016 -0.020881 -0.042563  0.047015  0.002745  0.005976
  0C   2s         0.139443 -0.043629 -0.089522  0.098823  0.005667  0.012507
  0C   3s        -0.218772  0.068742  0.142728 -0.153128 -0.008471 -0.020381
  0C   4s        -0.217463  0.073719  0.169139 -0.219055 -0.013608 -0.024058
  0C   5s        -0.021073  0.002902  0.068831 -0.075927 -0.030562 -0.030613
  0C   1pz       -0.022716 -0.039692  0.017940  0.078806  0.094787 -0.001351
  0C   1px        0.009659 -0.075441  0.061543 -0.043729 -0.019643  0.022371
  0C   1py       -0.014985 -0.014501  0.004161  0.054656 -0.044929  0.163163
  0C   2pz       -0.018386 -0.017782  0.013293  0.027864  0.058108  0.001839
  0C   2px        0.007920 -0.040212  0.020926 -0.019510 -0.012651  0.015892
  0C   2py       -0.012335 -0.006098  0.006009  0.021015 -0.028373  0.101170
  0C   3pz       -0.000809 -0.008054  0.003882  0.015669  0.020074 -0.002964
  0C   3px       -0.001435 -0.009566  0.009207 -0.007766 -0.006716  0.001736
  0C   3py        0.000495 -0.002964  0.000579  0.009016 -0.013724  0.045781
  0C   1dz2      -0.000110 -0.002997  0.002868  0.001367  0.000891  0.003023
  0C   1dxz      -0.001628 -0.001728 -0.000207  0.001272  0.001324 -0.000013
  0C   1dyz      -0.001548 -0.001721  0.001182  0.003806  0.002308  0.002148
  0C   1dx2y2    -0.001838  0.002795 -0.003745  0.001862 -0.000431  0.001728
  0C   1dxy      -0.000411 -0.001628  0.000753  0.000051 -0.001463  0.002152
  0C   2dz2      -0.000396 -0.000576  0.001242  0.000648  0.007818 -0.007206
  0C   2dxz      -0.003536  0.000294 -0.001090 -0.006765 -0.003892  0.001263
  0C   2dyz      -0.003698  0.000738  0.003300 -0.006435 -0.004253  0.003717
  0C   2dx2y2    -0.003765  0.002081  0.000540 -0.010826  0.001419 -0.006245
  0C   2dxy      -0.001027 -0.000625 -0.001011 -0.000531 -0.000578 -0.004363
  0C   1f0       -0.000137  0.000242  0.000510  0.000047  0.000851 -0.000851
  0C   1f+1      -0.003214  0.001113  0.002367 -0.003108  0.000571 -0.001021
  0C   1f-1      -0.002997  0.001121  0.002410 -0.002126  0.000256 -0.000286
  0C   1f+2       0.000380 -0.000356 -0.000915 -0.000266  0.000617 -0.000544
  0C   1f-2      -0.000486  0.000117  0.000153 -0.001030 -0.000862  0.000807
  0C   1f+3      -0.002901  0.001090  0.002530 -0.002198 -0.000418 -0.000090
  0C   1f-3       0.001747 -0.000482 -0.001031  0.001573  0.000610 -0.001060
  1H   1s        -0.047387  0.016078  0.044847 -0.074678  0.016445 -0.081212
  1H   2s        -0.048359  0.016888  0.047907 -0.090018  0.026819 -0.113904
  1H   3s        -0.006831  0.003824  0.006915 -0.017769  0.007059 -0.026600
  1H   1pz       -0.000872 -0.001552  0.000515  0.002106  0.003777 -0.000944
  1H   1px        0.001905 -0.003570  0.000219  0.001466 -0.001383  0.005078
  1H   1py       -0.007361  0.001557  0.006263 -0.010152  0.002189 -0.009769
  2H   1s        -0.047426  0.016146  0.045399 -0.073748 -0.053066  0.030830
  2H   2s        -0.048484  0.017082  0.048833 -0.088732 -0.074606  0.049543
  2H   3s        -0.007594  0.002960  0.007398 -0.016106 -0.016631  0.012519
  2H   1pz       -0.006626  0.000324  0.005840 -0.007718 -0.006001  0.006347
  2H   1px        0.003119 -0.003919 -0.000911  0.003333  0.003456 -0.001589
  2H   1py        0.002195 -0.001416 -0.002390  0.006115  0.001902  0.003543
  3C   1s         0.055462  0.048814 -0.022919 -0.048675 -0.010376 -0.008097
  3C   2s         0.115436  0.102160 -0.048164 -0.102272 -0.021899 -0.017179
  3C   3s        -0.181127 -0.161641  0.075029  0.156993  0.036449  0.028131
  3C   4s        -0.177784 -0.174224  0.100428  0.230763  0.039215  0.035480
  3C   5s        -0.032967 -0.026346  0.008764  0.074945  0.057337  0.017683
  3C   1pz        0.032893 -0.017470 -0.038759  0.085444  0.056309 -0.114669
  3C   1px        0.012807 -0.051695 -0.081861 -0.043417 -0.083092 -0.043235
  3C   1py        0.018025 -0.003812 -0.009169  0.062761 -0.102413  0.095569
  3C   2pz        0.020644 -0.001528 -0.024308  0.033472  0.030771 -0.078984
  3C   2px        0.002163 -0.032206 -0.034469 -0.014716 -0.059012 -0.034018
  3C   2py        0.011559  0.002494 -0.007885  0.026810 -0.066241  0.054437
  3C   3pz        0.005418 -0.006332 -0.005112  0.016636  0.010646 -0.038150
  3C   3px        0.003414 -0.010184 -0.017010 -0.008730 -0.018843 -0.010333
  3C   3py        0.002298 -0.001600  0.002823  0.013330 -0.030639  0.032527
  3C   1dz2      -0.000966  0.001624  0.003877 -0.001334  0.003223  0.000036
  3C   1dxz      -0.001740  0.001081  0.001120 -0.001107 -0.000695  0.000080
  3C   1dyz      -0.001854  0.000547  0.002132 -0.003914 -0.001259  0.001325
  3C   1dx2y2    -0.000844 -0.002076 -0.004273 -0.002126 -0.001753 -0.003028
  3C   1dxy      -0.000648  0.001203  0.001649  0.000130  0.000509 -0.002119
  3C   2dz2       0.000698  0.000918  0.003789 -0.002064 -0.003519  0.008483
  3C   2dxz      -0.002206  0.001187  0.001330  0.008707  0.004615 -0.007411
  3C   2dyz      -0.002154 -0.002505  0.004816  0.008218  0.002809 -0.005798
  3C   2dx2y2    -0.003015 -0.001936 -0.000487  0.011615 -0.005500  0.005127
  3C   2dxy      -0.000256  0.001908  0.001890  0.002917 -0.006955 -0.000196
  3C   1f0       -0.000051  0.000273 -0.000605 -0.000163  0.000527  0.000415
  3C   1f+1       0.002676  0.002527 -0.001315 -0.003136  0.000089 -0.001865
  3C   1f-1       0.002395  0.002568 -0.001487 -0.002211 -0.000237 -0.000536
  3C   1f+2      -0.000062 -0.000507  0.000902  0.000121  0.000453 -0.002491
  3C   1f-2       0.000402  0.000374  0.000068 -0.000896 -0.001272  0.000272
  3C   1f+3       0.002380  0.002463 -0.001526 -0.002580 -0.000053  0.000493
  3C   1f-3      -0.001621 -0.001413  0.000080  0.001249  0.002173  0.000427
  4H   1s        -0.039072 -0.038244  0.026658  0.080017 -0.027893  0.060358
  4H   2s        -0.038890 -0.038495  0.030675  0.096501 -0.044214  0.087084
  4H   3s        -0.005504 -0.008026  0.004627  0.018950 -0.014402  0.016619
  4H   1pz        0.001282 -0.000660 -0.001220  0.002401  0.001949 -0.005157
  4H   1px       -0.000584 -0.003237 -0.001350  0.001932 -0.005524  0.000763
  4H   1py        0.006198  0.004897 -0.004219 -0.010718  0.002646 -0.008378
  5H   1s        -0.038888 -0.038830  0.023575  0.076158  0.069170 -0.047129
  5H   2s        -0.039566 -0.040708  0.025676  0.092163  0.094148 -0.070294
  5H   3s        -0.005243 -0.006220  0.006552  0.016658  0.021000 -0.011853
  5H   1pz        0.006028  0.003893 -0.004028 -0.007909 -0.009447  0.004794
  5H   1px       -0.001578 -0.004285 -0.001274  0.003540  0.002550 -0.006178
  5H   1py       -0.001634 -0.002376  0.000908  0.006664  0.000836 -0.000336
  6C   1s         0.016604  0.045787  0.057794  0.028759  0.007611  0.001731
  6C   2s         0.034517  0.095824  0.121512  0.060428  0.016262  0.003997
  6C   3s        -0.054533 -0.153620 -0.194497 -0.093957 -0.026778 -0.007421
  6C   4s        -0.052170 -0.161133 -0.235142 -0.137131 -0.031910 -0.012466
  6C   5s        -0.008740 -0.034311 -0.058897 -0.042566 -0.025506  0.015308
  6C   1pz        0.028215  0.030316  0.014742  0.038165  0.071437 -0.139517
  6C   1px        0.048261  0.056659 -0.033447 -0.082110  0.043820  0.065888
  6C   1py        0.013291  0.017115  0.028212  0.047551 -0.143975  0.003447
  6C   2pz        0.013374  0.009920 -0.000210  0.020060  0.043802 -0.088609
  6C   2px        0.025518  0.033901 -0.008756 -0.031762  0.030889  0.045946
  6C   2py        0.006787  0.005643  0.009866  0.024402 -0.092707  0.001878
  6C   3pz        0.003907  0.006405  0.007852  0.008222  0.017880 -0.033333
  6C   3px        0.004778  0.004922 -0.012475 -0.016376  0.020571  0.017808
  6C   3py        0.001314  0.000339  0.002555  0.009390 -0.042397 -0.007573
  6C   1dz2       0.002155  0.002325 -0.000802 -0.001745 -0.001685 -0.000498
  6C   1dxz       0.000679  0.001598  0.001722 -0.001369  0.003427  0.000501
  6C   1dyz       0.001589  0.001930  0.001740  0.001937 -0.001287 -0.006623
  6C   1dx2y2    -0.002456 -0.002676  0.001927  0.003455 -0.000415  0.000973
  6C   1dxy       0.000994  0.001788  0.001126 -0.001308  0.000109 -0.000453
  6C   2dz2       0.000747  0.001076 -0.000724 -0.001982  0.002623 -0.003771
  6C   2dxz      -0.001022  0.000524 -0.001070 -0.007812  0.001997  0.007921
  6C   2dyz       0.000045 -0.001122 -0.003468 -0.005288 -0.006671 -0.003467
  6C   2dx2y2    -0.001501 -0.002973 -0.005420 -0.007995  0.011778  0.004527
  6C   2dxy       0.000200  0.002027  0.001707 -0.002514  0.004909 -0.005062
  6C   1f0       -0.000336 -0.000297 -0.000543 -0.001148 -0.000156 -0.000098
  6C   1f+1      -0.000507 -0.002484 -0.003973 -0.001823  0.001134 -0.000362
  6C   1f-1      -0.000621 -0.002377 -0.003580 -0.001614 -0.001072 -0.002110
  6C   1f+2       0.000359  0.000376  0.000380  0.000944  0.003015  0.001047
[...]
     29      -0.010821   0.002993  -0.004505   0.000299   0.004981  -0.006443
     30       0.039888  -0.000410   0.000816  -0.000433  -0.002899   0.002687
     31       0.092448  -0.004487   0.006930  -0.002949  -0.010204   0.008302
     32       0.264356   0.001179   0.000971  -0.002075  -0.011137   0.011230
     33      -0.142673  -0.007434   0.009756  -0.001751  -0.005875   0.011381
     34      -0.074764  -0.000104   0.000211   0.000048   0.002033  -0.000477
     35      -0.197353  -0.000794   0.006419   0.000543  -0.005627   0.017674
     36      -0.020669  -0.001861  -0.001466   0.005250   0.003338   0.001474
     37       0.000519  -0.007495  -0.015637   0.042640  -0.018869  -0.005426
     38      -0.003254  -0.013246  -0.028536  -0.025510  -0.028766  -0.008486
     39       0.089703  -0.074496  -0.131715   0.311670  -0.160324  -0.051286
     40       0.029669  -0.016507  -0.029082   0.123864  -0.043319  -0.014201
     41       0.001954   0.212307   0.421572   0.363811   0.371999   0.108468
     42       0.071020   0.125728   0.257499  -0.076476   0.214007   0.057981
     43      -0.026453  -0.042046  -0.099034  -0.601500  -0.059498  -0.019714
     44      -0.024954  -0.037641  -0.077295   0.362400  -0.085018  -0.022310
     45       0.079548  -0.050346  -0.095431  -0.320021  -0.094680  -0.035710
     46      -0.029229   0.204179   0.394773  -0.211910   0.382193   0.110931
     47       0.034487   0.075374   0.144713  -0.316799   0.135498   0.034222
                 36         37         38         39         40         41    
      0      -0.001635   0.001428   0.007782  -0.035869  -0.002324  -0.001064
      1       0.001342  -0.000310  -0.016571   0.027273  -0.047214  -0.024122
      2      -0.000332  -0.002038  -0.006488   0.045947   0.023667   0.010841
      3       0.002483  -0.005086  -0.061691   0.146683  -0.115007  -0.057197
      4       0.002438   0.020307   0.253393  -0.623187   0.442533   0.229458
      5       0.005286  -0.001044  -0.003825   0.018388   0.001624   0.000534
      6       0.000517  -0.013324  -0.038541   0.283979   0.147381   0.071495
      7       0.000410  -0.013992  -0.046190   0.296664   0.134577   0.062605
      8       0.000463   0.023211   0.082572  -0.574292  -0.289326  -0.136076
      9       0.005431   0.001010  -0.029576  -0.006060   0.015786   0.010503
     10       0.000212   0.005630   0.053400   0.019173   0.032647   0.011105
     11      -0.001570  -0.003357   0.025768   0.001640  -0.038746  -0.022033
     12      -0.015751   0.013274   0.200565   0.060776   0.048105   0.006258
     13      -0.009924  -0.051432  -0.830494  -0.243411  -0.168060  -0.007299
     14      -0.003549  -0.002498   0.017961   0.003718  -0.008295  -0.004435
     15       0.010262  -0.026878   0.156886   0.007937  -0.237989  -0.132137
     16       0.002532  -0.025050   0.181063   0.013991  -0.234037  -0.132104
     17       0.002680   0.056149  -0.329920  -0.016488   0.481543   0.270859
     18      -0.017967  -0.036455   0.003223   0.000875   0.005653   0.002399
     19      -0.013913  -0.023755  -0.007811  -0.009241  -0.016030  -0.008381
     20       0.012026   0.062898   0.000296   0.002729  -0.001567  -0.000152
     21       0.027737   0.406618  -0.006850   0.015819  -0.009302  -0.001530
     22       0.006249   0.388003  -0.009027   0.010165  -0.016259  -0.005035
     23       0.050838  -0.809184   0.011689  -0.026733   0.022627   0.004849
     24       0.015915   0.013895  -0.029321  -0.025441  -0.054464  -0.028087
     25      -0.008785  -0.117169   0.113802   0.104246   0.214166   0.108730
     26      -0.042921   0.024020  -0.006498  -0.004901  -0.011163  -0.005715
     27      -0.042635   0.001162  -0.000292   0.000218  -0.000321   0.000003
     28      -0.045407   0.001228   0.000016   0.000093   0.000232   0.000132
     29      -0.037861   0.002142  -0.000288  -0.000044  -0.000113   0.000025
     30       0.059465  -0.007065   0.000668  -0.001165   0.000593   0.000092
     31       0.672275   0.007993  -0.002498   0.000392  -0.001044   0.000172
     32       0.163029  -0.000938  -0.002085  -0.000253   0.000006   0.000412
     33       0.660609   0.007701  -0.002220  -0.000499   0.000069   0.000390
     34       0.117435  -0.005394  -0.003683  -0.003689  -0.004369  -0.002209
     35       0.235849  -0.002037  -0.000883  -0.000223   0.000723   0.000431
     36       0.000201  -0.000313   0.003746   0.001116  -0.021588   0.043672
     37      -0.000274  -0.000232   0.001452  -0.004381   0.013926  -0.002464
     38      -0.000537  -0.000200   0.000966  -0.007941  -0.003198  -0.005213
     39       0.001050   0.000605  -0.004055  -0.012587   0.096705  -0.123234
     40      -0.000044  -0.001573   0.025590   0.047214  -0.367628   0.480387
     41       0.000076   0.000243  -0.000285  -0.004851   0.011709  -0.018863
     42      -0.003257   0.000454  -0.016433   0.022516   0.076252  -0.152563
     43      -0.000279   0.001587  -0.026263   0.031717   0.107837  -0.207061
     44       0.001247   0.003246  -0.047437   0.057350   0.187806  -0.379324
     45      -0.000108   0.002733  -0.018294  -0.025170   0.081593  -0.244969
     46      -0.000808   0.002084  -0.018996  -0.026509   0.087704  -0.245124
     47      -0.001115  -0.003749   0.037944   0.043980  -0.159228   0.464282
                 42         43         44         45         46         47    
      0       0.008264  -0.003824  -0.002930  -0.004376   0.000081  -0.000043
      1       0.042194  -0.031063  -0.025098   0.002749  -0.000152   0.000021
      2      -0.030314   0.018609   0.014838   0.006791  -0.000130   0.000161
      3       0.086390  -0.065675  -0.053476   0.014867  -0.000429  -0.000171
      4      -0.331764   0.265980   0.208298  -0.060831   0.000727  -0.000402
      5      -0.002563   0.003179  -0.000738   0.000601  -0.000211  -0.000297
      6      -0.184075   0.111374   0.087819   0.035113  -0.000319   0.000290
      7      -0.175101   0.106166   0.083843   0.034644  -0.000290   0.000280
      8       0.367727  -0.226368  -0.172932  -0.070423   0.000815  -0.000658
      9       0.007572  -0.010268  -0.001542  -0.000250  -0.000094   0.000324
     10       0.015719  -0.048930  -0.008311  -0.000497   0.000077  -0.000280
     11      -0.018771   0.036764   0.005959   0.000159   0.000172  -0.000205
     12       0.020179  -0.096215  -0.015360  -0.000777   0.001159   0.001639
     13      -0.079488   0.368155   0.065842  -0.000667   0.000487   0.000590
     14      -0.003905   0.002100   0.001665  -0.000647  -0.000079   0.000474
     15      -0.110217   0.217637   0.033709   0.002382  -0.000652   0.000164
     16      -0.110315   0.212514   0.033515   0.002938  -0.000309  -0.000024
     17       0.228690  -0.440518  -0.072310  -0.007613   0.000212   0.000574
     18       0.013833   0.007904   0.000247  -0.000448   0.000719  -0.001067
     19      -0.060337  -0.051160  -0.002951   0.000489   0.002319   0.001893
     20       0.006367   0.011227   0.000959   0.000242  -0.002810   0.000350
     21       0.023293   0.054988   0.006354   0.002352  -0.006648   0.000838
     22       0.003547   0.037453   0.004493   0.001764  -0.007494  -0.000088
     23      -0.035656  -0.095642  -0.009888  -0.003416   0.006277  -0.000057
     24      -0.183738  -0.148389  -0.009261   0.002283   0.003904   0.004010
     25       0.720620   0.568494   0.031475  -0.007457  -0.014031  -0.015658
     26      -0.039838  -0.032712  -0.002094   0.000560   0.002983   0.001066
     27      -0.000715  -0.000443  -0.000017   0.000078   0.032948  -0.061872
     28       0.001072   0.001173   0.000097  -0.000016   0.046231   0.050621
     29      -0.000357  -0.000411  -0.000051   0.000014   0.002585  -0.005551
     30       0.001682   0.000543  -0.000105  -0.000004  -0.623313   0.767111
     31      -0.000432   0.001202   0.000146   0.000272   0.105390  -0.086349
     32      -0.002566  -0.002999  -0.000192   0.000150  -0.043975   0.035498
     33       0.003013   0.004844   0.000494  -0.000073   0.159823   0.095402
     34      -0.017141  -0.013890  -0.000577   0.000009  -0.753890  -0.621001
     35       0.003453   0.004460   0.000479  -0.000040   0.030638   0.037231
     36      -0.002047   0.001675  -0.009712   0.004011  -0.000007   0.000013
     37      -0.013502   0.017992  -0.076759   0.042507   0.000019  -0.000037
     38       0.009921  -0.010123   0.040413   0.080778   0.000045  -0.000039
     39      -0.032869   0.043425  -0.185850   0.085953   0.000032  -0.000060
     40       0.117440  -0.160503   0.653880  -0.304044  -0.000061   0.000208
     41      -0.000954   0.002422  -0.013755   0.030584  -0.000002   0.000020
     42      -0.003765   0.001652   0.015542  -0.303923   0.000229  -0.000200
     43      -0.009536   0.006494   0.004957  -0.383752  -0.000013   0.000038
     44      -0.004606  -0.002389   0.051248  -0.698723   0.000038   0.000012
     45       0.060914  -0.064265   0.286435   0.173417   0.000051  -0.000041
     46       0.057035  -0.059959   0.260676   0.178188   0.000100  -0.000046
     47      -0.114025   0.121209  -0.521565  -0.299449  -0.000160   0.000095


-----------
IR SPECTRUM
-----------

 Mode    freq (cm**-1)   T**2         TX         TY         TZ
-------------------------------------------------------------------
   6:        92.88   11.802624  (  2.180602  -2.648693  -0.178949)
   7:       108.00    1.590855  (  0.340110   0.916004   0.797569)
   8:       172.27    5.879627  ( -1.617894   1.797432   0.176874)
   9:       215.76   56.910441  (  6.012517  -4.231113   1.690493)
  10:       242.20    0.441562  (  0.588410  -0.151538   0.269020)
  11:       385.04    0.200046  ( -0.055976   0.011585  -0.443597)
  12:       422.56   12.658282  ( -2.547459   0.558953  -2.419981)
  13:       725.18    9.438092  (  0.749231   2.228738  -1.977238)
  14:       783.22   20.080354  (  0.642937  -0.812186  -4.359741)
  15:       839.26  176.265442  ( -0.429796  -0.039344  13.269483)
  16:       876.62    6.452697  ( -1.191231  -0.914205   2.048876)
  17:       928.79    6.585725  ( -1.001808  -0.575948   2.291373)
  18:       940.26   15.001437  (  0.663681   0.847478   3.720584)
  19:      1016.91    1.266961  ( -1.025699  -0.463508   0.007896)
  20:      1025.71    8.233980  (  2.315840   1.262650   1.129858)
  21:      1057.88    6.893509  ( -1.916975  -1.551350  -0.901128)
  22:      1124.95   14.081321  (  1.872163   0.732907  -3.168465)
  23:      1188.21    0.820833  ( -0.023708   0.902554  -0.075280)
  24:      1235.68    2.595771  (  0.926463   1.317795  -0.029202)
  25:      1274.35    1.070621  ( -0.775531  -0.004973  -0.684944)
  26:      1289.37    0.696253  ( -0.550274  -0.611645  -0.139074)
  27:      1293.95    0.966409  ( -0.188239  -0.903860  -0.337658)
  28:      1339.41    1.047546  ( -0.943325  -0.314202  -0.242820)
  29:      1364.99    2.872285  (  1.687348  -0.142785   0.068950)
  30:      1374.58   14.518371  ( -2.721475  -1.498500  -2.206002)
  31:      1428.71    0.746523  (  0.299670   0.386821   0.712103)
  32:      1441.55    0.572733  (  0.613327   0.156584   0.414783)
  33:      1446.94    9.610570  ( -0.338127  -2.618276   1.625075)
  34:      1457.58    6.867066  ( -0.106741   1.258521   2.296040)
  35:      1469.95    5.333594  ( -1.838039   1.137608   0.813052)
  36:      1582.61   42.436986  (  4.096467   5.064676   0.070743)
  37:      2870.66  133.755455  ( -4.140054  -0.362626  10.792771)
  38:      2922.15   22.154200  ( -1.540136   3.569944   2.652863)
  39:      2933.30   78.650664  ( -4.964203   4.414222   5.875542)
  40:      2944.58   12.403686  ( -0.833472  -2.028071  -2.756073)
  41:      2946.03   73.458817  (  7.958226  -2.696792  -1.689013)
  42:      2957.22   29.747444  (  3.288583  -1.987598  -3.870674)
  43:      2972.10  138.551289  ( -0.361688 -10.622962   5.056990)
  44:      2997.86  129.460254  ( -1.297666  -9.914207   5.429992)
  45:      3001.34   77.099473  (  0.233339   4.005328   7.810402)
  46:      3354.18    0.829955  (  0.429181   0.749112   0.290843)
  47:      3421.84    0.390086  (  0.361117  -0.497673  -0.109552)

The first frequency considered to be a vibration is 6
The total number of vibrations considered is 42


--------------------------
THERMOCHEMISTRY AT 298.15K
--------------------------

Temperature         ... 298.15 K
Pressure            ... 1.00 atm
Total Mass          ... 73.14 AMU

Throughout the following assumptions are being made:
  (1) The electronic state is orbitally nondegenerate
  (2) There are no thermally accessible electronically excited states
  (3) Hindered rotations indicated by low frequency modes are not
      treated as such but are treated as vibrations and this may
      cause some error
  (4) All equations used are the standard statistical mechanics
      equations for an ideal gas
  (5) All vibrations are strictly harmonic

freq.      92.88  E(vib)   ...       0.47 
freq.     108.00  E(vib)   ...       0.45 
freq.     172.27  E(vib)   ...       0.38 
freq.     215.76  E(vib)   ...       0.34 
freq.     242.20  E(vib)   ...       0.31 
freq.     385.04  E(vib)   ...       0.20 
freq.     422.56  E(vib)   ...       0.18 
freq.     725.18  E(vib)   ...       0.06 
freq.     783.22  E(vib)   ...       0.05 
freq.     839.26  E(vib)   ...       0.04 
freq.     876.62  E(vib)   ...       0.04 
freq.     928.79  E(vib)   ...       0.03 
freq.     940.26  E(vib)   ...       0.03 
freq.    1016.91  E(vib)   ...       0.02 
freq.    1025.71  E(vib)   ...       0.02 
freq.    1057.88  E(vib)   ...       0.02 
freq.    1124.95  E(vib)   ...       0.01 
freq.    1188.21  E(vib)   ...       0.01 
freq.    1235.68  E(vib)   ...       0.01 
freq.    1274.35  E(vib)   ...       0.01 
freq.    1289.37  E(vib)   ...       0.01 
freq.    1293.95  E(vib)   ...       0.01 
freq.    1339.41  E(vib)   ...       0.01 
freq.    1364.99  E(vib)   ...       0.01 
freq.    1374.58  E(vib)   ...       0.01 
freq.    1428.71  E(vib)   ...       0.00 
freq.    1441.55  E(vib)   ...       0.00 
freq.    1446.94  E(vib)   ...       0.00 
freq.    1457.58  E(vib)   ...       0.00 
freq.    1469.95  E(vib)   ...       0.00 
freq.    1582.61  E(vib)   ...       0.00 
freq.    2870.66  E(vib)   ...       0.00 
freq.    2922.15  E(vib)   ...       0.00 
freq.    2933.30  E(vib)   ...       0.00 
freq.    2944.58  E(vib)   ...       0.00 
freq.    2946.03  E(vib)   ...       0.00 
freq.    2957.22  E(vib)   ...       0.00 
freq.    2972.10  E(vib)   ...       0.00 
freq.    2997.86  E(vib)   ...       0.00 
freq.    3001.34  E(vib)   ...       0.00 
freq.    3354.18  E(vib)   ...       0.00 
freq.    3421.84  E(vib)   ...       0.00 

------------
INNER ENERGY
------------

The inner energy is: U= E(el) + E(ZPE) + E(vib) + E(rot) + E(trans)
    E(el)   - is the total energy from the electronic structure calculation
              = E(kin-el) + E(nuc-el) + E(el-el) + E(nuc-nuc)
    E(ZPE)  - the the zero temperature vibrational energy from the frequency calculation
    E(vib)  - the the finite temperature correction to E(ZPE) due to population
              of excited vibrational states
    E(rot)  - is the rotational thermal energy
    E(trans)- is the translational thermal energy

Summary of contributions to the inner energy U:
Electronic energy                ...   -213.78529060 Eh
Zero point energy                ...      0.14458761 Eh      90.73 kcal/mol
Thermal vibrational correction   ...      0.00437539 Eh       2.75 kcal/mol
Thermal rotational correction    ...      0.00141627 Eh       0.89 kcal/mol
Thermal translational correction ...      0.00141627 Eh       0.89 kcal/mol
-----------------------------------------------------------------------
Total thermal energy                   -213.63349506 Eh


Summary of corrections to the electronic energy:
(perhaps to be used in another calculation)
Total thermal correction                  0.00720793 Eh       4.52 kcal/mol
Non-thermal (ZPE) correction              0.14458761 Eh      90.73 kcal/mol
-----------------------------------------------------------------------
Total correction                          0.15179554 Eh      95.25 kcal/mol


--------
ENTHALPY
--------

The enthalpy is H = U + kB*T
                kB is Boltzmann's constant
Total free energy                 ...   -213.63349506 Eh 
Thermal Enthalpy correction       ...      0.00094421 Eh       0.59 kcal/mol
-----------------------------------------------------------------------
Total Enthalpy                    ...   -213.63255085 Eh


Note: Only C1 symmetry has been detected, increase convergence thresholds 
      if your molecule has a higher symmetry. Symmetry factor of 1.0 is   
      used for the rotational entropy correction. 
 

Note: Rotational entropy computed according to Herzberg 
Infrared and Raman Spectra, Chapter V,1, Van Nostrand Reinhold, 1945 
Point Group:  C1, Symmetry Number:   1  
Rotational constants in cm-1:     0.598323     0.064325     0.061029 

Vibrational entropy computed according to the QRRHO of S. Grimme
Chem.Eur.J. 2012 18 9955


-------
ENTROPY
-------

The entropy contributions are T*S = T*(S(el)+S(vib)+S(rot)+S(trans))
     S(el)   - electronic entropy
     S(vib)  - vibrational entropy
     S(rot)  - rotational entropy
     S(trans)- translational entropy
The entropies will be listed as mutliplied by the temperature to get
units of energy

Electronic entropy                ...      0.00000000 Eh      0.00 kcal/mol
Vibrational entropy               ...      0.00764123 Eh      4.79 kcal/mol
Rotational entropy                ...      0.01236877 Eh      7.76 kcal/mol
Translational entropy             ...      0.01842822 Eh     11.56 kcal/mol
-----------------------------------------------------------------------
Final entropy term                ...      0.03843823 Eh     24.12 kcal/mol

In case the symmetry of your molecule has not been determined correctly
or in case you have a reason to use a different symmetry number we print 
out the resulting rotational entropy values for sn=1,12 :
 --------------------------------------------------------
|  sn= 1 | S(rot)=       0.01236877 Eh      7.76 kcal/mol|
|  sn= 2 | S(rot)=       0.01171431 Eh      7.35 kcal/mol|
|  sn= 3 | S(rot)=       0.01133148 Eh      7.11 kcal/mol|
|  sn= 4 | S(rot)=       0.01105986 Eh      6.94 kcal/mol|
|  sn= 5 | S(rot)=       0.01084917 Eh      6.81 kcal/mol|
|  sn= 6 | S(rot)=       0.01067703 Eh      6.70 kcal/mol|
|  sn= 7 | S(rot)=       0.01053148 Eh      6.61 kcal/mol|
|  sn= 8 | S(rot)=       0.01040540 Eh      6.53 kcal/mol|
|  sn= 9 | S(rot)=       0.01029419 Eh      6.46 kcal/mol|
|  sn=10 | S(rot)=       0.01019471 Eh      6.40 kcal/mol|
|  sn=11 | S(rot)=       0.01010472 Eh      6.34 kcal/mol|
|  sn=12 | S(rot)=       0.01002257 Eh      6.29 kcal/mol|
 --------------------------------------------------------


-------------------
GIBBS FREE ENERGY
-------------------

The Gibbs free energy is G = H - T*S

Total enthalpy                    ...   -213.63255085 Eh 
Total entropy correction          ...     -0.03843823 Eh    -24.12 kcal/mol
-----------------------------------------------------------------------
Final Gibbs free energy         ...   -213.67098908 Eh

For completeness - the Gibbs free energy minus the electronic energy
G-E(el)                           ...      0.11430153 Eh     71.73 kcal/mol


Timings for individual modules:

Sum of individual times         ...      247.460 sec (=   4.124 min)
GTO integral calculation        ...        3.799 sec (=   0.063 min)   1.5 %
SCF iterations                  ...       36.075 sec (=   0.601 min)  14.6 %
SCF Gradient evaluation         ...       15.191 sec (=   0.253 min)   6.1 %
Geometry relaxation             ...        1.001 sec (=   0.017 min)   0.4 %
Analytical frequency calculation...      191.393 sec (=   3.190 min)  77.3 %
                             ****ORCA TERMINATED NORMALLY****
TOTAL RUN TIME: 0 days 0 hours 4 minutes 8 seconds 731 msec
