(SLURM) JOB ID:         457

                                 *****************
                                 * O   R   C   A *
                                 *****************

           --- An Ab Initio, DFT and Semiempirical electronic structure package ---

                  #######################################################
                  #                        -***-                        #
                  #          Department of theory and spectroscopy      #
                  #               Directorship: Frank Neese             #
                  #        Max Planck Institute fuer Kohlenforschung    #
                  #                Kaiser Wilhelm Platz 1               #
                  #                 D-45470 Muelheim/Ruhr               #
                  #                      Germany                        #
                  #                                                     #
                  #                  All rights reserved                #
                  #                        -***-                        #
                  #######################################################


                         Program Version 4.2.1 -  RELEASE  -


 With contributions from (in alphabetic order):
   Daniel Aravena         : Magnetic Suceptibility
   Michael Atanasov       : Ab Initio Ligand Field Theory (pilot matlab implementation)
   Alexander A. Auer      : GIAO ZORA, VPT2
   Ute Becker             : Parallelization
   Giovanni Bistoni       : ED, misc. LED, open-shell LED, HFLD
   Martin Brehm           : Molecular dynamics
   Dmytro Bykov           : SCF Hessian
   Vijay G. Chilkuri      : MRCI spin determinant printing, contributions to CSF-ICE
   Dipayan Datta          : RHF DLPNO-CCSD density
   Achintya Kumar Dutta   : EOM-CC, STEOM-CC
   Dmitry Ganyushin       : Spin-Orbit,Spin-Spin,Magnetic field MRCI
   Miquel Garcia          : C-PCM Hessian, Gaussian charge scheme
   Yang Guo               : DLPNO-NEVPT2, CIM, IAO-localization
   Andreas Hansen         : Spin unrestricted coupled pair/coupled cluster methods
   Benjamin Helmich-Paris : CASSCF linear response (MC-RPA)
   Lee Huntington         : MR-EOM, pCC
   Robert Izsak           : Overlap fitted RIJCOSX, COSX-SCS-MP3, EOM
   Christian Kollmar      : KDIIS, OOCD, Brueckner-CCSD(T), CCSD density
   Simone Kossmann        : Meta GGA functionals, TD-DFT gradient, OOMP2, MP2 Hessian
   Martin Krupicka        : AUTO-CI
   Lucas Lang             : DCDCAS
   Dagmar Lenk            : GEPOL surface, SMD
   Dimitrios Liakos       : Extrapolation schemes; Compound Job, initial MDCI parallelization
   Dimitrios Manganas     : Further ROCIS development; embedding schemes
   Dimitrios Pantazis     : SARC Basis sets
   Taras Petrenko         : DFT Hessian,TD-DFT gradient, ASA, ECA, R-Raman, ABS, FL, XAS/XES, NRVS
   Peter Pinski           : DLPNO-MP2, DLPNO-MP2 Gradient
   Christoph Reimann      : Effective Core Potentials
   Marius Retegan         : Local ZFS, SOC
   Christoph Riplinger    : Optimizer, TS searches, QM/MM, DLPNO-CCSD(T), (RO)-DLPNO pert. Triples
   Tobias Risthaus        : Range-separated hybrids, TD-DFT gradient, RPA, STAB
   Michael Roemelt        : Original ROCIS implementation
   Masaaki Saitow         : Open-shell DLPNO-CCSD energy and density
   Barbara Sandhoefer     : DKH picture change effects
   Avijit Sen             : IP-ROCIS
   Kantharuban Sivalingam : CASSCF convergence, NEVPT2, FIC-MRCI
   Bernardo de Souza      : ESD, SOC TD-DFT
   Georgi Stoychev        : AutoAux, RI-MP2 NMR
   Willem Van den Heuvel  : Paramagnetic NMR
   Boris Wezisla          : Elementary symmetry handling
   Frank Wennmohs         : Technical directorship


 We gratefully acknowledge several colleagues who have allowed us to
 interface, adapt or use parts of their codes:
   Stefan Grimme, W. Hujo, H. Kruse,             : VdW corrections, initial TS optimization,
                  C. Bannwarth                     DFT functionals, gCP, sTDA/sTD-DF
   Ed Valeev, F. Pavosevic, A. Kumar             : LibInt (2-el integral package), F12 methods
   Garnet Chan, S. Sharma, J. Yang, R. Olivares  : DMRG
   Ulf Ekstrom                                   : XCFun DFT Library
   Mihaly Kallay                                 : mrcc  (arbitrary order and MRCC methods)
   Andreas Klamt, Michael Diedenhofen            : otool_cosmo (COSMO solvation model)
   Jiri Pittner, Ondrej Demel                    : Mk-CCSD
   Frank Weinhold                                : gennbo (NPA and NBO analysis)
   Christopher J. Cramer and Donald G. Truhlar   : smd solvation model
   Lars Goerigk                                  : TD-DFT with DH, B97 family of functionals
   V. Asgeirsson, H. Jonsson                     : NEB implementation
   FAccTs GmbH                                   : IRC, NEB, NEB-TS, Multilevel, MM, QM/MM, CI optimization
   S Lehtola, MJT Oliveira, MAL Marques          : LibXC Library


 Your calculation uses the libint2 library for the computation of 2-el integrals
 For citations please refer to: http://libint.valeyev.net

 Your ORCA version has been built with support for libXC version: 4.2.3
 For citations please refer to: https://tddft.org/programs/libxc/

 This ORCA versions uses:
   CBLAS   interface :  Fast vector & matrix operations
   LAPACKE interface :  Fast linear algebra routines
   SCALAPACK package :  Parallel linear algebra routines




***************************************
The coordinates will be read from file: init.xyz
***************************************


Your calculation utilizes the SMD solvation module
Please cite in your paper:
A.V. Marenich, C.J. Cramer, D.G. Truhlar J. Phys. Chem. B, 113, (2009), 6378 

Your calculation utilizes the semiempirical GFN2-xTB method
Please cite in your paper:
C. Bannwarth, Ehlert S., S. Grimme,  J. Chem. Theory Comput., 15, (2019), 1652.
   

----- Orbital basis set information -----
Your calculation utilizes the basis: def2-SVP
   F. Weigend and R. Ahlrichs, Phys. Chem. Chem. Phys. 7, 3297 (2005).

================================================================================
                                        WARNINGS
                       Please study these warnings very carefully!
================================================================================

WARNING: Gradients needed for Numerical Frequencies
  ===> : Setting RunTyp to EnGrad

WARNING: The environment variable RSH_COMMAND is not set!
  ===> : All Displacements for the Numerical Hessian calculation
         will be started on localhost

WARNING: Found dipole moment calculation with XTB calculation
  ===> : Switching off dipole moment calculation


INFO   : the flag for use of LIBINT has been found!

================================================================================
                                       INPUT FILE
================================================================================
NAME = /tmp/slurm-scratch/freq.457/freq.inp
|  1> ! XTB2 NumFreq
|  2> %maxcore 1150
|  3> 
|  4> * xyzfile 0 1 init.xyz
|  5> 
|  6> %cpcm
|  7>  smd true
|  8>  smdsolvent "ch2cl2"
|  9> end
| 10> %pal nprocs 9 end
| 11> 
| 12>                          ****END OF INPUT****
================================================================================

                     *******************************
                     * Energy+Gradient Calculation *
                     *******************************

      -----------------------------------------------------------      
     |                   =====================                   |     
     |                           x T B                           |     
     |                   =====================                   |     
     |                         S. Grimme                         |     
     |          Mulliken Center for Theoretical Chemistry        |     
     |                    University of Bonn                     |     
      -----------------------------------------------------------      

   * xtb version 6.3.2 (30e43eb) compiled by 'schneider@apollo14' on 2020-08-08

   xtb is free software: you can redistribute it and/or modify it under
   the terms of the GNU Lesser General Public License as published by
   the Free Software Foundation, either version 3 of the License, or
   (at your option) any later version.
   
   xtb is distributed in the hope that it will be useful,
   but WITHOUT ANY WARRANTY; without even the implied warranty of
   MERCHANTABILITY or FITNESS FOR A PARTICULAR PURPOSE.  See the
   GNU Lesser General Public License for more details.
   
   Cite this work as:
   * S. Grimme, C. Bannwarth, P. Shushkov, J. Chem. Theory Comput., 2017,
     13, 1989-2009. DOI: 10.1021/acs.jctc.7b00118
   * C. Bannwarth, S. Ehlert and S. Grimme., J. Chem. Theory Comput., 2019,
     15, 1652-1671. DOI: 10.1021/acs.jctc.8b01176
   * P. Pracht, E. Caldeweyher, S. Ehlert, S. Grimme, ChemRxiv, 2019, preprint.
     DOI: 10.26434/chemrxiv.8326202.v1
   
   for GFN-FF:
   * S. Spicher and S. Grimme, Angew. Chem. Int. Ed., 2020,
     DOI: 10.1002/anie.202004239
   
   for DFT-D4:
   * E. Caldeweyher, C. Bannwarth and S. Grimme, J. Chem. Phys., 2017,
     147, 034112. DOI: 10.1063/1.4993215
   * E. Caldeweyher, S. Ehlert, A. Hansen, H. Neugebauer, S. Spicher,
     C. Bannwarth and S. Grimme, J. Chem. Phys., 2019, 150, 154122.
     DOI: 10.1063/1.5090222
   
   for sTDA-xTB:
   * S. Grimme and C. Bannwarth, J. Chem. Phys., 2016, 145, 054103.
     DOI: 10.1063/1.4959605
   
   in the mass-spec context:
   * V. Asgeirsson, C. Bauer and S. Grimme, Chem. Sci., 2017, 8, 4879.
     DOI: 10.1039/c7sc00601b
   * J. Koopman and S. Grimme, ACS Omega 2019, 4, 12, 15120-15133.
     DOI: 10.1021/acsomega.9b02011
   
   for metadynamics refer to:
   * S. Grimme, J. Chem. Theory Comput., 2019, 155, 2847-2862
     DOI: 10.1021/acs.jctc.9b00143
   
   with help from (in alphabetical order)
   C. Bannwarth, F. Bohle, G. Brandenburg, E. Caldeweyher, M. Checinski,
   S. Dohm, S. Ehlert, S. Ehrlich, F. März, H. Neugebauer, J. Pisarek,
   P. Pracht, P. Shushkov, and S. Spicher.
   
 * started run on 2020/08/25 at 09:44:36.108     

           -------------------------------------------------
          |                Calculation Setup                |
           -------------------------------------------------

          program call               : /opt/orca/otool_xtb /tmp/slurm-scratch/freq.457/freq_XTB.xyz --grad -c 0 -u 0 -P 9 --namespace /tmp/slurm-scratch/freq.457/freq --gbsa CH2Cl2
          hostname                   : apollo14
          calculation namespace      : /tmp/slurm-scratch/freq.457/freq
          coordinate file            : /tmp/slurm-scratch/freq.457/freq_XTB.xyz
          omp threads                :                     9
          number of atoms            :                    49
          number of electrons        :                   112
          charge                     :                     0
          spin                       :                   0.0
          first test random number   :      0.93839150882899

   ID    Z sym.   atoms
    1    6 C      1-7, 12, 14, 27, 33, 36, 39, 42, 46
    2    1 H      8-10, 13, 15-18, 20, 21, 23-26, 28, 29, 31, 32, 34, 35, 37,
                  38, 40, 41, 43-45, 47-49
    3    7 N      11, 30
    4    8 O      19, 22

molecular fragmentation (1/2 indicates fragments):
1111111111111111111112221111122222222222222221111
# atoms in fragment 1/2:    30    19
 fragment masses (1/2) :      179.26       91.15
CMA distance (Bohr)    :   9.441
constraining FC (au)   :  0.0500
########################################################################
[WARNING] Please study the warnings concerning your input carefully
-1- prog_main_parseArguments: Process number higher than OMP_NUM_THREADS, I hope you know what you are doing.
########################################################################

           -------------------------------------------------
          |                 G F N 2 - x T B                 |
           -------------------------------------------------

        Reference                      10.1021/acs.jctc.8b01176
      * Hamiltonian:
        H0-scaling (s, p, d)           1.850000    2.230000    2.230000
        zeta-weighting                 0.500000
      * Dispersion:
        s8                             2.700000
        a1                             0.520000
        a2                             5.000000
        s9                             5.000000
      * Repulsion:
        kExp                           1.500000    1.000000
        rExp                           1.000000
      * Coulomb:
        alpha                          2.000000
        third order                    shell-resolved
        anisotropic                    true
        a3                             3.000000
        a5                             4.000000
        cn-shift                       1.200000
        cn-exp                         4.000000
        max-rad                        5.000000

      * Solvation model:               GBSA
        Solvent                        CH2Cl2
        Parameter file                 internal GFN2-xTB/GBSA
        Dielectric constant                8.9300E+00
        Reference state                gsolv [1 M gas/solution]
        Free energy shift                  4.4408E-03 Eh       2.7867E+00 kcal/mol
        Temperature                        2.9815E+02 K
        Density                            1.3300E+00 kg/L
        Solvent mass                       8.4930E+01 g/mol
        Interaction kernel             Still
        Born radius scaling (c1)           1.4917E+00
        Born radii integrator          GBOBC
        Born offset                        0.0000E+00 a0       0.0000E+00 AA
        H-bond correction              false
        Ion screening                  false
        Surface tension                    1.0000E-05 Eh       1.5569E+01 dyn/cm
        Grid points                               230 per atom

          ...................................................
          :                      SETUP                      :
          :.................................................:
          :  # basis functions                 106          :
          :  # atomic orbitals                 106          :
          :  # shells                           68          :
          :  # electrons                       112          :
          :  max. iterations                   250          :
          :  Hamiltonian                  GFN2-xTB          :
          :  restarted?                      false          :
          :  GBSA solvation                   true          :
          :  PC potential                    false          :
          :  electronic temp.          300.0000000     K    :
          :  accuracy                    1.0000000          :
          :  -> integral cutoff          0.2500000E+02      :
          :  -> integral neglect         0.1000000E-07      :
          :  -> SCF convergence          0.1000000E-05 Eh   :
          :  -> wf. convergence          0.1000000E-03 e    :
          :  Broyden damping             0.4000000          :
          ...................................................

 iter      E             dE          RMSdq      gap      omega  full diag
   1    -62.1107752 -0.621108E+02  0.326E+00    3.72       0.0  T
   2    -62.1766830 -0.659079E-01  0.182E+00    3.74       1.0  T
   3    -62.1772320 -0.548923E-03  0.650E-01    3.57       1.0  T
   4    -62.1785127 -0.128076E-02  0.230E-01    3.57       1.0  T
   5    -62.1808696 -0.235684E-02  0.678E-02    3.56       1.0  T
   6    -62.1809090 -0.394384E-04  0.276E-02    3.56       1.0  T
   7    -62.1809106 -0.158139E-05  0.108E-02    3.57       1.3  T
   8    -62.1809127 -0.206996E-05  0.352E-03    3.57       4.1  T
   9    -62.1809129 -0.247847E-06  0.155E-03    3.57       9.2  T
  10    -62.1809129 -0.626519E-08  0.583E-04    3.57      24.5  T
  11    -62.1809129 -0.524448E-08  0.226E-04    3.57      63.1  T

   *** convergence criteria satisfied after 11 iterations ***

         #    Occupation            Energy/Eh            Energy/eV
      -------------------------------------------------------------
         1        2.0000           -0.6942214             -18.8907
       ...           ...                  ...                  ...
        50        2.0000           -0.4249526             -11.5635
        51        2.0000           -0.4203811             -11.4392
        52        2.0000           -0.4182284             -11.3806
        53        2.0000           -0.4057785             -11.0418
        54        2.0000           -0.4035978             -10.9825
        55        2.0000           -0.3795273             -10.3275
        56        2.0000           -0.3650088              -9.9324 (HOMO)
        57                         -0.2339835              -6.3670 (LUMO)
        58                         -0.2301401              -6.2624
        59                         -0.1105575              -3.0084
        60                         -0.0363230              -0.9884
        61                          0.0013044               0.0355
       ...                                ...                  ...
       106                          0.6166421              16.7797
      -------------------------------------------------------------
                  HL-Gap            0.1310253 Eh            3.5654 eV
             Fermi-level           -0.2994961 Eh           -8.1497 eV

 SCC (total)                   0 d,  0 h,  0 min,  0.141 sec
 SCC setup                      ...        0 min,  0.004 sec (  2.538%)
 Dispersion                     ...        0 min,  0.003 sec (  1.856%)
 classical contributions        ...        0 min,  0.002 sec (  1.353%)
 integral evaluation            ...        0 min,  0.016 sec ( 11.376%)
 iterations                     ...        0 min,  0.062 sec ( 43.917%)
 molecular gradient             ...        0 min,  0.055 sec ( 38.736%)
 printout                       ...        0 min,  0.000 sec (  0.210%)

         :::::::::::::::::::::::::::::::::::::::::::::::::::::
         ::                     SUMMARY                     ::
         :::::::::::::::::::::::::::::::::::::::::::::::::::::
         :: total energy             -61.395566627728 Eh    ::
         :: total w/o Gsasa/hb       -61.370319786656 Eh    ::
         :: gradient norm              0.054865132412 Eh/a0 ::
         :: HOMO-LUMO gap              3.565379675400 eV    ::
         ::.................................................::
         :: SCC energy               -62.180912917505 Eh    ::
         :: -> isotropic ES            0.091289507626 Eh    ::
         :: -> anisotropic ES          0.004476766971 Eh    ::
         :: -> anisotropic XC          0.036506159053 Eh    ::
         :: -> dispersion             -0.038611949811 Eh    ::
         :: -> Gsolv                  -0.032698105386 Eh    ::
         ::    -> Gborn               -0.007451264314 Eh    ::
         ::    -> Gsasa               -0.029687670245 Eh    ::
         ::    -> Ghb                  0.000000000000 Eh    ::
         ::    -> Gshift               0.004440829173 Eh    ::
         :: repulsion energy           0.784837074000 Eh    ::
         :: add. restraining           0.000000000000 Eh    ::
         :: total charge              -0.000000000000 e     ::
         :::::::::::::::::::::::::::::::::::::::::::::::::::::

           -------------------------------------------------
          |                Property Printout                |
           -------------------------------------------------

    * Orbital Energies and Occupations

         #    Occupation            Energy/Eh            Energy/eV
      -------------------------------------------------------------
         1        2.0000           -0.6942214             -18.8907
       ...           ...                  ...                  ...
        44        2.0000           -0.4411650             -12.0047
        45        2.0000           -0.4382299             -11.9248
        46        2.0000           -0.4374389             -11.9033
        47        2.0000           -0.4356171             -11.8537
        48        2.0000           -0.4338870             -11.8067
        49        2.0000           -0.4253239             -11.5737
        50        2.0000           -0.4249526             -11.5635
        51        2.0000           -0.4203811             -11.4392
        52        2.0000           -0.4182284             -11.3806
        53        2.0000           -0.4057785             -11.0418
        54        2.0000           -0.4035978             -10.9825
        55        2.0000           -0.3795273             -10.3275
        56        2.0000           -0.3650088              -9.9324 (HOMO)
        57                         -0.2339835              -6.3670 (LUMO)
        58                         -0.2301401              -6.2624
        59                         -0.1105575              -3.0084
        60                         -0.0363230              -0.9884
        61                          0.0013044               0.0355
        62                          0.0147961               0.4026
        63                          0.0455834               1.2404
        64                          0.0727434               1.9794
        65                          0.0800001               2.1769
        66                          0.0902672               2.4563
        67                          0.0953379               2.5943
       ...                                ...                  ...
       106                          0.6166421              16.7797
      -------------------------------------------------------------
                  HL-Gap            0.1310253 Eh            3.5654 eV
             Fermi-level           -0.2994961 Eh           -8.1497 eV

     #   Z          covCN         q      C6AA      α(0)
     1   6 C        2.961    -0.012    28.312     8.728
     2   6 C        2.911    -0.034    28.848     8.807
     3   6 C        2.908    -0.031    28.769     8.795
     4   6 C        2.908    -0.030    28.748     8.792
     5   6 C        2.908    -0.029    28.716     8.787
     6   6 C        2.912    -0.036    28.898     8.815
     7   6 C        3.652     0.169    18.163     6.121
     8   1 H        0.925     0.046     2.372     2.408
     9   1 H        0.925     0.038     2.470     2.458
    10   1 H        0.925     0.042     2.428     2.437
    11   7 N        2.679    -0.281    27.264     7.755
    12   6 C        3.734     0.016    20.392     6.445
    13   1 H        0.859     0.188     1.172     1.696
    14   6 C        3.797    -0.069    21.832     6.653
    15   1 H        0.923     0.032     2.555     2.500
    16   1 H        0.922     0.014     2.824     2.628
    17   1 H        0.923     0.040     2.443     2.444
    18   1 H        0.923     0.043     2.409     2.427
    19   8 O        1.636    -0.514    23.210     6.503
    20   1 H        0.923     0.027     2.625     2.534
    21   1 H        0.803     0.295     0.737     1.349
    22   8 O        1.604    -0.623    25.736     6.847
    23   1 H        0.801     0.317     0.674     1.290
    24   1 H        0.804     0.284     0.772     1.380
    25   1 H        0.925     0.043     2.407     2.426
    26   1 H        0.925     0.039     2.458     2.452
    27   6 C        3.795    -0.052    21.507     6.604
    28   1 H        0.923     0.029     2.598     2.521
    29   1 H        0.923     0.031     2.567     2.506
    30   7 N        2.625    -0.376    29.712     8.096
    31   1 H        0.859     0.167     1.292     1.781
    32   1 H        0.859     0.138     1.487     1.910
    33   6 C        3.727     0.015    20.424     6.452
    34   1 H        0.923     0.032     2.552     2.499
    35   1 H        0.923     0.031     2.576     2.510
    36   6 C        3.795    -0.066    21.764     6.643
    37   1 H        0.923     0.029     2.595     2.519
    38   1 H        0.923     0.028     2.618     2.530
    39   6 C        3.795    -0.053    21.532     6.608
    40   1 H        0.923     0.030     2.580     2.512
    41   1 H        0.923     0.031     2.573     2.509
    42   6 C        3.745    -0.100    22.475     6.763
    43   1 H        0.923     0.033     2.538     2.491
    44   1 H        0.923     0.036     2.504     2.475
    45   1 H        0.923     0.034     2.534     2.490
    46   6 C        3.745    -0.102    22.511     6.768
    47   1 H        0.923     0.035     2.514     2.479
    48   1 H        0.923     0.036     2.498     2.472
    49   1 H        0.923     0.036     2.501     2.473

 Mol. C6AA /au·bohr⁶  :      19043.349502
 Mol. C8AA /au·bohr⁸  :     412673.588443
 Mol. α(0) /au        :        210.083346


Wiberg/Mayer (AO) data.
largest (>0.10) Wiberg bond orders for each atom

 ---------------------------------------------------------------------------
     #   Z sym  total        # sym  WBO       # sym  WBO       # sym  WBO
 ---------------------------------------------------------------------------
     1   6 C    3.984 --     2 C    1.415     6 C    1.414     7 C    0.982
                             4 C    0.110
     2   6 C    3.990 --     3 C    1.442     1 C    1.415     8 H    0.965
                             5 C    0.112
     3   6 C    3.990 --     2 C    1.442     4 C    1.439    26 H    0.971
                             6 C    0.112
     4   6 C    3.990 --     3 C    1.439     5 C    1.438    10 H    0.971
                             1 C    0.110
     5   6 C    3.990 --     6 C    1.443     4 C    1.438    25 H    0.970
                             2 C    0.112
     6   6 C    3.989 --     5 C    1.443     1 C    1.414     9 H    0.968
                             3 C    0.112
     7   6 C    3.943 --    11 N    1.071     1 C    0.982    20 H    0.957
                            19 O    0.879
     8   1 H    0.998 --     2 C    0.965
     9   1 H    0.999 --     6 C    0.968
    10   1 H    0.998 --     4 C    0.971
    11   7 N    3.126 --     7 C    1.071    12 C    0.997    13 H    0.909
    12   6 C    3.980 --    14 C    1.003    11 N    0.997    15 H    0.974
                            16 H    0.970
    13   1 H    0.965 --    11 N    0.909
    14   6 C    3.993 --    27 C    1.007    12 C    1.003    18 H    0.977
                            17 H    0.974
    15   1 H    0.999 --    12 C    0.974
    16   1 H    1.000 --    12 C    0.970
    17   1 H    0.998 --    14 C    0.974
    18   1 H    0.998 --    14 C    0.977
    19   8 O    1.945 --    21 H    0.899     7 C    0.879
    20   1 H    0.999 --     7 C    0.957
    21   1 H    0.913 --    19 O    0.899
    22   8 O    1.823 --    24 H    0.918    23 H    0.848
    23   1 H    0.900 --    22 O    0.848
    24   1 H    0.919 --    22 O    0.918
    25   1 H    0.998 --     5 C    0.970
    26   1 H    0.998 --     3 C    0.971
    27   6 C    3.996 --    46 C    1.019    14 C    1.007    29 H    0.978
                            28 H    0.978
    28   1 H    0.999 --    27 C    0.978
    29   1 H    0.999 --    27 C    0.978
    30   7 N    3.031 --    33 C    1.018    32 H    0.968    31 H    0.942
    31   1 H    0.972 --    30 N    0.942
    32   1 H    0.981 --    30 N    0.968
    33   6 C    3.983 --    30 N    1.018    36 C    0.996    35 H    0.976
                            34 H    0.975
    34   1 H    0.999 --    33 C    0.975
    35   1 H    0.999 --    33 C    0.976
    36   6 C    3.996 --    39 C    1.006    33 C    0.996    37 H    0.977
                            38 H    0.977
    37   1 H    0.999 --    36 C    0.977
    38   1 H    0.999 --    36 C    0.977
    39   6 C    3.996 --    42 C    1.019    36 C    1.006    40 H    0.978
                            41 H    0.978
    40   1 H    0.999 --    39 C    0.978
    41   1 H    0.999 --    39 C    0.978
    42   6 C    3.996 --    39 C    1.019    43 H    0.988    45 H    0.988
                            44 H    0.987
    43   1 H    0.999 --    42 C    0.988
    44   1 H    0.998 --    42 C    0.987
    45   1 H    0.999 --    42 C    0.988
    46   6 C    3.996 --    27 C    1.019    47 H    0.988    49 H    0.988
                            48 H    0.987
    47   1 H    0.999 --    46 C    0.988
    48   1 H    0.998 --    46 C    0.987
    49   1 H    0.999 --    46 C    0.988
 ---------------------------------------------------------------------------

Topologies differ in total number of bonds
Writing topology from bond orders to xtbtopo.mol

molecular dipole:
                 x           y           z       tot (Debye)
 q only:        0.221      -0.543      -0.101
   full:        0.139      -0.092      -0.172       0.607
molecular quadrupole (traceless):
                xx          xy          yy          xz          yz          zz
 q only:        7.960       3.853      -8.148       1.987      -0.132       0.187
  q+dip:        7.909      -1.550     -12.282       0.277      -0.981       4.373
   full:        8.804       0.786     -11.760      -0.053      -2.113       2.956


           -------------------------------------------------
          | TOTAL ENERGY              -61.395566627728 Eh   |
          | GRADIENT NORM               0.054865132412 Eh/α |
          | HOMO-LUMO GAP               3.565379675400 eV   |
           -------------------------------------------------

------------------------------------------------------------------------
 * finished run on 2020/08/25 at 09:44:36.359     
------------------------------------------------------------------------
 total:
 * wall-time:     0 d,  0 h,  0 min,  0.252 sec
 *  cpu-time:     0 d,  0 h,  0 min,  2.941 sec
 * ratio c/w:    11.680 speedup
 SCF:
 * wall-time:     0 d,  0 h,  0 min,  0.147 sec
 *  cpu-time:     0 d,  0 h,  0 min,  1.707 sec
 * ratio c/w:    11.588 speedup


-------------------------   --------------------
FINAL SINGLE POINT ENERGY       -61.395566627730
-------------------------   --------------------


----------------------------------------------------------------------------
                           ORCA NUMERICAL FREQUENCIES
                              (9-process run)
----------------------------------------------------------------------------

Number of atoms                ... 49
Central differences            ... used
Number of displacements        ... 294
Numerical increment            ... 5.000e-03 bohr
IR-spectrum generation         ... on
Raman-spectrum generation      ... off
Surface Crossing Hessian       ... off
List of participating nodes    ...  /tmp/slurm-scratch/freq.457/freq.hostnames

The output will be reduced. Please look at the following files:
SCF program output             ... >/tmp/slurm-scratch/freq.457/freq.lastscf
Integral program output        ... >/tmp/slurm-scratch/freq.457/freq.lastint
Gradient program output        ... >/tmp/slurm-scratch/freq.457/freq.lastgrad
Dipole moment program output   ... >/tmp/slurm-scratch/freq.457/freq.lastmom
AutoCI program output          ... >/tmp/slurm-scratch/freq.457/freq.lastautoci


         <<< Energy and Gradient at the input geometry >>>

        <<< Energy and Gradient at displaced geometries >>>
             <<<Displacing   1/coordinate 3 (+)>>>
             <<<Displacing   1/coordinate 2 (+)>>>
             <<<Displacing   1/coordinate 2 (-)>>>
             <<<Displacing   3/coordinate 2 (+)>>>
             <<<Displacing   2/coordinate 3 (+)>>>
             <<<Displacing   1/coordinate 3 (-)>>>
             <<<Displacing   1/coordinate 1 (+)>>>
             <<<Displacing   3/coordinate 1 (+)>>>
             <<<Displacing   2/coordinate 3 (-)>>>
             <<<Displacing   3/coordinate 2 (-)>>>
             <<<Displacing   3/coordinate 1 (-)>>>
             <<<Displacing   1/coordinate 1 (-)>>>
             <<<Displacing   2/coordinate 2 (+)>>>
             <<<Displacing   2/coordinate 1 (+)>>>
             <<<Displacing   3/coordinate 3 (+)>>>
             <<<Displacing   2/coordinate 1 (-)>>>
             <<<Displacing   2/coordinate 2 (-)>>>
             <<<Displacing   3/coordinate 3 (-)>>>
             <<<Displacing   5/coordinate 1 (+)>>>
             <<<Displacing   4/coordinate 2 (+)>>>
             <<<Displacing   4/coordinate 1 (+)>>>
             <<<Displacing   5/coordinate 1 (-)>>>
             <<<Displacing   5/coordinate 2 (+)>>>
             <<<Displacing   4/coordinate 2 (-)>>>
             <<<Displacing   4/coordinate 1 (-)>>>
             <<<Displacing   4/coordinate 3 (+)>>>
             <<<Displacing   5/coordinate 3 (+)>>>
             <<<Displacing   6/coordinate 2 (+)>>>
             <<<Displacing   5/coordinate 2 (-)>>>
             <<<Displacing   4/coordinate 3 (-)>>>
             <<<Displacing   5/coordinate 3 (-)>>>
             <<<Displacing   6/coordinate 2 (-)>>>
             <<<Displacing   6/coordinate 1 (+)>>>
             <<<Displacing   6/coordinate 3 (+)>>>
             <<<Displacing   6/coordinate 3 (-)>>>
             <<<Displacing   6/coordinate 1 (-)>>>
             <<<Displacing   7/coordinate 1 (+)>>>
             <<<Displacing   8/coordinate 1 (+)>>>
             <<<Displacing   7/coordinate 3 (+)>>>
             <<<Displacing   7/coordinate 1 (-)>>>
             <<<Displacing   8/coordinate 3 (+)>>>
             <<<Displacing   8/coordinate 1 (-)>>>
             <<<Displacing   8/coordinate 2 (+)>>>
             <<<Displacing   7/coordinate 2 (+)>>>
             <<<Displacing   7/coordinate 3 (-)>>>
             <<<Displacing   8/coordinate 3 (-)>>>
             <<<Displacing   8/coordinate 2 (-)>>>
             <<<Displacing   7/coordinate 2 (-)>>>
             <<<Displacing   9/coordinate 1 (+)>>>
             <<<Displacing   9/coordinate 3 (+)>>>
             <<<Displacing   9/coordinate 1 (-)>>>
             <<<Displacing   9/coordinate 3 (-)>>>
             <<<Displacing   9/coordinate 2 (+)>>>
             <<<Displacing   9/coordinate 2 (-)>>>
             <<<Displacing  10/coordinate 2 (+)>>>
             <<<Displacing  10/coordinate 2 (-)>>>
             <<<Displacing  10/coordinate 3 (+)>>>
             <<<Displacing  10/coordinate 1 (+)>>>
             <<<Displacing  10/coordinate 3 (-)>>>
             <<<Displacing  11/coordinate 1 (+)>>>
             <<<Displacing  11/coordinate 3 (+)>>>
             <<<Displacing  10/coordinate 1 (-)>>>
             <<<Displacing  11/coordinate 1 (-)>>>
             <<<Displacing  11/coordinate 3 (-)>>>
             <<<Displacing  12/coordinate 1 (+)>>>
             <<<Displacing  12/coordinate 1 (-)>>>
             <<<Displacing  11/coordinate 2 (+)>>>
             <<<Displacing  11/coordinate 2 (-)>>>
             <<<Displacing  12/coordinate 3 (+)>>>
             <<<Displacing  12/coordinate 2 (+)>>>
             <<<Displacing  12/coordinate 3 (-)>>>
             <<<Displacing  12/coordinate 2 (-)>>>
             <<<Displacing  13/coordinate 1 (+)>>>
             <<<Displacing  13/coordinate 1 (-)>>>
             <<<Displacing  13/coordinate 2 (+)>>>
             <<<Displacing  13/coordinate 3 (+)>>>
             <<<Displacing  14/coordinate 3 (+)>>>
             <<<Displacing  13/coordinate 2 (-)>>>
             <<<Displacing  13/coordinate 3 (-)>>>
             <<<Displacing  14/coordinate 3 (-)>>>
             <<<Displacing  15/coordinate 1 (+)>>>
             <<<Displacing  14/coordinate 1 (+)>>>
             <<<Displacing  15/coordinate 1 (-)>>>
             <<<Displacing  14/coordinate 2 (+)>>>
             <<<Displacing  14/coordinate 1 (-)>>>
             <<<Displacing  14/coordinate 2 (-)>>>
             <<<Displacing  15/coordinate 2 (+)>>>
             <<<Displacing  15/coordinate 2 (-)>>>
             <<<Displacing  15/coordinate 3 (+)>>>
             <<<Displacing  15/coordinate 3 (-)>>>
             <<<Displacing  17/coordinate 2 (+)>>>
             <<<Displacing  16/coordinate 1 (+)>>>
             <<<Displacing  17/coordinate 2 (-)>>>
             <<<Displacing  16/coordinate 1 (-)>>>
             <<<Displacing  17/coordinate 3 (+)>>>
             <<<Displacing  17/coordinate 1 (+)>>>
             <<<Displacing  16/coordinate 2 (+)>>>
             <<<Displacing  17/coordinate 3 (-)>>>
             <<<Displacing  16/coordinate 3 (+)>>>
             <<<Displacing  17/coordinate 1 (-)>>>
             <<<Displacing  16/coordinate 2 (-)>>>
             <<<Displacing  16/coordinate 3 (-)>>>
             <<<Displacing  18/coordinate 1 (+)>>>
             <<<Displacing  18/coordinate 1 (-)>>>
             <<<Displacing  18/coordinate 2 (+)>>>
             <<<Displacing  18/coordinate 2 (-)>>>
             <<<Displacing  18/coordinate 3 (+)>>>
             <<<Displacing  18/coordinate 3 (-)>>>
             <<<Displacing  19/coordinate 1 (+)>>>
             <<<Displacing  19/coordinate 1 (-)>>>
             <<<Displacing  19/coordinate 2 (+)>>>
             <<<Displacing  19/coordinate 2 (-)>>>
             <<<Displacing  20/coordinate 2 (+)>>>
             <<<Displacing  19/coordinate 3 (+)>>>
             <<<Displacing  20/coordinate 1 (+)>>>
             <<<Displacing  20/coordinate 2 (-)>>>
             <<<Displacing  21/coordinate 1 (+)>>>
             <<<Displacing  19/coordinate 3 (-)>>>
             <<<Displacing  20/coordinate 1 (-)>>>
             <<<Displacing  20/coordinate 3 (+)>>>
             <<<Displacing  21/coordinate 1 (-)>>>
             <<<Displacing  20/coordinate 3 (-)>>>
             <<<Displacing  21/coordinate 3 (+)>>>
             <<<Displacing  21/coordinate 3 (-)>>>
             <<<Displacing  21/coordinate 2 (+)>>>
             <<<Displacing  21/coordinate 2 (-)>>>
             <<<Displacing  22/coordinate 1 (+)>>>
             <<<Displacing  22/coordinate 1 (-)>>>
             <<<Displacing  22/coordinate 2 (+)>>>
             <<<Displacing  23/coordinate 2 (+)>>>
             <<<Displacing  23/coordinate 3 (+)>>>
             <<<Displacing  22/coordinate 2 (-)>>>
             <<<Displacing  23/coordinate 3 (-)>>>
             <<<Displacing  23/coordinate 1 (+)>>>
             <<<Displacing  23/coordinate 2 (-)>>>
             <<<Displacing  23/coordinate 1 (-)>>>
             <<<Displacing  22/coordinate 3 (+)>>>
             <<<Displacing  22/coordinate 3 (-)>>>
             <<<Displacing  24/coordinate 1 (+)>>>
             <<<Displacing  24/coordinate 1 (-)>>>
             <<<Displacing  24/coordinate 2 (+)>>>
             <<<Displacing  24/coordinate 3 (+)>>>
             <<<Displacing  24/coordinate 2 (-)>>>
             <<<Displacing  24/coordinate 3 (-)>>>
             <<<Displacing  25/coordinate 1 (+)>>>
             <<<Displacing  25/coordinate 2 (+)>>>
             <<<Displacing  25/coordinate 1 (-)>>>
             <<<Displacing  25/coordinate 3 (+)>>>
             <<<Displacing  25/coordinate 3 (-)>>>
             <<<Displacing  25/coordinate 2 (-)>>>
             <<<Displacing  26/coordinate 1 (+)>>>
             <<<Displacing  26/coordinate 2 (+)>>>
             <<<Displacing  26/coordinate 1 (-)>>>
             <<<Displacing  26/coordinate 2 (-)>>>
             <<<Displacing  26/coordinate 3 (+)>>>
             <<<Displacing  26/coordinate 3 (-)>>>
             <<<Displacing  27/coordinate 1 (+)>>>
             <<<Displacing  27/coordinate 1 (-)>>>
             <<<Displacing  27/coordinate 2 (+)>>>
             <<<Displacing  27/coordinate 3 (+)>>>
             <<<Displacing  27/coordinate 3 (-)>>>
             <<<Displacing  27/coordinate 2 (-)>>>
             <<<Displacing  28/coordinate 1 (+)>>>
             <<<Displacing  28/coordinate 2 (+)>>>
             <<<Displacing  28/coordinate 3 (+)>>>
             <<<Displacing  28/coordinate 1 (-)>>>
             <<<Displacing  28/coordinate 2 (-)>>>
             <<<Displacing  28/coordinate 3 (-)>>>
             <<<Displacing  29/coordinate 1 (+)>>>
             <<<Displacing  29/coordinate 2 (+)>>>
             <<<Displacing  29/coordinate 1 (-)>>>
             <<<Displacing  29/coordinate 2 (-)>>>
             <<<Displacing  29/coordinate 3 (+)>>>
             <<<Displacing  29/coordinate 3 (-)>>>
             <<<Displacing  30/coordinate 1 (+)>>>
             <<<Displacing  30/coordinate 1 (-)>>>
             <<<Displacing  30/coordinate 3 (+)>>>
             <<<Displacing  30/coordinate 2 (+)>>>
             <<<Displacing  30/coordinate 3 (-)>>>
             <<<Displacing  30/coordinate 2 (-)>>>
             <<<Displacing  31/coordinate 1 (+)>>>
             <<<Displacing  31/coordinate 2 (+)>>>
             <<<Displacing  31/coordinate 1 (-)>>>
             <<<Displacing  31/coordinate 2 (-)>>>
             <<<Displacing  31/coordinate 3 (+)>>>
             <<<Displacing  32/coordinate 2 (+)>>>
             <<<Displacing  32/coordinate 2 (-)>>>
             <<<Displacing  31/coordinate 3 (-)>>>
             <<<Displacing  32/coordinate 1 (+)>>>
             <<<Displacing  32/coordinate 1 (-)>>>
             <<<Displacing  32/coordinate 3 (+)>>>
             <<<Displacing  32/coordinate 3 (-)>>>
             <<<Displacing  33/coordinate 1 (+)>>>
             <<<Displacing  33/coordinate 1 (-)>>>
             <<<Displacing  33/coordinate 2 (+)>>>
             <<<Displacing  33/coordinate 2 (-)>>>
             <<<Displacing  33/coordinate 3 (+)>>>
             <<<Displacing  33/coordinate 3 (-)>>>
             <<<Displacing  34/coordinate 1 (+)>>>
             <<<Displacing  34/coordinate 2 (+)>>>
             <<<Displacing  34/coordinate 1 (-)>>>
             <<<Displacing  34/coordinate 2 (-)>>>
             <<<Displacing  34/coordinate 3 (+)>>>
             <<<Displacing  35/coordinate 1 (+)>>>
             <<<Displacing  34/coordinate 3 (-)>>>
             <<<Displacing  35/coordinate 1 (-)>>>
             <<<Displacing  35/coordinate 2 (+)>>>
             <<<Displacing  35/coordinate 2 (-)>>>
             <<<Displacing  35/coordinate 3 (+)>>>
             <<<Displacing  35/coordinate 3 (-)>>>
             <<<Displacing  36/coordinate 1 (+)>>>
             <<<Displacing  36/coordinate 1 (-)>>>
             <<<Displacing  36/coordinate 2 (+)>>>
             <<<Displacing  36/coordinate 2 (-)>>>
             <<<Displacing  36/coordinate 3 (+)>>>
             <<<Displacing  37/coordinate 2 (+)>>>
             <<<Displacing  37/coordinate 3 (+)>>>
             <<<Displacing  37/coordinate 1 (+)>>>
             <<<Displacing  36/coordinate 3 (-)>>>
             <<<Displacing  37/coordinate 3 (-)>>>
             <<<Displacing  37/coordinate 2 (-)>>>
             <<<Displacing  37/coordinate 1 (-)>>>
             <<<Displacing  38/coordinate 1 (+)>>>
             <<<Displacing  38/coordinate 1 (-)>>>
             <<<Displacing  38/coordinate 2 (+)>>>
             <<<Displacing  38/coordinate 3 (+)>>>
             <<<Displacing  38/coordinate 2 (-)>>>
             <<<Displacing  38/coordinate 3 (-)>>>
             <<<Displacing  39/coordinate 1 (+)>>>
             <<<Displacing  39/coordinate 1 (-)>>>
             <<<Displacing  39/coordinate 2 (+)>>>
             <<<Displacing  39/coordinate 2 (-)>>>
             <<<Displacing  39/coordinate 3 (+)>>>
             <<<Displacing  40/coordinate 1 (+)>>>
             <<<Displacing  40/coordinate 3 (+)>>>
             <<<Displacing  39/coordinate 3 (-)>>>
             <<<Displacing  40/coordinate 3 (-)>>>
             <<<Displacing  40/coordinate 1 (-)>>>
             <<<Displacing  40/coordinate 2 (+)>>>
             <<<Displacing  40/coordinate 2 (-)>>>
             <<<Displacing  41/coordinate 1 (+)>>>
             <<<Displacing  41/coordinate 1 (-)>>>
             <<<Displacing  41/coordinate 2 (+)>>>
             <<<Displacing  41/coordinate 3 (+)>>>
             <<<Displacing  41/coordinate 2 (-)>>>
             <<<Displacing  41/coordinate 3 (-)>>>
             <<<Displacing  42/coordinate 1 (+)>>>
             <<<Displacing  42/coordinate 1 (-)>>>
             <<<Displacing  42/coordinate 2 (+)>>>
             <<<Displacing  42/coordinate 2 (-)>>>
             <<<Displacing  42/coordinate 3 (+)>>>
             <<<Displacing  42/coordinate 3 (-)>>>
             <<<Displacing  43/coordinate 1 (+)>>>
             <<<Displacing  43/coordinate 2 (+)>>>
             <<<Displacing  43/coordinate 3 (+)>>>
             <<<Displacing  43/coordinate 1 (-)>>>
             <<<Displacing  43/coordinate 3 (-)>>>
             <<<Displacing  43/coordinate 2 (-)>>>
             <<<Displacing  44/coordinate 1 (+)>>>
             <<<Displacing  44/coordinate 1 (-)>>>
             <<<Displacing  44/coordinate 2 (+)>>>
             <<<Displacing  44/coordinate 3 (+)>>>
             <<<Displacing  44/coordinate 2 (-)>>>
             <<<Displacing  44/coordinate 3 (-)>>>
             <<<Displacing  45/coordinate 1 (+)>>>
             <<<Displacing  45/coordinate 1 (-)>>>
             <<<Displacing  45/coordinate 2 (+)>>>
             <<<Displacing  45/coordinate 3 (+)>>>
             <<<Displacing  45/coordinate 2 (-)>>>
             <<<Displacing  45/coordinate 3 (-)>>>
             <<<Displacing  46/coordinate 2 (+)>>>
             <<<Displacing  46/coordinate 1 (+)>>>
             <<<Displacing  46/coordinate 2 (-)>>>
             <<<Displacing  46/coordinate 3 (+)>>>
             <<<Displacing  46/coordinate 1 (-)>>>
             <<<Displacing  46/coordinate 3 (-)>>>
             <<<Displacing  47/coordinate 1 (+)>>>
             <<<Displacing  47/coordinate 2 (+)>>>
             <<<Displacing  47/coordinate 1 (-)>>>
             <<<Displacing  47/coordinate 2 (-)>>>
             <<<Displacing  47/coordinate 3 (+)>>>
             <<<Displacing  48/coordinate 1 (+)>>>
             <<<Displacing  47/coordinate 3 (-)>>>
             <<<Displacing  48/coordinate 1 (-)>>>
             <<<Displacing  48/coordinate 3 (+)>>>
             <<<Displacing  48/coordinate 2 (+)>>>
             <<<Displacing  48/coordinate 3 (-)>>>
             <<<Displacing  48/coordinate 2 (-)>>>
             <<<Displacing  49/coordinate 1 (+)>>>
             <<<Displacing  49/coordinate 1 (-)>>>
             <<<Displacing  49/coordinate 2 (+)>>>
             <<<Displacing  49/coordinate 3 (+)>>>
             <<<Displacing  49/coordinate 2 (-)>>>
             <<<Displacing  49/coordinate 3 (-)>>>

-----------------------
VIBRATIONAL FREQUENCIES
-----------------------

Scaling factor for frequencies =  1.000000000 (already applied!)

   0:         0.00 cm**-1
   1:         0.00 cm**-1
   2:         0.00 cm**-1
   3:         0.00 cm**-1
   4:         0.00 cm**-1
   5:         0.00 cm**-1
   6:        41.93 cm**-1
   7:        47.25 cm**-1
   8:        56.63 cm**-1
   9:        62.44 cm**-1
  10:        71.19 cm**-1
  11:        82.03 cm**-1
  12:        84.01 cm**-1
  13:       106.44 cm**-1
  14:       116.33 cm**-1
  15:       117.48 cm**-1
  16:       156.13 cm**-1
  17:       159.72 cm**-1
  18:       167.41 cm**-1
  19:       178.66 cm**-1
  20:       182.57 cm**-1
  21:       187.95 cm**-1
  22:       214.12 cm**-1
  23:       218.06 cm**-1
  24:       230.77 cm**-1
  25:       239.69 cm**-1
  26:       244.34 cm**-1
  27:       293.52 cm**-1
  28:       345.17 cm**-1
  29:       345.67 cm**-1
  30:       349.13 cm**-1
  31:       385.12 cm**-1
  32:       388.88 cm**-1
  33:       400.90 cm**-1
  34:       423.91 cm**-1
  35:       432.48 cm**-1
  36:       462.71 cm**-1
  37:       490.15 cm**-1
  38:       506.19 cm**-1
  39:       525.26 cm**-1
  40:       558.19 cm**-1
  41:       589.61 cm**-1
  42:       590.56 cm**-1
  43:       616.25 cm**-1
  44:       686.68 cm**-1
  45:       747.40 cm**-1
  46:       759.02 cm**-1
  47:       791.83 cm**-1
  48:       795.44 cm**-1
  49:       798.39 cm**-1
  50:       832.75 cm**-1
  51:       845.09 cm**-1
  52:       851.63 cm**-1
  53:       889.23 cm**-1
  54:       903.81 cm**-1
  55:       928.43 cm**-1
  56:       937.32 cm**-1
  57:       940.88 cm**-1
  58:       946.90 cm**-1
  59:       949.66 cm**-1
  60:       954.26 cm**-1
  61:       962.89 cm**-1
  62:       973.16 cm**-1
  63:       975.33 cm**-1
  64:      1034.05 cm**-1
  65:      1035.71 cm**-1
  66:      1045.43 cm**-1
  67:      1047.59 cm**-1
  68:      1057.44 cm**-1
  69:      1067.26 cm**-1
  70:      1081.17 cm**-1
  71:      1089.15 cm**-1
  72:      1098.21 cm**-1
  73:      1108.10 cm**-1
  74:      1123.85 cm**-1
  75:      1133.54 cm**-1
  76:      1140.28 cm**-1
  77:      1177.92 cm**-1
  78:      1183.73 cm**-1
  79:      1194.32 cm**-1
  80:      1209.57 cm**-1
  81:      1211.93 cm**-1
  82:      1227.66 cm**-1
  83:      1238.05 cm**-1
  84:      1259.83 cm**-1
  85:      1264.30 cm**-1
  86:      1268.52 cm**-1
  87:      1277.63 cm**-1
  88:      1278.95 cm**-1
  89:      1280.95 cm**-1
  90:      1286.71 cm**-1
  91:      1289.20 cm**-1
  92:      1303.29 cm**-1
  93:      1317.23 cm**-1
  94:      1339.26 cm**-1
  95:      1348.15 cm**-1
  96:      1374.44 cm**-1
  97:      1374.76 cm**-1
  98:      1409.43 cm**-1
  99:      1432.24 cm**-1
 100:      1433.20 cm**-1
 101:      1434.27 cm**-1
 102:      1446.49 cm**-1
 103:      1495.69 cm**-1
 104:      1499.64 cm**-1
 105:      1507.13 cm**-1
 106:      1509.35 cm**-1
 107:      1509.93 cm**-1
 108:      1510.05 cm**-1
 109:      1511.97 cm**-1
 110:      1512.48 cm**-1
 111:      1516.25 cm**-1
 112:      1516.45 cm**-1
 113:      1532.95 cm**-1
 114:      1542.78 cm**-1
 115:      1569.26 cm**-1
 116:      1578.39 cm**-1
 117:      2803.29 cm**-1
 118:      2854.92 cm**-1
 119:      2861.15 cm**-1
 120:      2867.91 cm**-1
 121:      2872.59 cm**-1
 122:      2882.74 cm**-1
 123:      2883.37 cm**-1
 124:      2887.12 cm**-1
 125:      2890.41 cm**-1
 126:      2892.96 cm**-1
 127:      2893.86 cm**-1
 128:      2902.77 cm**-1
 129:      2907.84 cm**-1
 130:      2910.28 cm**-1
 131:      2911.37 cm**-1
 132:      2915.25 cm**-1
 133:      2916.83 cm**-1
 134:      2927.90 cm**-1
 135:      2928.89 cm**-1
 136:      2975.76 cm**-1
 137:      2981.10 cm**-1
 138:      2987.30 cm**-1
 139:      2998.20 cm**-1
 140:      3025.39 cm**-1
 141:      3068.71 cm**-1
 142:      3081.22 cm**-1
 143:      3233.03 cm**-1
 144:      3302.74 cm**-1
 145:      3348.42 cm**-1
 146:      3434.31 cm**-1


------------
NORMAL MODES
------------

These modes are the cartesian displacements weighted by the diagonal matrix
M(i,i)=1/sqrt(m[i]) where m[i] is the mass of the displaced atom
Thus, these vectors are normalized but *not* orthogonal

                  0          1          2          3          4          5    
      0       0.000000   0.000000   0.000000   0.000000   0.000000   0.000000
      1       0.000000   0.000000   0.000000   0.000000   0.000000   0.000000
      2       0.000000   0.000000   0.000000   0.000000   0.000000   0.000000
      3       0.000000   0.000000   0.000000   0.000000   0.000000   0.000000
      4       0.000000   0.000000   0.000000   0.000000   0.000000   0.000000
      5       0.000000   0.000000   0.000000   0.000000   0.000000   0.000000
      6       0.000000   0.000000   0.000000   0.000000   0.000000   0.000000
      7       0.000000   0.000000   0.000000   0.000000   0.000000   0.000000
      8       0.000000   0.000000   0.000000   0.000000   0.000000   0.000000
      9       0.000000   0.000000   0.000000   0.000000   0.000000   0.000000
     10       0.000000   0.000000   0.000000   0.000000   0.000000   0.000000
     11       0.000000   0.000000   0.000000   0.000000   0.000000   0.000000
     12       0.000000   0.000000   0.000000   0.000000   0.000000   0.000000
     13       0.000000   0.000000   0.000000   0.000000   0.000000   0.000000
     14       0.000000   0.000000   0.000000   0.000000   0.000000   0.000000
     15       0.000000   0.000000   0.000000   0.000000   0.000000   0.000000
     16       0.000000   0.000000   0.000000   0.000000   0.000000   0.000000
     17       0.000000   0.000000   0.000000   0.000000   0.000000   0.000000
     18       0.000000   0.000000   0.000000   0.000000   0.000000   0.000000
     19       0.000000   0.000000   0.000000   0.000000   0.000000   0.000000
     20       0.000000   0.000000   0.000000   0.000000   0.000000   0.000000
     21       0.000000   0.000000   0.000000   0.000000   0.000000   0.000000
     22       0.000000   0.000000   0.000000   0.000000   0.000000   0.000000
     23       0.000000   0.000000   0.000000   0.000000   0.000000   0.000000
     24       0.000000   0.000000   0.000000   0.000000   0.000000   0.000000
     25       0.000000   0.000000   0.000000   0.000000   0.000000   0.000000
     26       0.000000   0.000000   0.000000   0.000000   0.000000   0.000000
     27       0.000000   0.000000   0.000000   0.000000   0.000000   0.000000
     28       0.000000   0.000000   0.000000   0.000000   0.000000   0.000000
     29       0.000000   0.000000   0.000000   0.000000   0.000000   0.000000
     30       0.000000   0.000000   0.000000   0.000000   0.000000   0.000000
     31       0.000000   0.000000   0.000000   0.000000   0.000000   0.000000
     32       0.000000   0.000000   0.000000   0.000000   0.000000   0.000000
     33       0.000000   0.000000   0.000000   0.000000   0.000000   0.000000
     34       0.000000   0.000000   0.000000   0.000000   0.000000   0.000000
     35       0.000000   0.000000   0.000000   0.000000   0.000000   0.000000
     36       0.000000   0.000000   0.000000   0.000000   0.000000   0.000000
     37       0.000000   0.000000   0.000000   0.000000   0.000000   0.000000
     38       0.000000   0.000000   0.000000   0.000000   0.000000   0.000000
     39       0.000000   0.000000   0.000000   0.000000   0.000000   0.000000
     40       0.000000   0.000000   0.000000   0.000000   0.000000   0.000000
     41       0.000000   0.000000   0.000000   0.000000   0.000000   0.000000
     42       0.000000   0.000000   0.000000   0.000000   0.000000   0.000000
     43       0.000000   0.000000   0.000000   0.000000   0.000000   0.000000
     44       0.000000   0.000000   0.000000   0.000000   0.000000   0.000000
     45       0.000000   0.000000   0.000000   0.000000   0.000000   0.000000
     46       0.000000   0.000000   0.000000   0.000000   0.000000   0.000000
     47       0.000000   0.000000   0.000000   0.000000   0.000000   0.000000
     48       0.000000   0.000000   0.000000   0.000000   0.000000   0.000000
     49       0.000000   0.000000   0.000000   0.000000   0.000000   0.000000
     50       0.000000   0.000000   0.000000   0.000000   0.000000   0.000000
     51       0.000000   0.000000   0.000000   0.000000   0.000000   0.000000
     52       0.000000   0.000000   0.000000   0.000000   0.000000   0.000000
     53       0.000000   0.000000   0.000000   0.000000   0.000000   0.000000
     54       0.000000   0.000000   0.000000   0.000000   0.000000   0.000000
     55       0.000000   0.000000   0.000000   0.000000   0.000000   0.000000
     56       0.000000   0.000000   0.000000   0.000000   0.000000   0.000000
     57       0.000000   0.000000   0.000000   0.000000   0.000000   0.000000
     58       0.000000   0.000000   0.000000   0.000000   0.000000   0.000000
     59       0.000000   0.000000   0.000000   0.000000   0.000000   0.000000
     60       0.000000   0.000000   0.000000   0.000000   0.000000   0.000000
     61       0.000000   0.000000   0.000000   0.000000   0.000000   0.000000
     62       0.000000   0.000000   0.000000   0.000000   0.000000   0.000000
     63       0.000000   0.000000   0.000000   0.000000   0.000000   0.000000
     64       0.000000   0.000000   0.000000   0.000000   0.000000   0.000000
     65       0.000000   0.000000   0.000000   0.000000   0.000000   0.000000
     66       0.000000   0.000000   0.000000   0.000000   0.000000   0.000000
     67       0.000000   0.000000   0.000000   0.000000   0.000000   0.000000
     68       0.000000   0.000000   0.000000   0.000000   0.000000   0.000000
     69       0.000000   0.000000   0.000000   0.000000   0.000000   0.000000
     70       0.000000   0.000000   0.000000   0.000000   0.000000   0.000000
     71       0.000000   0.000000   0.000000   0.000000   0.000000   0.000000
     72       0.000000   0.000000   0.000000   0.000000   0.000000   0.000000
     73       0.000000   0.000000   0.000000   0.000000   0.000000   0.000000
     74       0.000000   0.000000   0.000000   0.000000   0.000000   0.000000
     75       0.000000   0.000000   0.000000   0.000000   0.000000   0.000000
     76       0.000000   0.000000   0.000000   0.000000   0.000000   0.000000
     77       0.000000   0.000000   0.000000   0.000000   0.000000   0.000000
     78       0.000000   0.000000   0.000000   0.000000   0.000000   0.000000
     79       0.000000   0.000000   0.000000   0.000000   0.000000   0.000000
     80       0.000000   0.000000   0.000000   0.000000   0.000000   0.000000
     81       0.000000   0.000000   0.000000   0.000000   0.000000   0.000000
     82       0.000000   0.000000   0.000000   0.000000   0.000000   0.000000
     83       0.000000   0.000000   0.000000   0.000000   0.000000   0.000000
     84       0.000000   0.000000   0.000000   0.000000   0.000000   0.000000
     85       0.000000   0.000000   0.000000   0.000000   0.000000   0.000000
     86       0.000000   0.000000   0.000000   0.000000   0.000000   0.000000
     87       0.000000   0.000000   0.000000   0.000000   0.000000   0.000000
     88       0.000000   0.000000   0.000000   0.000000   0.000000   0.000000
     89       0.000000   0.000000   0.000000   0.000000   0.000000   0.000000
     90       0.000000   0.000000   0.000000   0.000000   0.000000   0.000000
     91       0.000000   0.000000   0.000000   0.000000   0.000000   0.000000
     92       0.000000   0.000000   0.000000   0.000000   0.000000   0.000000
     93       0.000000   0.000000   0.000000   0.000000   0.000000   0.000000
     94       0.000000   0.000000   0.000000   0.000000   0.000000   0.000000
     95       0.000000   0.000000   0.000000   0.000000   0.000000   0.000000
     96       0.000000   0.000000   0.000000   0.000000   0.000000   0.000000
     97       0.000000   0.000000   0.000000   0.000000   0.000000   0.000000
     98       0.000000   0.000000   0.000000   0.000000   0.000000   0.000000
     99       0.000000   0.000000   0.000000   0.000000   0.000000   0.000000
    100       0.000000   0.000000   0.000000   0.000000   0.000000   0.000000
    101       0.000000   0.000000   0.000000   0.000000   0.000000   0.000000
    102       0.000000   0.000000   0.000000   0.000000   0.000000   0.000000
    103       0.000000   0.000000   0.000000   0.000000   0.000000   0.000000
    104       0.000000   0.000000   0.000000   0.000000   0.000000   0.000000
    105       0.000000   0.000000   0.000000   0.000000   0.000000   0.000000
    106       0.000000   0.000000   0.000000   0.000000   0.000000   0.000000
    107       0.000000   0.000000   0.000000   0.000000   0.000000   0.000000
    108       0.000000   0.000000   0.000000   0.000000   0.000000   0.000000
    109       0.000000   0.000000   0.000000   0.000000   0.000000   0.000000
    110       0.000000   0.000000   0.000000   0.000000   0.000000   0.000000
    111       0.000000   0.000000   0.000000   0.000000   0.000000   0.000000
    112       0.000000   0.000000   0.000000   0.000000   0.000000   0.000000
    113       0.000000   0.000000   0.000000   0.000000   0.000000   0.000000
    114       0.000000   0.000000   0.000000   0.000000   0.000000   0.000000
    115       0.000000   0.000000   0.000000   0.000000   0.000000   0.000000
    116       0.000000   0.000000   0.000000   0.000000   0.000000   0.000000
    117       0.000000   0.000000   0.000000   0.000000   0.000000   0.000000
    118       0.000000   0.000000   0.000000   0.000000   0.000000   0.000000
    119       0.000000   0.000000   0.000000   0.000000   0.000000   0.000000
    120       0.000000   0.000000   0.000000   0.000000   0.000000   0.000000
    121       0.000000   0.000000   0.000000   0.000000   0.000000   0.000000
    122       0.000000   0.000000   0.000000   0.000000   0.000000   0.000000
    123       0.000000   0.000000   0.000000   0.000000   0.000000   0.000000
    124       0.000000   0.000000   0.000000   0.000000   0.000000   0.000000
    125       0.000000   0.000000   0.000000   0.000000   0.000000   0.000000
    126       0.000000   0.000000   0.000000   0.000000   0.000000   0.000000
    127       0.000000   0.000000   0.000000   0.000000   0.000000   0.000000
    128       0.000000   0.000000   0.000000   0.000000   0.000000   0.000000
    129       0.000000   0.000000   0.000000   0.000000   0.000000   0.000000
    130       0.000000   0.000000   0.000000   0.000000   0.000000   0.000000
    131       0.000000   0.000000   0.000000   0.000000   0.000000   0.000000
    132       0.000000   0.000000   0.000000   0.000000   0.000000   0.000000
    133       0.000000   0.000000   0.000000   0.000000   0.000000   0.000000
    134       0.000000   0.000000   0.000000   0.000000   0.000000   0.000000
    135       0.000000   0.000000   0.000000   0.000000   0.000000   0.000000
    136       0.000000   0.000000   0.000000   0.000000   0.000000   0.000000
    137       0.000000   0.000000   0.000000   0.000000   0.000000   0.000000
    138       0.000000   0.000000   0.000000   0.000000   0.000000   0.000000
    139       0.000000   0.000000   0.000000   0.000000   0.000000   0.000000
    140       0.000000   0.000000   0.000000   0.000000   0.000000   0.000000
    141       0.000000   0.000000   0.000000   0.000000   0.000000   0.000000
    142       0.000000   0.000000   0.000000   0.000000   0.000000   0.000000
    143       0.000000   0.000000   0.000000   0.000000   0.000000   0.000000
    144       0.000000   0.000000   0.000000   0.000000   0.000000   0.000000
    145       0.000000   0.000000   0.000000   0.000000   0.000000   0.000000
    146       0.000000   0.000000   0.000000   0.000000   0.000000   0.000000
                  6          7          8          9         10         11    
      0      -0.091375   0.034201   0.021895  -0.001360  -0.026590   0.003634
      1       0.006673  -0.009703  -0.007371  -0.028797   0.018661   0.042390
      2       0.018180  -0.015259   0.030060   0.006205  -0.015052  -0.007057
      3      -0.101882   0.025335  -0.012608  -0.013121  -0.079450  -0.016848
      4       0.014933  -0.018143   0.014578  -0.038620   0.055488   0.008322
      5       0.008764  -0.011535   0.003941   0.010160  -0.056723   0.012463
      6      -0.126964   0.025678  -0.047320  -0.031967  -0.118288  -0.050651
      7       0.007501  -0.016986   0.038370  -0.057382   0.113125  -0.043098
      8       0.025693  -0.011598   0.028593   0.022361  -0.028471   0.034120
      9      -0.138339   0.031738  -0.047326  -0.039167  -0.106023  -0.065823
     10      -0.004753  -0.009503   0.042725  -0.066373   0.136401  -0.062593
     11       0.050486  -0.014557   0.078310   0.030297   0.043059   0.036588
     12      -0.126736   0.037855  -0.012956  -0.029119  -0.053602  -0.049453
     13      -0.011956  -0.003891   0.022104  -0.058514   0.101869  -0.033788
     14       0.059451  -0.016980   0.104419   0.027481   0.085320   0.019662
     15      -0.104322   0.039388   0.020845  -0.011090  -0.013702  -0.015590
     16      -0.007469  -0.003295  -0.002872  -0.040523   0.044340   0.017646
     17       0.044655  -0.017891   0.081253   0.015549   0.057742  -0.001915
     18      -0.062219   0.039946   0.064338   0.013675   0.030875   0.030281
     19       0.006061  -0.005600  -0.037309  -0.010603  -0.055362   0.081047
     20      -0.002411  -0.019030   0.001004  -0.004104  -0.054146  -0.026147
     21      -0.088403   0.017887  -0.011620  -0.006803  -0.086223  -0.005308
     22       0.029262  -0.026690   0.012919  -0.031354   0.040910   0.023301
     23      -0.011638  -0.008870  -0.038222   0.000183  -0.101663   0.010731
     24      -0.096134   0.044343   0.046403  -0.003673   0.027034  -0.005149
     25      -0.013521   0.001999  -0.018115  -0.034854   0.018792   0.038929
     26       0.051698  -0.020428   0.100461   0.013348   0.089305  -0.014882
     27      -0.154781   0.031363  -0.072782  -0.051728  -0.136035  -0.088765
     28      -0.007954  -0.008557   0.061784  -0.078628   0.179263  -0.098353
     29       0.061549  -0.014263   0.095846   0.038599   0.064121   0.051446
     30      -0.052458   0.035101   0.045903  -0.010590   0.013181   0.065204
     31      -0.012914  -0.003615  -0.016579   0.027824  -0.029981   0.027774
     32      -0.030799  -0.030271  -0.010774   0.001573  -0.058764  -0.062960
     33      -0.027064   0.060300   0.049719  -0.005379   0.021836   0.081160
     34      -0.023936  -0.016469   0.019546   0.007907  -0.034964  -0.016008
     35      -0.048315  -0.047831  -0.019318   0.001598  -0.065352  -0.065050
     36      -0.063733   0.020441   0.043620  -0.014143   0.009437   0.033483
     37      -0.022612   0.000313  -0.007837   0.068193  -0.022543  -0.007047
     38      -0.033016  -0.044337  -0.015247  -0.012534  -0.064888  -0.069858
     39       0.012451   0.071098  -0.017384   0.003162  -0.023764   0.078576
     40      -0.061254  -0.026677   0.072488   0.004037   0.003440  -0.001521
     41      -0.088619  -0.064397  -0.018661   0.024419  -0.041331   0.012067
     42      -0.007023   0.081659   0.051347  -0.004605   0.027988   0.085318
     43       0.013522  -0.013539  -0.019637  -0.002633  -0.080059  -0.062101
     44      -0.040527  -0.032751  -0.011387   0.004092  -0.052906  -0.054341
     45      -0.056068   0.056141   0.098591  -0.010321   0.055981   0.085924
     46      -0.042001  -0.023440   0.049196   0.001482  -0.019024  -0.021958
     47      -0.043218  -0.064533  -0.033195  -0.011837  -0.097591  -0.110531
     48      -0.023833   0.036613   0.002925   0.006376  -0.002621   0.134359
     49      -0.088243  -0.021054   0.094432   0.016559   0.031585   0.030576
     50      -0.106059  -0.084744  -0.009623   0.024561  -0.032385   0.040700
     51       0.042526   0.080567  -0.067357   0.010571  -0.057994   0.075145
     52      -0.039268  -0.016459   0.036842   0.010403  -0.020139  -0.005007
     53      -0.073969  -0.031562  -0.035945   0.037086  -0.045744   0.002706
     54      -0.072430   0.043716   0.091207   0.060942   0.071255  -0.012165
     55       0.004859  -0.008030  -0.051905  -0.002643  -0.073164   0.089818
     56      -0.001432  -0.020005  -0.057855  -0.022818  -0.158128   0.031340
     57      -0.036455   0.043222   0.087313   0.008276   0.064510   0.056125
     58       0.022208  -0.009704  -0.073498  -0.038507  -0.112172   0.141288
     59       0.007316  -0.014460   0.033607   0.005805  -0.003322  -0.037153
     60      -0.074697   0.043526   0.096883   0.077191   0.084630  -0.024819
     61       0.008586  -0.006077  -0.054396  -0.029965  -0.098602   0.111406
     62      -0.001660  -0.014409  -0.033848  -0.026098  -0.171275   0.035286
     63      -0.040863  -0.008607  -0.158864   0.134651   0.367500  -0.065077
     64       0.054833  -0.048296  -0.160792   0.250471  -0.059386  -0.013141
     65      -0.011839  -0.040944  -0.319586  -0.151285   0.147904   0.068203
     66      -0.049695   0.001424  -0.107824   0.115408   0.316562  -0.051519
     67       0.044342  -0.041157  -0.138838   0.184097  -0.072296   0.022657
     68      -0.014370  -0.032784  -0.267947  -0.113438   0.083122   0.052641
     69      -0.047888  -0.002846  -0.136916   0.145635   0.343203  -0.062586
     70       0.050695  -0.054360  -0.212974   0.254629  -0.001219  -0.002695
     71      -0.003192  -0.048968  -0.352637  -0.165099   0.185038   0.065896
     72      -0.134074   0.041258  -0.012461  -0.034719  -0.043955  -0.061420
     73      -0.020279   0.000532   0.025734  -0.065445   0.118832  -0.049333
     74       0.077267  -0.018141   0.141314   0.034130   0.137817   0.023223
     75      -0.135770   0.020921  -0.072496  -0.039219  -0.158298  -0.063711
     76       0.013301  -0.022418   0.053392  -0.063978   0.139828  -0.066259
     77       0.018637  -0.008873   0.009436   0.025322  -0.061274   0.048086
     78       0.057763   0.116816  -0.043911  -0.001336  -0.052428   0.005448
     79      -0.090257  -0.056016   0.139993  -0.024782   0.033549  -0.026023
     80      -0.123335  -0.099053  -0.005974   0.033111  -0.021883   0.080196
     81       0.036608   0.100059  -0.007049  -0.011218  -0.028056   0.012976
     82      -0.106441  -0.069929   0.167250  -0.032483   0.051025  -0.020388
     83      -0.143834  -0.124813   0.019729   0.023233  -0.010054   0.086881
     84       0.091482   0.151226  -0.063057  -0.005481  -0.073239  -0.052598
     85      -0.076030  -0.049039   0.132881  -0.032676   0.017814  -0.065245
     86      -0.104811  -0.079425  -0.016566   0.031472  -0.032526   0.050012
     87       0.132128  -0.150402   0.019660  -0.022463  -0.025547  -0.048639
     88       0.034388   0.000592  -0.029306   0.183937  -0.095798  -0.120170
     89       0.014309   0.023742  -0.014603  -0.112084   0.000865  -0.234788
     90       0.117990  -0.124824   0.002707  -0.056607   0.004492  -0.034940
     91       0.037718  -0.009941  -0.038936   0.191522  -0.094676  -0.109781
     92       0.017527   0.002811  -0.058729  -0.103512   0.024243  -0.192686
     93       0.151549  -0.131675   0.041602   0.002352  -0.016281  -0.002615
     94       0.028178   0.012219   0.009010   0.177354  -0.125273  -0.173299
     95       0.008338   0.020066  -0.016960  -0.119260  -0.004478  -0.251752
     96       0.130428  -0.165228   0.017718  -0.011354  -0.035156  -0.071432
     97       0.032624   0.040957  -0.044195   0.117898  -0.057663  -0.055914
     98       0.038581   0.069607   0.030099  -0.086879   0.011615  -0.165787
     99       0.113604  -0.197024  -0.014367  -0.054426  -0.044627  -0.129089
    100       0.033204   0.045742  -0.057105   0.172746  -0.038312  -0.012529
    101       0.042283   0.077217   0.036119  -0.070286   0.015765  -0.147458
    102       0.133042  -0.183364   0.033009   0.059206  -0.055697  -0.105671
    103       0.032783   0.044107  -0.042821   0.093264  -0.057682  -0.056077
    104       0.040194   0.072786   0.046194  -0.150636  -0.001386  -0.188275
    105       0.151364  -0.118993   0.036824  -0.036678  -0.009047   0.032581
    106       0.037428   0.063450  -0.040882  -0.002548  -0.048759  -0.029540
    107       0.056390   0.103247   0.048260   0.006170   0.033598  -0.075048
    108       0.157375  -0.106310   0.032956  -0.136977   0.001637   0.063868
    109       0.036658   0.060122  -0.042102   0.022149  -0.048962  -0.032202
    110       0.057104   0.096793   0.040236   0.047714   0.039065  -0.066186
    111       0.166456  -0.085182   0.058339   0.028400   0.004830   0.108706
    112       0.031895   0.059315  -0.037357  -0.032256  -0.059738  -0.061212
    113       0.052083   0.094703   0.043481  -0.012927   0.028946  -0.096822
    114       0.145549  -0.134672   0.032391  -0.018418  -0.017717  -0.001553
    115       0.051481   0.093445  -0.040488  -0.116014  -0.025730   0.047995
    116       0.077310   0.155614   0.079431   0.067597   0.052565   0.036937
    117       0.132867  -0.166333   0.012778  -0.075548  -0.027567  -0.074134
    118       0.053319   0.096722  -0.043784  -0.110174  -0.024223   0.068050
    119       0.080447   0.163263   0.083596   0.081528   0.054973   0.056044
    120       0.139281  -0.145781   0.036299   0.072659  -0.030354  -0.034933
    121       0.052874   0.096160  -0.039647  -0.132684  -0.023134   0.053304
    122       0.079509   0.160930   0.085593   0.050103   0.056024   0.039571
    123       0.164755  -0.095658   0.048429  -0.044950   0.002925   0.103713
    124       0.060778   0.109962  -0.036851  -0.207427  -0.010472   0.089123
    125       0.089355   0.184224   0.093861   0.129925   0.060876   0.115100
    126       0.172107  -0.083773   0.050043  -0.106700   0.013018   0.139696
    127       0.059832   0.108731  -0.037163  -0.192449  -0.012352   0.086466
    128       0.088516   0.184009   0.093193   0.168598   0.057012   0.119497
    129       0.160083  -0.104802   0.044858  -0.034685  -0.002191   0.078205
    130       0.070750   0.128057  -0.032025  -0.254257   0.001514   0.142396
    131       0.100666   0.208265   0.106751   0.143890   0.071598   0.178442
    132       0.175358  -0.072336   0.061415  -0.011710   0.011628   0.166056
    133       0.058264   0.103654  -0.038715  -0.237928  -0.010298   0.066804
    134       0.087026   0.179069   0.091172   0.120016   0.059247   0.100630
    135       0.083237   0.137332  -0.091126   0.012349  -0.083895  -0.000411
    136      -0.114202  -0.075250   0.175315  -0.031945   0.059715  -0.006909
    137      -0.153513  -0.124640  -0.011287   0.056081  -0.004593   0.179850
    138       0.064769   0.120626  -0.085046   0.018537  -0.073210   0.041815
    139      -0.135583  -0.091903   0.191172  -0.026878   0.080016   0.038181
    140      -0.163372  -0.133838  -0.008898   0.059577   0.000336   0.202759
    141       0.100101   0.152668  -0.096402   0.006510  -0.093605  -0.039258
    142      -0.120853  -0.081644   0.204107  -0.047802   0.071558  -0.035024
    143      -0.166658  -0.136609  -0.010106   0.062629   0.002105   0.214966
    144       0.101899   0.152490  -0.123606   0.021225  -0.106339  -0.007575
    145      -0.102403  -0.065542   0.154550  -0.026020   0.045681  -0.010541
    146      -0.151704  -0.121151  -0.017737   0.061758  -0.004275   0.191879
                 12         13         14         15         16         17    
      0       0.002730  -0.023199  -0.010946  -0.010051  -0.068176  -0.016724
      1       0.036804  -0.012480   0.005833  -0.020403  -0.071887  -0.019258
      2      -0.067087   0.025585   0.018069   0.014419   0.083432   0.020334
      3      -0.027171  -0.003646   0.118009  -0.095045  -0.025793  -0.008729
      4      -0.003910  -0.006344   0.142617  -0.126207  -0.053967  -0.013249
      5      -0.045445   0.027654  -0.048721   0.071096   0.084102   0.018528
      6      -0.091375   0.023644   0.144578  -0.084015   0.063710   0.010950
      7      -0.090262   0.007992   0.149332  -0.111077   0.026706   0.008847
      8      -0.005000   0.009675  -0.065606   0.063417   0.027580   0.006058
      9      -0.127308   0.032328   0.040957   0.013572   0.110850   0.023069
     10      -0.135846   0.017322   0.018717   0.009745   0.083831   0.023835
     11       0.011971  -0.008774  -0.016062   0.000165  -0.020170  -0.003085
     12      -0.101493   0.013925  -0.094137   0.103231   0.046626   0.009955
     13      -0.099182   0.012707  -0.128308   0.123363   0.035681   0.010874
     14      -0.007840  -0.010523   0.053550  -0.057860  -0.003019   0.002762
     15      -0.039181  -0.013272  -0.119989   0.091640  -0.041480  -0.009921
     16      -0.015625  -0.001589  -0.134145   0.108209  -0.041936  -0.011000
     17      -0.047998   0.007258   0.071445  -0.051221   0.053892   0.015500
     18       0.038554  -0.041367  -0.022447  -0.022117  -0.036665  -0.008608
     19       0.096450  -0.017315   0.015063  -0.023708  -0.008852  -0.003772
     20      -0.089088   0.038943   0.024941   0.023945   0.050718   0.012582
     21      -0.000050  -0.008096   0.192362  -0.162098  -0.048214  -0.013482
     22       0.028990  -0.011036   0.235981  -0.207933  -0.079701  -0.018638
     23      -0.059276   0.044029  -0.082760   0.110409   0.117737   0.023345
     24      -0.023664  -0.024746  -0.218069   0.158665  -0.071740  -0.015867
     25       0.009642  -0.005045  -0.235638   0.187726  -0.065170  -0.017565
     26      -0.062575   0.006358   0.119335  -0.091735   0.062231   0.018702
     27      -0.171554   0.051522   0.062482   0.020144   0.185899   0.040216
     28      -0.196505   0.027734   0.027530   0.018143   0.156337   0.043323
     29       0.040862  -0.021654  -0.030477  -0.004182  -0.069704  -0.014352
     30       0.003376  -0.105674  -0.043460  -0.055113  -0.106895  -0.024740
     31       0.159748   0.093684   0.049780   0.034477   0.073243   0.014981
     32      -0.071427   0.079632   0.036246   0.043916  -0.079385  -0.018544
     33      -0.022638  -0.144076  -0.067040  -0.093885  -0.018836  -0.030593
     34       0.120951   0.130495   0.079886   0.073611   0.049744   0.038641
     35      -0.039172   0.105446   0.051097   0.068948  -0.149256  -0.018853
     36       0.038059  -0.073035  -0.028201  -0.028308  -0.153557  -0.014014
     37       0.153429   0.123750   0.038859   0.028786   0.068537  -0.020987
     38      -0.052406   0.094203   0.050097   0.063159  -0.107631  -0.003385
     39       0.051561  -0.070026  -0.024862  -0.050661   0.049855   0.047423
     40       0.073887   0.064797   0.042395   0.034832  -0.015298  -0.031453
     41       0.028400   0.056598   0.019886   0.039562  -0.175802  -0.067377
     42      -0.047359  -0.176144  -0.085853  -0.124842   0.038961  -0.036899
     43       0.140233   0.222301   0.136477   0.136414   0.096252   0.132233
     44      -0.059461   0.066559   0.027644   0.035821  -0.114445  -0.038784
     45      -0.073747  -0.200443  -0.097840  -0.126418  -0.063696  -0.089780
     46       0.089599   0.110766   0.070808   0.066498   0.014735   0.013277
     47      -0.027886   0.191751   0.106201   0.139251  -0.170955   0.048677
     48       0.073520  -0.121945  -0.051097  -0.073792   0.088839   0.083286
     49       0.076370   0.020393   0.012789   0.002444  -0.062022  -0.119801
     50       0.041328   0.030436   0.007381   0.029149  -0.144627  -0.033800
     51       0.108936  -0.008604   0.010080  -0.013917   0.107860   0.102574
     52       0.114505   0.108823   0.066732   0.059881   0.019267  -0.003493
     53       0.045905   0.080981   0.027853   0.043580  -0.212561  -0.147496
     54       0.110290   0.065383   0.018681   0.040131   0.091079   0.023968
     55       0.110540  -0.003204   0.019401  -0.008382   0.047595   0.010456
     56      -0.108446  -0.033879   0.004901  -0.005519   0.094579   0.024040
     57       0.023107  -0.078968  -0.036971  -0.044696  -0.009315  -0.003481
     58       0.058411  -0.097645  -0.011753  -0.060786  -0.001173  -0.000966
     59      -0.080295   0.051491   0.026786   0.026262   0.065732   0.014679
     60       0.129326   0.095230   0.031867   0.060637   0.129014   0.034227
     61       0.086151  -0.044548  -0.001650  -0.041371   0.002966  -0.002628
     62      -0.084941  -0.009170   0.006242  -0.003290   0.153840   0.036654
     63       0.034629   0.048528   0.037537   0.068938   0.016003   0.013730
     64      -0.102593  -0.275499   0.106207   0.124082  -0.045433   0.045740
     65      -0.047205   0.036708  -0.071156  -0.129769  -0.009774  -0.043155
     66       0.056845   0.076615   0.030345   0.069114   0.045515   0.017114
     67      -0.056303  -0.219601   0.080165   0.091328  -0.027930   0.037682
     68      -0.061902   0.013212  -0.055403  -0.097971   0.011008  -0.029875
     69       0.034062   0.053294   0.043577   0.085363   0.033613   0.019947
     70      -0.113202  -0.267422   0.109551   0.126839  -0.056850   0.040422
     71      -0.047189   0.031930  -0.078385  -0.150376  -0.033302  -0.051362
     72      -0.128050   0.019814  -0.171198   0.174867   0.070447   0.016472
     73      -0.133107   0.019366  -0.227619   0.214641   0.064264   0.018974
     74       0.008041  -0.025862   0.088981  -0.104545  -0.039291  -0.003837
     75      -0.110287   0.037332   0.240621  -0.146482   0.099333   0.017934
     76      -0.120258   0.012202   0.252206  -0.189658   0.053887   0.016489
     77       0.012438   0.010501  -0.115447   0.104778   0.017428   0.002239
     78       0.025785   0.003735   0.013362  -0.015990  -0.028547  -0.007449
[...]
  29:       345.67    0.000000  (  0.000000   0.000000   0.000000)
  30:       349.13    0.000000  (  0.000000   0.000000   0.000000)
  31:       385.12    0.000000  (  0.000000   0.000000   0.000000)
  32:       388.88    0.000000  (  0.000000   0.000000   0.000000)
  33:       400.90    0.000000  (  0.000000   0.000000   0.000000)
  34:       423.91    0.000000  (  0.000000   0.000000   0.000000)
  35:       432.48    0.000000  (  0.000000   0.000000   0.000000)
  36:       462.71    0.000000  (  0.000000   0.000000   0.000000)
  37:       490.15    0.000000  (  0.000000   0.000000   0.000000)
  38:       506.19    0.000000  (  0.000000   0.000000   0.000000)
  39:       525.26    0.000000  (  0.000000   0.000000   0.000000)
  40:       558.19    0.000000  (  0.000000   0.000000   0.000000)
  41:       589.61    0.000000  (  0.000000   0.000000   0.000000)
  42:       590.56    0.000000  (  0.000000   0.000000   0.000000)
  43:       616.25    0.000000  (  0.000000   0.000000   0.000000)
  44:       686.68    0.000000  (  0.000000   0.000000   0.000000)
  45:       747.40    0.000000  (  0.000000   0.000000   0.000000)
  46:       759.02    0.000000  (  0.000000   0.000000   0.000000)
  47:       791.83    0.000000  (  0.000000   0.000000   0.000000)
  48:       795.44    0.000000  (  0.000000   0.000000   0.000000)
  49:       798.39    0.000000  (  0.000000   0.000000   0.000000)
  50:       832.75    0.000000  (  0.000000   0.000000   0.000000)
  51:       845.09    0.000000  (  0.000000   0.000000   0.000000)
  52:       851.63    0.000000  (  0.000000   0.000000   0.000000)
  53:       889.23    0.000000  (  0.000000   0.000000   0.000000)
  54:       903.81    0.000000  (  0.000000   0.000000   0.000000)
  55:       928.43    0.000000  (  0.000000   0.000000   0.000000)
  56:       937.32    0.000000  (  0.000000   0.000000   0.000000)
  57:       940.88    0.000000  (  0.000000   0.000000   0.000000)
  58:       946.90    0.000000  (  0.000000   0.000000   0.000000)
  59:       949.66    0.000000  (  0.000000   0.000000   0.000000)
  60:       954.26    0.000000  (  0.000000   0.000000   0.000000)
  61:       962.89    0.000000  (  0.000000   0.000000   0.000000)
  62:       973.16    0.000000  (  0.000000   0.000000   0.000000)
  63:       975.33    0.000000  (  0.000000   0.000000   0.000000)
  64:      1034.05    0.000000  (  0.000000   0.000000   0.000000)
  65:      1035.71    0.000000  (  0.000000   0.000000   0.000000)
  66:      1045.43    0.000000  (  0.000000   0.000000   0.000000)
  67:      1047.59    0.000000  (  0.000000   0.000000   0.000000)
  68:      1057.44    0.000000  (  0.000000   0.000000   0.000000)
  69:      1067.26    0.000000  (  0.000000   0.000000   0.000000)
  70:      1081.17    0.000000  (  0.000000   0.000000   0.000000)
  71:      1089.15    0.000000  (  0.000000   0.000000   0.000000)
  72:      1098.21    0.000000  (  0.000000   0.000000   0.000000)
  73:      1108.10    0.000000  (  0.000000   0.000000   0.000000)
  74:      1123.85    0.000000  (  0.000000   0.000000   0.000000)
  75:      1133.54    0.000000  (  0.000000   0.000000   0.000000)
  76:      1140.28    0.000000  (  0.000000   0.000000   0.000000)
  77:      1177.92    0.000000  (  0.000000   0.000000   0.000000)
  78:      1183.73    0.000000  (  0.000000   0.000000   0.000000)
  79:      1194.32    0.000000  (  0.000000   0.000000   0.000000)
  80:      1209.57    0.000000  (  0.000000   0.000000   0.000000)
  81:      1211.93    0.000000  (  0.000000   0.000000   0.000000)
  82:      1227.66    0.000000  (  0.000000   0.000000   0.000000)
  83:      1238.05    0.000000  (  0.000000   0.000000   0.000000)
  84:      1259.83    0.000000  (  0.000000   0.000000   0.000000)
  85:      1264.30    0.000000  (  0.000000   0.000000   0.000000)
  86:      1268.52    0.000000  (  0.000000   0.000000   0.000000)
  87:      1277.63    0.000000  (  0.000000   0.000000   0.000000)
  88:      1278.95    0.000000  (  0.000000   0.000000   0.000000)
  89:      1280.95    0.000000  (  0.000000   0.000000   0.000000)
  90:      1286.71    0.000000  (  0.000000   0.000000   0.000000)
  91:      1289.20    0.000000  (  0.000000   0.000000   0.000000)
  92:      1303.29    0.000000  (  0.000000   0.000000   0.000000)
  93:      1317.23    0.000000  (  0.000000   0.000000   0.000000)
  94:      1339.26    0.000000  (  0.000000   0.000000   0.000000)
  95:      1348.15    0.000000  (  0.000000   0.000000   0.000000)
  96:      1374.44    0.000000  (  0.000000   0.000000   0.000000)
  97:      1374.76    0.000000  (  0.000000   0.000000   0.000000)
  98:      1409.43    0.000000  (  0.000000   0.000000   0.000000)
  99:      1432.24    0.000000  (  0.000000   0.000000   0.000000)
 100:      1433.20    0.000000  (  0.000000   0.000000   0.000000)
 101:      1434.27    0.000000  (  0.000000   0.000000   0.000000)
 102:      1446.49    0.000000  (  0.000000   0.000000   0.000000)
 103:      1495.69    0.000000  (  0.000000   0.000000   0.000000)
 104:      1499.64    0.000000  (  0.000000   0.000000   0.000000)
 105:      1507.13    0.000000  (  0.000000   0.000000   0.000000)
 106:      1509.35    0.000000  (  0.000000   0.000000   0.000000)
 107:      1509.93    0.000000  (  0.000000   0.000000   0.000000)
 108:      1510.05    0.000000  (  0.000000   0.000000   0.000000)
 109:      1511.97    0.000000  (  0.000000   0.000000   0.000000)
 110:      1512.48    0.000000  (  0.000000   0.000000   0.000000)
 111:      1516.25    0.000000  (  0.000000   0.000000   0.000000)
 112:      1516.45    0.000000  (  0.000000   0.000000   0.000000)
 113:      1532.95    0.000000  (  0.000000   0.000000   0.000000)
 114:      1542.78    0.000000  (  0.000000   0.000000   0.000000)
 115:      1569.26    0.000000  (  0.000000   0.000000   0.000000)
 116:      1578.39    0.000000  (  0.000000   0.000000   0.000000)
 117:      2803.29    0.000000  (  0.000000   0.000000   0.000000)
 118:      2854.92    0.000000  (  0.000000   0.000000   0.000000)
 119:      2861.15    0.000000  (  0.000000   0.000000   0.000000)
 120:      2867.91    0.000000  (  0.000000   0.000000   0.000000)
 121:      2872.59    0.000000  (  0.000000   0.000000   0.000000)
 122:      2882.74    0.000000  (  0.000000   0.000000   0.000000)
 123:      2883.37    0.000000  (  0.000000   0.000000   0.000000)
 124:      2887.12    0.000000  (  0.000000   0.000000   0.000000)
 125:      2890.41    0.000000  (  0.000000   0.000000   0.000000)
 126:      2892.96    0.000000  (  0.000000   0.000000   0.000000)
 127:      2893.86    0.000000  (  0.000000   0.000000   0.000000)
 128:      2902.77    0.000000  (  0.000000   0.000000   0.000000)
 129:      2907.84    0.000000  (  0.000000   0.000000   0.000000)
 130:      2910.28    0.000000  (  0.000000   0.000000   0.000000)
 131:      2911.37    0.000000  (  0.000000   0.000000   0.000000)
 132:      2915.25    0.000000  (  0.000000   0.000000   0.000000)
 133:      2916.83    0.000000  (  0.000000   0.000000   0.000000)
 134:      2927.90    0.000000  (  0.000000   0.000000   0.000000)
 135:      2928.89    0.000000  (  0.000000   0.000000   0.000000)
 136:      2975.76    0.000000  (  0.000000   0.000000   0.000000)
 137:      2981.10    0.000000  (  0.000000   0.000000   0.000000)
 138:      2987.30    0.000000  (  0.000000   0.000000   0.000000)
 139:      2998.20    0.000000  (  0.000000   0.000000   0.000000)
 140:      3025.39    0.000000  (  0.000000   0.000000   0.000000)
 141:      3068.71    0.000000  (  0.000000   0.000000   0.000000)
 142:      3081.22    0.000000  (  0.000000   0.000000   0.000000)
 143:      3233.03    0.000000  (  0.000000   0.000000   0.000000)
 144:      3302.74    0.000000  (  0.000000   0.000000   0.000000)
 145:      3348.42    0.000000  (  0.000000   0.000000   0.000000)
 146:      3434.31    0.000000  (  0.000000   0.000000   0.000000)

The first frequency considered to be a vibration is 6
The total number of vibrations considered is 141


--------------------------
THERMOCHEMISTRY AT 298.15K
--------------------------

Temperature         ... 298.15 K
Pressure            ... 1.00 atm
Total Mass          ... 270.42 AMU

Throughout the following assumptions are being made:
  (1) The electronic state is orbitally nondegenerate
  (2) There are no thermally accessible electronically excited states
  (3) Hindered rotations indicated by low frequency modes are not
      treated as such but are treated as vibrations and this may
      cause some error
  (4) All equations used are the standard statistical mechanics
      equations for an ideal gas
  (5) All vibrations are strictly harmonic

freq.      41.93  E(vib)   ...       0.53 
freq.      47.25  E(vib)   ...       0.53 
freq.      56.63  E(vib)   ...       0.52 
freq.      62.44  E(vib)   ...       0.51 
freq.      71.19  E(vib)   ...       0.50 
freq.      82.03  E(vib)   ...       0.48 
freq.      84.01  E(vib)   ...       0.48 
freq.     106.44  E(vib)   ...       0.45 
freq.     116.33  E(vib)   ...       0.44 
freq.     117.48  E(vib)   ...       0.44 
freq.     156.13  E(vib)   ...       0.40 
freq.     159.72  E(vib)   ...       0.39 
freq.     167.41  E(vib)   ...       0.39 
freq.     178.66  E(vib)   ...       0.37 
freq.     182.57  E(vib)   ...       0.37 
freq.     187.95  E(vib)   ...       0.36 
freq.     214.12  E(vib)   ...       0.34 
freq.     218.06  E(vib)   ...       0.33 
freq.     230.77  E(vib)   ...       0.32 
freq.     239.69  E(vib)   ...       0.31 
freq.     244.34  E(vib)   ...       0.31 
freq.     293.52  E(vib)   ...       0.27 
freq.     345.17  E(vib)   ...       0.23 
freq.     345.67  E(vib)   ...       0.23 
freq.     349.13  E(vib)   ...       0.23 
freq.     385.12  E(vib)   ...       0.20 
freq.     388.88  E(vib)   ...       0.20 
freq.     400.90  E(vib)   ...       0.19 
freq.     423.91  E(vib)   ...       0.18 
freq.     432.48  E(vib)   ...       0.18 
freq.     462.71  E(vib)   ...       0.16 
freq.     490.15  E(vib)   ...       0.15 
freq.     506.19  E(vib)   ...       0.14 
freq.     525.26  E(vib)   ...       0.13 
freq.     558.19  E(vib)   ...       0.12 
freq.     589.61  E(vib)   ...       0.10 
freq.     590.56  E(vib)   ...       0.10 
freq.     616.25  E(vib)   ...       0.09 
freq.     686.68  E(vib)   ...       0.07 
freq.     747.40  E(vib)   ...       0.06 
freq.     759.02  E(vib)   ...       0.06 
freq.     791.83  E(vib)   ...       0.05 
freq.     795.44  E(vib)   ...       0.05 
freq.     798.39  E(vib)   ...       0.05 
freq.     832.75  E(vib)   ...       0.04 
freq.     845.09  E(vib)   ...       0.04 
freq.     851.63  E(vib)   ...       0.04 
freq.     889.23  E(vib)   ...       0.04 
freq.     903.81  E(vib)   ...       0.03 
freq.     928.43  E(vib)   ...       0.03 
freq.     937.32  E(vib)   ...       0.03 
freq.     940.88  E(vib)   ...       0.03 
freq.     946.90  E(vib)   ...       0.03 
freq.     949.66  E(vib)   ...       0.03 
freq.     954.26  E(vib)   ...       0.03 
freq.     962.89  E(vib)   ...       0.03 
freq.     973.16  E(vib)   ...       0.03 
freq.     975.33  E(vib)   ...       0.03 
freq.    1034.05  E(vib)   ...       0.02 
freq.    1035.71  E(vib)   ...       0.02 
freq.    1045.43  E(vib)   ...       0.02 
freq.    1047.59  E(vib)   ...       0.02 
freq.    1057.44  E(vib)   ...       0.02 
freq.    1067.26  E(vib)   ...       0.02 
freq.    1081.17  E(vib)   ...       0.02 
freq.    1089.15  E(vib)   ...       0.02 
freq.    1098.21  E(vib)   ...       0.02 
freq.    1108.10  E(vib)   ...       0.02 
freq.    1123.85  E(vib)   ...       0.01 
freq.    1133.54  E(vib)   ...       0.01 
freq.    1140.28  E(vib)   ...       0.01 
freq.    1177.92  E(vib)   ...       0.01 
freq.    1183.73  E(vib)   ...       0.01 
freq.    1194.32  E(vib)   ...       0.01 
freq.    1209.57  E(vib)   ...       0.01 
freq.    1211.93  E(vib)   ...       0.01 
freq.    1227.66  E(vib)   ...       0.01 
freq.    1238.05  E(vib)   ...       0.01 
freq.    1259.83  E(vib)   ...       0.01 
freq.    1264.30  E(vib)   ...       0.01 
freq.    1268.52  E(vib)   ...       0.01 
freq.    1277.63  E(vib)   ...       0.01 
freq.    1278.95  E(vib)   ...       0.01 
freq.    1280.95  E(vib)   ...       0.01 
freq.    1286.71  E(vib)   ...       0.01 
freq.    1289.20  E(vib)   ...       0.01 
freq.    1303.29  E(vib)   ...       0.01 
freq.    1317.23  E(vib)   ...       0.01 
freq.    1339.26  E(vib)   ...       0.01 
freq.    1348.15  E(vib)   ...       0.01 
freq.    1374.44  E(vib)   ...       0.01 
freq.    1374.76  E(vib)   ...       0.01 
freq.    1409.43  E(vib)   ...       0.00 
freq.    1432.24  E(vib)   ...       0.00 
freq.    1433.20  E(vib)   ...       0.00 
freq.    1434.27  E(vib)   ...       0.00 
freq.    1446.49  E(vib)   ...       0.00 
freq.    1495.69  E(vib)   ...       0.00 
freq.    1499.64  E(vib)   ...       0.00 
freq.    1507.13  E(vib)   ...       0.00 
freq.    1509.35  E(vib)   ...       0.00 
freq.    1509.93  E(vib)   ...       0.00 
freq.    1510.05  E(vib)   ...       0.00 
freq.    1511.97  E(vib)   ...       0.00 
freq.    1512.48  E(vib)   ...       0.00 
freq.    1516.25  E(vib)   ...       0.00 
freq.    1516.45  E(vib)   ...       0.00 
freq.    1532.95  E(vib)   ...       0.00 
freq.    1542.78  E(vib)   ...       0.00 
freq.    1569.26  E(vib)   ...       0.00 
freq.    1578.39  E(vib)   ...       0.00 
freq.    2803.29  E(vib)   ...       0.00 
freq.    2854.92  E(vib)   ...       0.00 
freq.    2861.15  E(vib)   ...       0.00 
freq.    2867.91  E(vib)   ...       0.00 
freq.    2872.59  E(vib)   ...       0.00 
freq.    2882.74  E(vib)   ...       0.00 
freq.    2883.37  E(vib)   ...       0.00 
freq.    2887.12  E(vib)   ...       0.00 
freq.    2890.41  E(vib)   ...       0.00 
freq.    2892.96  E(vib)   ...       0.00 
freq.    2893.86  E(vib)   ...       0.00 
freq.    2902.77  E(vib)   ...       0.00 
freq.    2907.84  E(vib)   ...       0.00 
freq.    2910.28  E(vib)   ...       0.00 
freq.    2911.37  E(vib)   ...       0.00 
freq.    2915.25  E(vib)   ...       0.00 
freq.    2916.83  E(vib)   ...       0.00 
freq.    2927.90  E(vib)   ...       0.00 
freq.    2928.89  E(vib)   ...       0.00 
freq.    2975.76  E(vib)   ...       0.00 
freq.    2981.10  E(vib)   ...       0.00 
freq.    2987.30  E(vib)   ...       0.00 
freq.    2998.20  E(vib)   ...       0.00 
freq.    3025.39  E(vib)   ...       0.00 
freq.    3068.71  E(vib)   ...       0.00 
freq.    3081.22  E(vib)   ...       0.00 
freq.    3233.03  E(vib)   ...       0.00 
freq.    3302.74  E(vib)   ...       0.00 
freq.    3348.42  E(vib)   ...       0.00 
freq.    3434.31  E(vib)   ...       0.00 

------------
INNER ENERGY
------------

The inner energy is: U= E(el) + E(ZPE) + E(vib) + E(rot) + E(trans)
    E(el)   - is the total energy from the electronic structure calculation
              = E(kin-el) + E(nuc-el) + E(el-el) + E(nuc-nuc)
    E(ZPE)  - the the zero temperature vibrational energy from the frequency calculation
    E(vib)  - the the finite temperature correction to E(ZPE) due to population
              of excited vibrational states
    E(rot)  - is the rotational thermal energy
    E(trans)- is the translational thermal energy

Summary of contributions to the inner energy U:
Electronic energy                ...    -61.39556663 Eh
Zero point energy                ...      0.42538567 Eh     266.93 kcal/mol
Thermal vibrational correction   ...      0.02058606 Eh      12.92 kcal/mol
Thermal rotational correction    ...      0.00141627 Eh       0.89 kcal/mol
Thermal translational correction ...      0.00141627 Eh       0.89 kcal/mol
-----------------------------------------------------------------------
Total thermal energy                    -60.94676236 Eh


Summary of corrections to the electronic energy:
(perhaps to be used in another calculation)
Total thermal correction                  0.02341860 Eh      14.70 kcal/mol
Non-thermal (ZPE) correction              0.42538567 Eh     266.93 kcal/mol
-----------------------------------------------------------------------
Total correction                          0.44880427 Eh     281.63 kcal/mol


--------
ENTHALPY
--------

The enthalpy is H = U + kB*T
                kB is Boltzmann's constant
Total free energy                 ...    -60.94676236 Eh 
Thermal Enthalpy correction       ...      0.00094421 Eh       0.59 kcal/mol
-----------------------------------------------------------------------
Total Enthalpy                    ...    -60.94581815 Eh


Note: Only C1 symmetry has been detected, increase convergence thresholds 
      if your molecule has a higher symmetry. Symmetry factor of 1.0 is   
      used for the rotational entropy correction. 
 

Note: Rotational entropy computed according to Herzberg 
Infrared and Raman Spectra, Chapter V,1, Van Nostrand Reinhold, 1945 
Point Group:  C1, Symmetry Number:   1  
Rotational constants in cm-1:     0.010929     0.005915     0.004510 

Vibrational entropy computed according to the QRRHO of S. Grimme
Chem.Eur.J. 2012 18 9955


-------
ENTROPY
-------

The entropy contributions are T*S = T*(S(el)+S(vib)+S(rot)+S(trans))
     S(el)   - electronic entropy
     S(vib)  - vibrational entropy
     S(rot)  - rotational entropy
     S(trans)- translational entropy
The entropies will be listed as mutliplied by the temperature to get
units of energy

Electronic entropy                ...      0.00000000 Eh      0.00 kcal/mol
Vibrational entropy               ...      0.03645340 Eh     22.87 kcal/mol
Rotational entropy                ...      0.01661486 Eh     10.43 kcal/mol
Translational entropy             ...      0.02028014 Eh     12.73 kcal/mol
-----------------------------------------------------------------------
Final entropy term                ...      0.07334841 Eh     46.03 kcal/mol

In case the symmetry of your molecule has not been determined correctly
or in case you have a reason to use a different symmetry number we print 
out the resulting rotational entropy values for sn=1,12 :
 --------------------------------------------------------
|  sn= 1 | S(rot)=       0.01661486 Eh     10.43 kcal/mol|
|  sn= 2 | S(rot)=       0.01596041 Eh     10.02 kcal/mol|
|  sn= 3 | S(rot)=       0.01557757 Eh      9.78 kcal/mol|
|  sn= 4 | S(rot)=       0.01530595 Eh      9.60 kcal/mol|
|  sn= 5 | S(rot)=       0.01509526 Eh      9.47 kcal/mol|
|  sn= 6 | S(rot)=       0.01492312 Eh      9.36 kcal/mol|
|  sn= 7 | S(rot)=       0.01477757 Eh      9.27 kcal/mol|
|  sn= 8 | S(rot)=       0.01465149 Eh      9.19 kcal/mol|
|  sn= 9 | S(rot)=       0.01454028 Eh      9.12 kcal/mol|
|  sn=10 | S(rot)=       0.01444080 Eh      9.06 kcal/mol|
|  sn=11 | S(rot)=       0.01435081 Eh      9.01 kcal/mol|
|  sn=12 | S(rot)=       0.01426866 Eh      8.95 kcal/mol|
 --------------------------------------------------------


-------------------
GIBBS FREE ENERGY
-------------------

The Gibbs free energy is G = H - T*S

Total enthalpy                    ...    -60.94581815 Eh 
Total entropy correction          ...     -0.07334841 Eh    -46.03 kcal/mol
-----------------------------------------------------------------------
Final Gibbs free energy         ...    -61.01916656 Eh

For completeness - the Gibbs free energy minus the electronic energy
G-E(el)                           ...      0.37640007 Eh    236.19 kcal/mol


Total Time for Numerical Frequencies  :       195.049 sec
Time for Reference State(s)           :         0.226 sec
Time for Displacements                :       177.757 sec

Timings for individual modules:

Sum of individual times         ...        0.487 sec (=   0.008 min)
XTB module                      ...        0.487 sec (=   0.008 min) 100.0 %
                             ****ORCA TERMINATED NORMALLY****
TOTAL RUN TIME: 0 days 0 hours 3 minutes 16 seconds 296 msec
(SLURM) EXECUTION TIME: 196.323027053 seconds.
