(SLURM) JOB ID:         166

                                 *****************
                                 * O   R   C   A *
                                 *****************

           --- An Ab Initio, DFT and Semiempirical electronic structure package ---

                  #######################################################
                  #                        -***-                        #
                  #          Department of theory and spectroscopy      #
                  #               Directorship: Frank Neese             #
                  #        Max Planck Institute fuer Kohlenforschung    #
                  #                Kaiser Wilhelm Platz 1               #
                  #                 D-45470 Muelheim/Ruhr               #
                  #                      Germany                        #
                  #                                                     #
                  #                  All rights reserved                #
                  #                        -***-                        #
                  #######################################################


                         Program Version 4.2.1 -  RELEASE  -


 With contributions from (in alphabetic order):
   Daniel Aravena         : Magnetic Suceptibility
   Michael Atanasov       : Ab Initio Ligand Field Theory (pilot matlab implementation)
   Alexander A. Auer      : GIAO ZORA, VPT2
   Ute Becker             : Parallelization
   Giovanni Bistoni       : ED, misc. LED, open-shell LED, HFLD
   Martin Brehm           : Molecular dynamics
   Dmytro Bykov           : SCF Hessian
   Vijay G. Chilkuri      : MRCI spin determinant printing, contributions to CSF-ICE
   Dipayan Datta          : RHF DLPNO-CCSD density
   Achintya Kumar Dutta   : EOM-CC, STEOM-CC
   Dmitry Ganyushin       : Spin-Orbit,Spin-Spin,Magnetic field MRCI
   Miquel Garcia          : C-PCM Hessian, Gaussian charge scheme
   Yang Guo               : DLPNO-NEVPT2, CIM, IAO-localization
   Andreas Hansen         : Spin unrestricted coupled pair/coupled cluster methods
   Benjamin Helmich-Paris : CASSCF linear response (MC-RPA)
   Lee Huntington         : MR-EOM, pCC
   Robert Izsak           : Overlap fitted RIJCOSX, COSX-SCS-MP3, EOM
   Christian Kollmar      : KDIIS, OOCD, Brueckner-CCSD(T), CCSD density
   Simone Kossmann        : Meta GGA functionals, TD-DFT gradient, OOMP2, MP2 Hessian
   Martin Krupicka        : AUTO-CI
   Lucas Lang             : DCDCAS
   Dagmar Lenk            : GEPOL surface, SMD
   Dimitrios Liakos       : Extrapolation schemes; Compound Job, initial MDCI parallelization
   Dimitrios Manganas     : Further ROCIS development; embedding schemes
   Dimitrios Pantazis     : SARC Basis sets
   Taras Petrenko         : DFT Hessian,TD-DFT gradient, ASA, ECA, R-Raman, ABS, FL, XAS/XES, NRVS
   Peter Pinski           : DLPNO-MP2, DLPNO-MP2 Gradient
   Christoph Reimann      : Effective Core Potentials
   Marius Retegan         : Local ZFS, SOC
   Christoph Riplinger    : Optimizer, TS searches, QM/MM, DLPNO-CCSD(T), (RO)-DLPNO pert. Triples
   Tobias Risthaus        : Range-separated hybrids, TD-DFT gradient, RPA, STAB
   Michael Roemelt        : Original ROCIS implementation
   Masaaki Saitow         : Open-shell DLPNO-CCSD energy and density
   Barbara Sandhoefer     : DKH picture change effects
   Avijit Sen             : IP-ROCIS
   Kantharuban Sivalingam : CASSCF convergence, NEVPT2, FIC-MRCI
   Bernardo de Souza      : ESD, SOC TD-DFT
   Georgi Stoychev        : AutoAux, RI-MP2 NMR
   Willem Van den Heuvel  : Paramagnetic NMR
   Boris Wezisla          : Elementary symmetry handling
   Frank Wennmohs         : Technical directorship


 We gratefully acknowledge several colleagues who have allowed us to
 interface, adapt or use parts of their codes:
   Stefan Grimme, W. Hujo, H. Kruse,             : VdW corrections, initial TS optimization,
                  C. Bannwarth                     DFT functionals, gCP, sTDA/sTD-DF
   Ed Valeev, F. Pavosevic, A. Kumar             : LibInt (2-el integral package), F12 methods
   Garnet Chan, S. Sharma, J. Yang, R. Olivares  : DMRG
   Ulf Ekstrom                                   : XCFun DFT Library
   Mihaly Kallay                                 : mrcc  (arbitrary order and MRCC methods)
   Andreas Klamt, Michael Diedenhofen            : otool_cosmo (COSMO solvation model)
   Jiri Pittner, Ondrej Demel                    : Mk-CCSD
   Frank Weinhold                                : gennbo (NPA and NBO analysis)
   Christopher J. Cramer and Donald G. Truhlar   : smd solvation model
   Lars Goerigk                                  : TD-DFT with DH, B97 family of functionals
   V. Asgeirsson, H. Jonsson                     : NEB implementation
   FAccTs GmbH                                   : IRC, NEB, NEB-TS, Multilevel, MM, QM/MM, CI optimization
   S Lehtola, MJT Oliveira, MAL Marques          : LibXC Library


 Your calculation uses the libint2 library for the computation of 2-el integrals
 For citations please refer to: http://libint.valeyev.net

 Your ORCA version has been built with support for libXC version: 4.2.3
 For citations please refer to: https://tddft.org/programs/libxc/

 This ORCA versions uses:
   CBLAS   interface :  Fast vector & matrix operations
   LAPACKE interface :  Fast linear algebra routines
   SCALAPACK package :  Parallel linear algebra routines




***************************************
The coordinates will be read from file: init.xyz
***************************************


Your calculation utilizes the SMD solvation module
Please cite in your paper:
A.V. Marenich, C.J. Cramer, D.G. Truhlar J. Phys. Chem. B, 113, (2009), 6378 

Your calculation utilizes the semiempirical GFN2-xTB method
Please cite in your paper:
C. Bannwarth, Ehlert S., S. Grimme,  J. Chem. Theory Comput., 15, (2019), 1652.
   

----- Orbital basis set information -----
Your calculation utilizes the basis: def2-SVP
   F. Weigend and R. Ahlrichs, Phys. Chem. Chem. Phys. 7, 3297 (2005).

================================================================================
                                        WARNINGS
                       Please study these warnings very carefully!
================================================================================

WARNING: Gradients needed for Numerical Frequencies
  ===> : Setting RunTyp to EnGrad

WARNING: The environment variable RSH_COMMAND is not set!
  ===> : All Displacements for the Numerical Hessian calculation
         will be started on localhost

WARNING: Found dipole moment calculation with XTB calculation
  ===> : Switching off dipole moment calculation


INFO   : the flag for use of LIBINT has been found!

================================================================================
                                       INPUT FILE
================================================================================
NAME = /tmp/slurm-scratch/freq.166/freq.inp
|  1> ! XTB2 NumFreq
|  2> %maxcore 1450
|  3> 
|  4> * xyzfile 0 1 init.xyz
|  5> 
|  6> %cpcm
|  7>  smd true
|  8>  smdsolvent "ch2cl2"
|  9> end
| 10> %pal nprocs 8 end
| 11> 
| 12>                          ****END OF INPUT****
================================================================================

                     *******************************
                     * Energy+Gradient Calculation *
                     *******************************

      -----------------------------------------------------------      
     |                   =====================                   |     
     |                           x T B                           |     
     |                   =====================                   |     
     |                         S. Grimme                         |     
     |          Mulliken Center for Theoretical Chemistry        |     
     |                    University of Bonn                     |     
      -----------------------------------------------------------      

   * xtb version 6.3.0 (preview) compiled by 'ehlert@majestix' on 2020-01-15

   This program is distributed in the hope that it will be useful,
   but WITHOUT ANY WARRANTY; without even the implied warranty of
   MERCHANTABILITY or FITNESS FOR A PARTICULAR PURPOSE.
   
   FOR NON-COMMERCIAL, ACADEMIA USE ONLY.
   
   Cite this work as:
   * S. Grimme, C. Bannwarth, P. Shushkov, J. Chem. Theory Comput., 2017,
     13, 1989-2009. DOI: 10.1021/acs.jctc.7b00118
   * C. Bannwarth, S. Ehlert and S. Grimme., J. Chem. Theory Comput., 2019,
     15, 1652-1671. DOI: 10.1021/acs.jctc.8b01176
   * P. Pracht, E. Caldeweyher, S. Ehlert, S. Grimme, ChemRxiv, 2019, preprint.
     DOI: 10.26434/chemrxiv.8326202.v1
   * S. Grimme, S. Spicher unpublished
   
   for DFT-D4:
   * E. Caldeweyher, C. Bannwarth and S. Grimme, J. Chem. Phys., 2017,
     147, 034112. DOI: 10.1063/1.4993215
   * E. Caldeweyher, S. Ehlert, A. Hansen, H. Neugebauer, S. Spicher,
     C. Bannwarth and S. Grimme, J. Chem. Phys., 2019, 150, 154122.
     DOI: 10.1063/1.5090222
   
   for sTDA-xTB:
   * S. Grimme and C. Bannwarth, J. Chem. Phys., 2016, 145, 054103.
     DOI: 10.1063/1.4959605
   
   in the mass-spec context:
   * V. Asgeirsson, C. Bauer and S. Grimme, Chem. Sci., 2017, 8, 4879.
     DOI: 10.1039/c7sc00601b
   
   for metadynamics refer to:
   * S. Grimme, J. Chem. Theory Comput., 2019, 155, 2847-2862
     DOI: 10.1021/acs.jctc.9b00143
   
   with help from (in alphabetical order)
   C. Bannwarth, F. Bohle, G. Brandenburg, E. Caldeweyher, M. Checinski,
   S. Dohm, S. Ehlert, S. Ehrlich, F. März, H. Neugebauer, J. Pisarek,
   P. Pracht, P. Shushkov, and S. Spicher.
   
 * started run on 2020/08/27 at 22:56:01.718     

           -------------------------------------------------
          |                Calculation Setup                |
           -------------------------------------------------

          program call               : /opt/orca/otool_xtb /tmp/slurm-scratch/freq.166/freq_XTB.xyz --grad -c 0 -u 0 -P 8 --namespace /tmp/slurm-scratch/freq.166/freq --gbsa CH2Cl2
          hostname                   : headnode-pbs
          calculation namespace      : /tmp/slurm-scratch/freq.166/freq
          coordinate file            : /tmp/slurm-scratch/freq.166/freq_XTB.xyz
          omp threads                :                     8
          number of atoms            :                    46
          number of electrons        :                   104
          charge                     :                     0
          spin                       :                   0.0
          first test random number   :      0.13690234936620


molecular fragmentation (1/2 indicates fragments):
1111111111211122222211221112222221111122221111
# atoms in fragment 1/2:    27    19
 fragment masses (1/2) :      161.24       91.15
CMA distance (Bohr)    :   8.973
constraining FC (au)   :  0.0500

########################################################################
# WARNING! Please study the warnings concerning your input carefully
#  - Process number higher than OMP_NUM_THREADS, I hope you know what you are doing.
########################################################################

           ------------------------------------------------- 
          |                 G F N 2 - x T B                 |
          | Geometry, Frequencies, Noncovalent interactions |
          |            JCTC 2019 parametrisation            |
           ------------------------------------------------- 
             k(s)              :                1.8500
             k(p)              :                2.2300
             k(d)              :                2.2300
             k(f)              :                2.0000
             kEN (H0ij)        :               -2.0000
             D4 a1             :                0.5200
             D4 a2             :                5.0000
             D4 s6             :                1.0000
             D4 s8             :                2.7000
             D4 s9             :                5.0000
             alphaj            :                2.0000

  Z AO/shell   Hii/eV     exponent
  1     Wed Apr 25 08:07:45 CEST 2018   EN: 2.200 GM2: 0.406  GM3: 0.0800  RAES: 1.40
     1s    -10.707211    1.230000
  6     Wed Apr 25 08:07:45 CEST 2018   EN: 2.550 GM2: 0.538  GM3: 0.1500  RAES: 3.00
     2s    -13.970922    2.096432
     2p    -10.063292    1.800000
  7     Wed Apr 25 08:07:45 CEST 2018   EN: 3.040 GM2: 0.461  GM3:-0.0640  RAES: 1.90
     2s    -16.686243    2.339881
     2p    -12.523956    2.014332
  8     Wed Apr 25 08:07:45 CEST 2018   EN: 3.440 GM2: 0.452  GM3:-0.0517  RAES: 1.80
     2s    -20.229985    2.439742
     2p    -15.503117    2.137023

 Solvent             : CH2Cl2
 Using internal parameter file: .param_gbsa2_CH2Cl2
 Gsolv ref. state (COSMO-RS): gsolv [1 M gas/solution]
 temperature (mdtemp)       :    298.150000000000     
 dielectric constant        :    8.93000000000000     
 rho                        :    1.33000000000000     
 mass                       :    84.9300000000000     
 surface tension            :    15.5689454083859     
 probe radius               :   0.719875900000000     
 Gshift (Eh)                :   4.440829173451759E-003
 c1                         :    1.49173776000000     
 soset                      :   0.000000000000000E+000
 HB correction              :  F
           ------------------------------------------------- 
          |        Self-Consistent Charge Iterations        |
           ------------------------------------------------- 

          ...................................................
          :                      SETUP                      :
          :.................................................:
          :  # basis functions                 100          :
          :  # atomic orbitals                 100          :
          :  # shells                           64          :
          :  # electrons                       104          :
          :  max. iterations                   250          :
          :  Hamiltonian                  GFN2-xTB          :
          :  GBSA solvation                   true          :
          :  PC potential                    false          :
          :  electronic temp.          300.0000000     K    :
          :  accuracy                    1.0000000          :
          :  -> integral cutoff          0.2500000E+02      :
          :  -> integral neglect         0.1000000E-07      :
          :  -> SCF convergence          0.1000000E-05 Eh   :
          :  -> wf. convergence          0.1000000E-03 e    :
          :  Broyden damping             0.4000000          :
          ...................................................
  Checking positiv definite overlap ...  done.
 

 iter      E             dE          RMSdq      gap      omega  full diag
   1    -57.0354975 -0.570355E+02  0.341E+00    3.08       0.0  T
   2    -57.0967038 -0.612063E-01  0.199E+00    3.10       1.0  T
   3    -57.0959328  0.771040E-03  0.697E-01    2.78       1.0  T
   4    -57.0986478 -0.271504E-02  0.330E-01    2.84       1.0  T
   5    -57.1020001 -0.335229E-02  0.660E-02    2.78       1.0  T
   6    -57.1020186 -0.184719E-04  0.323E-02    2.80       1.0  T
   7    -57.1020258 -0.717417E-05  0.141E-02    2.80       1.0  T
   8    -57.1020281 -0.235642E-05  0.363E-03    2.80       4.1  T
   9    -57.1020283 -0.203708E-06  0.140E-03    2.80      10.5  T
  10    -57.1020283 -0.557812E-08  0.726E-04    2.80      20.3  T
  11    -57.1020283 -0.608263E-08  0.299E-04    2.80      49.3  T

   *** convergence criteria satisfied after 11 iterations ***

         #    Occupation            Energy/Eh            Energy/eV
      -------------------------------------------------------------
         1        2.0000           -0.6608526             -17.9827
       ...           ...                  ...                  ...
        46        2.0000           -0.4266704             -11.6103
        47        2.0000           -0.4205376             -11.4434
        48        2.0000           -0.4178375             -11.3699
        49        2.0000           -0.4141471             -11.2695
        50        2.0000           -0.4037074             -10.9854
        51        2.0000           -0.3860441             -10.5048
        52        2.0000           -0.3790154             -10.3135 (HOMO)
        53                         -0.2760769              -7.5124 (LUMO)
        54                         -0.2337369              -6.3603
        55                         -0.1944742              -5.2919
        56                         -0.0935725              -2.5462
        57                          0.0109090               0.2968
       ...                                ...                  ...
       100                          0.6452530              17.5582
      -------------------------------------------------------------
                  HL-Gap            0.1029385 Eh            2.8011 eV
             Fermi-level           -0.3275462 Eh           -8.9130 eV

 SCC (total)                   0 d,  0 h,  0 min,  0.089 sec
 SCC setup                      ...        0 min,  0.007 sec (  8.386%)
 Dispersion                     ...        0 min,  0.001 sec (  1.112%)
 integral evaluation            ...        0 min,  0.016 sec ( 17.468%)
 zeroth order Hamiltonian       ...        0 min,  0.000 sec (  0.042%)
 iterations                     ...        0 min,  0.054 sec ( 60.212%)
 molecular gradient             ...        0 min,  0.011 sec ( 12.079%)
 printout                       ...        0 min,  0.001 sec (  0.622%)

         :::::::::::::::::::::::::::::::::::::::::::::::::::::
         ::                     SUMMARY                     ::
         :::::::::::::::::::::::::::::::::::::::::::::::::::::
         :: total energy             -56.295563378778 Eh    ::
         :: total w/o Gsasa/hb       -56.271476061902 Eh    ::
         :: gradient norm              0.028575190783 Eh/a0 ::
         :: HOMO-LUMO gap              2.801098286873 eV    ::
         ::.................................................::
         :: SCC energy               -57.126115638769 Eh    ::
         :: -> isotropic ES            0.062951000620 Eh    ::
         :: -> anisotropic ES          0.003967532181 Eh    ::
         :: -> anisotropic XC          0.040632053830 Eh    ::
         :: -> dispersion             -0.035922943708 Eh    ::
         :: -> Gsolv                  -0.029772846213 Eh    ::
         ::    -> Gborn               -0.005685529337 Eh    ::
         ::    -> Gsasa               -0.028528146049 Eh    ::
         ::    -> Ghb                  0.000000000000 Eh    ::
         ::    -> Gshift               0.004440829173 Eh    ::
         :: repulsion energy           0.830117686856 Eh    ::
         :: add. restraining           0.000000000000 Eh    ::
         :::::::::::::::::::::::::::::::::::::::::::::::::::::

           -------------------------------------------------
          |                Property Printout                |
           -------------------------------------------------

    * Orbital Energies and Occupations

         #    Occupation            Energy/Eh            Energy/eV
      -------------------------------------------------------------
         1        2.0000           -0.6608526             -17.9827
       ...           ...                  ...                  ...
        40        2.0000           -0.4388078             -11.9406
        41        2.0000           -0.4367730             -11.8852
        42        2.0000           -0.4342716             -11.8171
        43        2.0000           -0.4333126             -11.7910
        44        2.0000           -0.4312302             -11.7344
        45        2.0000           -0.4275576             -11.6344
        46        2.0000           -0.4266704             -11.6103
        47        2.0000           -0.4205376             -11.4434
        48        2.0000           -0.4178375             -11.3699
        49        2.0000           -0.4141471             -11.2695
        50        2.0000           -0.4037074             -10.9854
        51        2.0000           -0.3860441             -10.5048
        52        2.0000           -0.3790154             -10.3135 (HOMO)
        53                         -0.2760769              -7.5124 (LUMO)
        54                         -0.2337369              -6.3603
        55                         -0.1944742              -5.2919
        56                         -0.0935725              -2.5462
        57                          0.0109090               0.2968
        58                          0.0306449               0.8339
        59                          0.0748037               2.0355
        60                          0.0947536               2.5784
        61                          0.0997057               2.7131
        62                          0.1026141               2.7923
        63                          0.1092591               2.9731
       ...                                ...                  ...
       100                          0.6452530              17.5582
      -------------------------------------------------------------
                  HL-Gap            0.1029385 Eh            2.8011 eV
             Fermi-level           -0.3275462 Eh           -8.9130 eV

     #   Z        covCN         q      C6AA      α(0)
     1   6 C      2.913    -0.028    28.697     8.784
     2   6 C      2.922    -0.029    28.734     8.791
     3   6 C      2.969     0.004    27.932     8.669
     4   6 C      2.918    -0.026    28.663     8.779
     5   6 C      2.914    -0.028    28.707     8.786
     6   6 C      2.916    -0.025    28.622     8.773
     7   1 H      0.925     0.038     2.476     2.461
     8   1 H      0.926     0.047     2.360     2.402
     9   1 H      0.925     0.044     2.393     2.419
    10   7 N      1.825    -0.263    27.672     7.795
    11   1 H      0.801     0.305     0.706     1.321
    12   6 C      3.767     0.021    20.263     6.416
    13   1 H      0.924     0.042     2.420     2.433
    14   1 H      0.923     0.008     2.921     2.673
    15   1 H      0.860     0.176     1.237     1.742
    16   7 N      2.628    -0.376    29.712     8.096
    17   1 H      0.805     0.276     0.797     1.402
    18   6 C      3.731     0.019    20.338     6.437
    19   1 H      0.924     0.010     2.885     2.656
    20   1 H      0.924     0.032     2.554     2.499
    21   6 C      2.858     0.077    26.265     8.400
    22   1 H      0.924     0.001     3.034     2.724
    23   8 O      1.606    -0.628    25.862     6.863
    24   1 H      0.860     0.143     1.448     1.885
    25   6 C      3.803    -0.064    21.727     6.636
    26   1 H      0.925     0.063     2.164     2.301
    27   1 H      0.924     0.029     2.602     2.523
    28   6 C      3.802    -0.068    21.811     6.649
    29   1 H      0.924     0.035     2.516     2.481
    30   1 H      0.924     0.049     2.336     2.390
    31   6 C      3.800    -0.053    21.534     6.607
    32   1 H      0.924     0.030     2.586     2.515
    33   1 H      0.924     0.031     2.578     2.511
    34   6 C      3.800    -0.052    21.501     6.602
    35   1 H      0.924     0.032     2.554     2.499
    36   1 H      0.924     0.028     2.620     2.531
    37   1 H      0.925     0.043     2.412     2.429
    38   1 H      0.925     0.043     2.415     2.430
    39   6 C      3.750    -0.102    22.520     6.768
    40   1 H      0.924     0.036     2.509     2.477
    41   1 H      0.924     0.035     2.513     2.479
    42   1 H      0.924     0.036     2.500     2.473
    43   6 C      3.750    -0.104    22.552     6.773
    44   1 H      0.924     0.045     2.382     2.414
    45   1 H      0.924     0.035     2.516     2.480
    46   1 H      0.924     0.033     2.549     2.497

 Mol. C6AA /au·bohr⁶  :      17446.216673
 Mol. C8AA /au·bohr⁸  :     382491.854058
 Mol. α(0) /au        :        202.669926


Wiberg/Mayer (AO) data.
largest (>0.10) Wiberg bond orders for each atom
          total WBO             WBO to atom ...
     1  C   3.991        C    2 1.450    C    6 1.438    H   38 0.970    C    4 0.106
     2  C   3.987        C    1 1.450    C    3 1.381    H    7 0.968    C    5 0.105
     3  C   3.989        C    2 1.381    C    4 1.367    C   21 1.082    C    6 0.100
     4  C   3.990        C    5 1.466    C    3 1.367    H    8 0.964    C    1 0.106
     5  C   3.991        C    4 1.466    C    6 1.422    H   37 0.970    C    2 0.105
     6  C   3.987        C    1 1.438    C    5 1.422    H    9 0.971    C    3 0.100
     7  H   0.999        C    2 0.968
     8  H   0.998        C    4 0.964
     9  H   0.998        C    6 0.971
    10  N   3.078        C   21 1.841    C   12 1.021
    11  H   0.907        O   23 0.841
    12  C   3.983        N   10 1.021    C   25 0.986    H   14 0.966    H   13 0.959
    13  H   0.995        C   12 0.959
    14  H   1.000        C   12 0.966
    15  H   0.969        N   16 0.935
    16  N   3.060        C   18 1.013    H   24 0.967    H   15 0.935
    17  H   0.924        O   23 0.922
    18  C   3.983        N   16 1.013    C   28 1.006    H   20 0.976    H   19 0.971
    19  H   1.000        C   18 0.971
    20  H   0.999        C   18 0.976
    21  C   3.969        N   10 1.841    C    3 1.082    H   22 0.940
    22  H   1.000        C   21 0.940
    23  O   1.801        H   17 0.922    H   11 0.841
    24  H   0.979        N   16 0.967
    25  C   3.989        C   34 1.006    C   12 0.986    H   27 0.978    H   26 0.969
    26  H   0.996        C   25 0.969
    27  H   0.999        C   25 0.978
    28  C   3.995        C   31 1.007    C   18 1.006    H   29 0.976    H   30 0.974
    29  H   0.999        C   28 0.976
    30  H   0.998        C   28 0.974
    31  C   3.997        C   39 1.020    C   28 1.007    H   33 0.978    H   32 0.978
    32  H   0.999        C   31 0.978
    33  H   0.999        C   31 0.978
    34  C   3.996        C   43 1.019    C   25 1.006    H   36 0.978    H   35 0.978
    35  H   0.999        C   34 0.978
    36  H   0.999        C   34 0.978
    37  H   0.998        C    5 0.970
    38  H   0.998        C    1 0.970
    39  C   3.996        C   31 1.020    H   41 0.988    H   42 0.988    H   40 0.987
    40  H   0.998        C   39 0.987
    41  H   0.999        C   39 0.988
    42  H   0.999        C   39 0.988
    43  C   3.994        C   34 1.019    H   46 0.988    H   45 0.987    H   44 0.987
    44  H   0.998        C   43 0.987
    45  H   0.998        C   43 0.987
    46  H   0.999        C   43 0.988

molecular dipole:
                 x           y           z       tot (Debye)
 q only:        1.241      -0.221      -0.084
   full:        1.712       0.161      -0.035       4.372
molecular quadrupole (traceless):
                xx          xy          yy          xz          yz          zz
 q only:       -9.052      -1.092       7.088      -1.235      -2.587       1.964
  q+dip:      -15.111      -5.783      14.694      -3.427      -7.135       0.417
   full:      -16.155      -5.041      13.089      -1.840      -4.984       3.066

           -------------------------------------------------
          |                Property Printout                |
           -------------------------------------------------

    * Orbital Energies and Occupations

         #    Occupation            Energy/Eh            Energy/eV
      -------------------------------------------------------------
         1        2.0000           -0.6608526             -17.9827
       ...           ...                  ...                  ...
        40        2.0000           -0.4388078             -11.9406
        41        2.0000           -0.4367730             -11.8852
        42        2.0000           -0.4342716             -11.8171
        43        2.0000           -0.4333126             -11.7910
        44        2.0000           -0.4312302             -11.7344
        45        2.0000           -0.4275576             -11.6344
        46        2.0000           -0.4266704             -11.6103
        47        2.0000           -0.4205376             -11.4434
        48        2.0000           -0.4178375             -11.3699
        49        2.0000           -0.4141471             -11.2695
        50        2.0000           -0.4037074             -10.9854
        51        2.0000           -0.3860441             -10.5048
        52        2.0000           -0.3790154             -10.3135 (HOMO)
        53                         -0.2760769              -7.5124 (LUMO)
        54                         -0.2337369              -6.3603
        55                         -0.1944742              -5.2919
        56                         -0.0935725              -2.5462
        57                          0.0109090               0.2968
        58                          0.0306449               0.8339
        59                          0.0748037               2.0355
        60                          0.0947536               2.5784
        61                          0.0997057               2.7131
        62                          0.1026141               2.7923
        63                          0.1092591               2.9731
       ...                                ...                  ...
       100                          0.6452530              17.5582
      -------------------------------------------------------------
                  HL-Gap            0.1029385 Eh            2.8011 eV
             Fermi-level           -0.3275462 Eh           -8.9130 eV

     #   Z        covCN         q      C6AA      α(0)
     1   6 C      2.913    -0.028    28.697     8.784
     2   6 C      2.922    -0.029    28.734     8.791
     3   6 C      2.969     0.004    27.932     8.669
     4   6 C      2.918    -0.026    28.663     8.779
     5   6 C      2.914    -0.028    28.707     8.786
     6   6 C      2.916    -0.025    28.622     8.773
     7   1 H      0.925     0.038     2.476     2.461
     8   1 H      0.926     0.047     2.360     2.402
     9   1 H      0.925     0.044     2.393     2.419
    10   7 N      1.825    -0.263    27.672     7.795
    11   1 H      0.801     0.305     0.706     1.321
    12   6 C      3.767     0.021    20.263     6.416
    13   1 H      0.924     0.042     2.420     2.433
    14   1 H      0.923     0.008     2.921     2.673
    15   1 H      0.860     0.176     1.237     1.742
    16   7 N      2.628    -0.376    29.712     8.096
    17   1 H      0.805     0.276     0.797     1.402
    18   6 C      3.731     0.019    20.338     6.437
    19   1 H      0.924     0.010     2.885     2.656
    20   1 H      0.924     0.032     2.554     2.499
    21   6 C      2.858     0.077    26.265     8.400
    22   1 H      0.924     0.001     3.034     2.724
    23   8 O      1.606    -0.628    25.862     6.863
    24   1 H      0.860     0.143     1.448     1.885
    25   6 C      3.803    -0.064    21.727     6.636
    26   1 H      0.925     0.063     2.164     2.301
    27   1 H      0.924     0.029     2.602     2.523
    28   6 C      3.802    -0.068    21.811     6.649
    29   1 H      0.924     0.035     2.516     2.481
    30   1 H      0.924     0.049     2.336     2.390
    31   6 C      3.800    -0.053    21.534     6.607
    32   1 H      0.924     0.030     2.586     2.515
    33   1 H      0.924     0.031     2.578     2.511
    34   6 C      3.800    -0.052    21.501     6.602
    35   1 H      0.924     0.032     2.554     2.499
    36   1 H      0.924     0.028     2.620     2.531
    37   1 H      0.925     0.043     2.412     2.429
    38   1 H      0.925     0.043     2.415     2.430
    39   6 C      3.750    -0.102    22.520     6.768
    40   1 H      0.924     0.036     2.509     2.477
    41   1 H      0.924     0.035     2.513     2.479
    42   1 H      0.924     0.036     2.500     2.473
    43   6 C      3.750    -0.104    22.552     6.773
    44   1 H      0.924     0.045     2.382     2.414
    45   1 H      0.924     0.035     2.516     2.480
    46   1 H      0.924     0.033     2.549     2.497

 Mol. C6AA /au·bohr⁶  :      17446.216673
 Mol. C8AA /au·bohr⁸  :     382491.854058
 Mol. α(0) /au        :        202.669926


Wiberg/Mayer (AO) data.
largest (>0.10) Wiberg bond orders for each atom
          total WBO             WBO to atom ...
     1  C   3.991        C    2 1.450    C    6 1.438    H   38 0.970    C    4 0.106
     2  C   3.987        C    1 1.450    C    3 1.381    H    7 0.968    C    5 0.105
     3  C   3.989        C    2 1.381    C    4 1.367    C   21 1.082    C    6 0.100
     4  C   3.990        C    5 1.466    C    3 1.367    H    8 0.964    C    1 0.106
     5  C   3.991        C    4 1.466    C    6 1.422    H   37 0.970    C    2 0.105
     6  C   3.987        C    1 1.438    C    5 1.422    H    9 0.971    C    3 0.100
     7  H   0.999        C    2 0.968
     8  H   0.998        C    4 0.964
     9  H   0.998        C    6 0.971
    10  N   3.078        C   21 1.841    C   12 1.021
    11  H   0.907        O   23 0.841
    12  C   3.983        N   10 1.021    C   25 0.986    H   14 0.966    H   13 0.959
    13  H   0.995        C   12 0.959
    14  H   1.000        C   12 0.966
    15  H   0.969        N   16 0.935
    16  N   3.060        C   18 1.013    H   24 0.967    H   15 0.935
    17  H   0.924        O   23 0.922
    18  C   3.983        N   16 1.013    C   28 1.006    H   20 0.976    H   19 0.971
    19  H   1.000        C   18 0.971
    20  H   0.999        C   18 0.976
    21  C   3.969        N   10 1.841    C    3 1.082    H   22 0.940
    22  H   1.000        C   21 0.940
    23  O   1.801        H   17 0.922    H   11 0.841
    24  H   0.979        N   16 0.967
    25  C   3.989        C   34 1.006    C   12 0.986    H   27 0.978    H   26 0.969
    26  H   0.996        C   25 0.969
    27  H   0.999        C   25 0.978
    28  C   3.995        C   31 1.007    C   18 1.006    H   29 0.976    H   30 0.974
    29  H   0.999        C   28 0.976
    30  H   0.998        C   28 0.974
    31  C   3.997        C   39 1.020    C   28 1.007    H   33 0.978    H   32 0.978
    32  H   0.999        C   31 0.978
    33  H   0.999        C   31 0.978
    34  C   3.996        C   43 1.019    C   25 1.006    H   36 0.978    H   35 0.978
    35  H   0.999        C   34 0.978
    36  H   0.999        C   34 0.978
    37  H   0.998        C    5 0.970
    38  H   0.998        C    1 0.970
    39  C   3.996        C   31 1.020    H   41 0.988    H   42 0.988    H   40 0.987
    40  H   0.998        C   39 0.987
    41  H   0.999        C   39 0.988
    42  H   0.999        C   39 0.988
    43  C   3.994        C   34 1.019    H   46 0.988    H   45 0.987    H   44 0.987
    44  H   0.998        C   43 0.987
    45  H   0.998        C   43 0.987
    46  H   0.999        C   43 0.988

molecular dipole:
                 x           y           z       tot (Debye)
 q only:        1.241      -0.221      -0.084
   full:        1.712       0.161      -0.035       4.372
molecular quadrupole (traceless):
                xx          xy          yy          xz          yz          zz
 q only:       -9.052      -1.092       7.088      -1.235      -2.587       1.964
  q+dip:      -15.111      -5.783      14.694      -3.427      -7.135       0.417
   full:      -16.155      -5.041      13.089      -1.840      -4.984       3.066


           -------------------------------------------------
          | TOTAL ENERGY              -56.295563378778 Eh   |
          | GRADIENT NORM               0.028575190783 Eh/α |
          | HOMO-LUMO GAP               2.801098286873 eV   |
           -------------------------------------------------

------------------------------------------------------------------------
 * finished run on 2020/08/27 at 22:56:01.892     
------------------------------------------------------------------------
 total:
 * wall-time:     0 d,  0 h,  0 min,  0.174 sec
 *  cpu-time:     0 d,  0 h,  0 min,  1.031 sec
 * ratio c/w:     5.926 speedup
 SCF:
 * wall-time:     0 d,  0 h,  0 min,  0.090 sec
 *  cpu-time:     0 d,  0 h,  0 min,  0.457 sec
 * ratio c/w:     5.074 speedup


-------------------------   --------------------
FINAL SINGLE POINT ENERGY       -56.295563378780
-------------------------   --------------------


----------------------------------------------------------------------------
                           ORCA NUMERICAL FREQUENCIES
                              (8-process run)
----------------------------------------------------------------------------

Number of atoms                ... 46
Central differences            ... used
Number of displacements        ... 276
Numerical increment            ... 5.000e-03 bohr
IR-spectrum generation         ... on
Raman-spectrum generation      ... off
Surface Crossing Hessian       ... off
List of participating nodes    ...  /tmp/slurm-scratch/freq.166/freq.hostnames

The output will be reduced. Please look at the following files:
SCF program output             ... >/tmp/slurm-scratch/freq.166/freq.lastscf
Integral program output        ... >/tmp/slurm-scratch/freq.166/freq.lastint
Gradient program output        ... >/tmp/slurm-scratch/freq.166/freq.lastgrad
Dipole moment program output   ... >/tmp/slurm-scratch/freq.166/freq.lastmom
AutoCI program output          ... >/tmp/slurm-scratch/freq.166/freq.lastautoci


         <<< Energy and Gradient at the input geometry >>>

        <<< Energy and Gradient at displaced geometries >>>
             <<<Displacing   2/coordinate 1 (+)>>>
             <<<Displacing   1/coordinate 1 (+)>>>
             <<<Displacing   2/coordinate 3 (+)>>>
             <<<Displacing   2/coordinate 1 (-)>>>
             <<<Displacing   1/coordinate 1 (-)>>>
             <<<Displacing   3/coordinate 1 (+)>>>
             <<<Displacing   2/coordinate 3 (-)>>>
             <<<Displacing   1/coordinate 2 (+)>>>
             <<<Displacing   3/coordinate 2 (+)>>>
             <<<Displacing   1/coordinate 3 (+)>>>
             <<<Displacing   3/coordinate 1 (-)>>>
             <<<Displacing   1/coordinate 2 (-)>>>
             <<<Displacing   2/coordinate 2 (+)>>>
             <<<Displacing   3/coordinate 2 (-)>>>
             <<<Displacing   1/coordinate 3 (-)>>>
             <<<Displacing   2/coordinate 2 (-)>>>
             <<<Displacing   3/coordinate 3 (+)>>>
             <<<Displacing   3/coordinate 3 (-)>>>
             <<<Displacing   4/coordinate 1 (+)>>>
             <<<Displacing   4/coordinate 2 (+)>>>
             <<<Displacing   5/coordinate 2 (+)>>>
             <<<Displacing   5/coordinate 3 (+)>>>
             <<<Displacing   4/coordinate 1 (-)>>>
             <<<Displacing   4/coordinate 3 (+)>>>
             <<<Displacing   4/coordinate 2 (-)>>>
             <<<Displacing   5/coordinate 1 (+)>>>
             <<<Displacing   5/coordinate 2 (-)>>>
             <<<Displacing   4/coordinate 3 (-)>>>
             <<<Displacing   5/coordinate 3 (-)>>>
             <<<Displacing   6/coordinate 1 (+)>>>
             <<<Displacing   5/coordinate 1 (-)>>>
             <<<Displacing   6/coordinate 1 (-)>>>
             <<<Displacing   6/coordinate 2 (+)>>>
             <<<Displacing   7/coordinate 1 (+)>>>
             <<<Displacing   8/coordinate 1 (+)>>>
             <<<Displacing   7/coordinate 3 (+)>>>
             <<<Displacing   6/coordinate 3 (+)>>>
             <<<Displacing   7/coordinate 1 (-)>>>
             <<<Displacing   6/coordinate 2 (-)>>>
             <<<Displacing   8/coordinate 1 (-)>>>
             <<<Displacing   7/coordinate 3 (-)>>>
             <<<Displacing   6/coordinate 3 (-)>>>
             <<<Displacing   8/coordinate 2 (+)>>>
             <<<Displacing   7/coordinate 2 (+)>>>
             <<<Displacing   8/coordinate 2 (-)>>>
             <<<Displacing   7/coordinate 2 (-)>>>
             <<<Displacing   8/coordinate 3 (+)>>>
             <<<Displacing   8/coordinate 3 (-)>>>
             <<<Displacing   9/coordinate 3 (+)>>>
             <<<Displacing   9/coordinate 1 (+)>>>
             <<<Displacing   9/coordinate 1 (-)>>>
             <<<Displacing   9/coordinate 3 (-)>>>
             <<<Displacing  10/coordinate 2 (+)>>>
             <<<Displacing  10/coordinate 2 (-)>>>
             <<<Displacing  10/coordinate 1 (+)>>>
             <<<Displacing   9/coordinate 2 (+)>>>
             <<<Displacing  11/coordinate 2 (+)>>>
             <<<Displacing  10/coordinate 1 (-)>>>
             <<<Displacing   9/coordinate 2 (-)>>>
             <<<Displacing  11/coordinate 2 (-)>>>
             <<<Displacing  10/coordinate 3 (+)>>>
             <<<Displacing  10/coordinate 3 (-)>>>
             <<<Displacing  11/coordinate 1 (+)>>>
             <<<Displacing  11/coordinate 1 (-)>>>
             <<<Displacing  11/coordinate 3 (+)>>>
             <<<Displacing  12/coordinate 2 (+)>>>
             <<<Displacing  12/coordinate 3 (+)>>>
             <<<Displacing  12/coordinate 2 (-)>>>
             <<<Displacing  12/coordinate 1 (+)>>>
             <<<Displacing  11/coordinate 3 (-)>>>
             <<<Displacing  12/coordinate 3 (-)>>>
             <<<Displacing  13/coordinate 1 (+)>>>
             <<<Displacing  12/coordinate 1 (-)>>>
             <<<Displacing  13/coordinate 1 (-)>>>
             <<<Displacing  13/coordinate 2 (+)>>>
             <<<Displacing  13/coordinate 3 (+)>>>
             <<<Displacing  13/coordinate 2 (-)>>>
             <<<Displacing  13/coordinate 3 (-)>>>
             <<<Displacing  14/coordinate 1 (+)>>>
             <<<Displacing  14/coordinate 1 (-)>>>
             <<<Displacing  15/coordinate 2 (+)>>>
             <<<Displacing  15/coordinate 1 (+)>>>
             <<<Displacing  14/coordinate 3 (+)>>>
             <<<Displacing  15/coordinate 2 (-)>>>
             <<<Displacing  15/coordinate 1 (-)>>>
             <<<Displacing  14/coordinate 2 (+)>>>
             <<<Displacing  14/coordinate 3 (-)>>>
             <<<Displacing  14/coordinate 2 (-)>>>
             <<<Displacing  15/coordinate 3 (+)>>>
             <<<Displacing  15/coordinate 3 (-)>>>
             <<<Displacing  16/coordinate 1 (+)>>>
             <<<Displacing  16/coordinate 1 (-)>>>
             <<<Displacing  16/coordinate 2 (+)>>>
             <<<Displacing  16/coordinate 3 (+)>>>
             <<<Displacing  16/coordinate 2 (-)>>>
             <<<Displacing  16/coordinate 3 (-)>>>
             <<<Displacing  17/coordinate 1 (+)>>>
             <<<Displacing  17/coordinate 3 (+)>>>
             <<<Displacing  17/coordinate 1 (-)>>>
             <<<Displacing  18/coordinate 2 (+)>>>
             <<<Displacing  17/coordinate 3 (-)>>>
             <<<Displacing  17/coordinate 2 (+)>>>
             <<<Displacing  18/coordinate 2 (-)>>>
             <<<Displacing  18/coordinate 1 (+)>>>
             <<<Displacing  17/coordinate 2 (-)>>>
             <<<Displacing  19/coordinate 1 (+)>>>
             <<<Displacing  18/coordinate 1 (-)>>>
             <<<Displacing  19/coordinate 2 (+)>>>
             <<<Displacing  19/coordinate 1 (-)>>>
             <<<Displacing  18/coordinate 3 (+)>>>
             <<<Displacing  19/coordinate 2 (-)>>>
             <<<Displacing  18/coordinate 3 (-)>>>
             <<<Displacing  20/coordinate 2 (+)>>>
             <<<Displacing  20/coordinate 1 (+)>>>
             <<<Displacing  20/coordinate 2 (-)>>>
             <<<Displacing  20/coordinate 1 (-)>>>
             <<<Displacing  19/coordinate 3 (+)>>>
             <<<Displacing  19/coordinate 3 (-)>>>
             <<<Displacing  21/coordinate 2 (+)>>>
             <<<Displacing  20/coordinate 3 (+)>>>
             <<<Displacing  21/coordinate 1 (+)>>>
             <<<Displacing  21/coordinate 2 (-)>>>
             <<<Displacing  20/coordinate 3 (-)>>>
             <<<Displacing  21/coordinate 1 (-)>>>
             <<<Displacing  22/coordinate 1 (+)>>>
             <<<Displacing  21/coordinate 3 (+)>>>
             <<<Displacing  22/coordinate 1 (-)>>>
             <<<Displacing  21/coordinate 3 (-)>>>
             <<<Displacing  22/coordinate 2 (+)>>>
             <<<Displacing  22/coordinate 2 (-)>>>
             <<<Displacing  22/coordinate 3 (+)>>>
             <<<Displacing  22/coordinate 3 (-)>>>
             <<<Displacing  23/coordinate 1 (+)>>>
             <<<Displacing  23/coordinate 1 (-)>>>
             <<<Displacing  24/coordinate 1 (+)>>>
             <<<Displacing  23/coordinate 2 (+)>>>
             <<<Displacing  23/coordinate 3 (+)>>>
             <<<Displacing  24/coordinate 2 (+)>>>
             <<<Displacing  23/coordinate 2 (-)>>>
             <<<Displacing  24/coordinate 1 (-)>>>
             <<<Displacing  23/coordinate 3 (-)>>>
             <<<Displacing  24/coordinate 2 (-)>>>
             <<<Displacing  24/coordinate 3 (+)>>>
             <<<Displacing  24/coordinate 3 (-)>>>
             <<<Displacing  25/coordinate 1 (+)>>>
             <<<Displacing  25/coordinate 1 (-)>>>
             <<<Displacing  25/coordinate 2 (+)>>>
             <<<Displacing  25/coordinate 2 (-)>>>
             <<<Displacing  26/coordinate 1 (+)>>>
             <<<Displacing  26/coordinate 1 (-)>>>
             <<<Displacing  25/coordinate 3 (+)>>>
             <<<Displacing  26/coordinate 2 (+)>>>
             <<<Displacing  27/coordinate 1 (+)>>>
             <<<Displacing  25/coordinate 3 (-)>>>
             <<<Displacing  26/coordinate 3 (+)>>>
             <<<Displacing  26/coordinate 2 (-)>>>
             <<<Displacing  27/coordinate 1 (-)>>>
             <<<Displacing  27/coordinate 2 (+)>>>
             <<<Displacing  26/coordinate 3 (-)>>>
             <<<Displacing  27/coordinate 2 (-)>>>
             <<<Displacing  27/coordinate 3 (+)>>>
             <<<Displacing  28/coordinate 1 (+)>>>
             <<<Displacing  27/coordinate 3 (-)>>>
             <<<Displacing  28/coordinate 1 (-)>>>
             <<<Displacing  28/coordinate 2 (+)>>>
             <<<Displacing  28/coordinate 3 (+)>>>
             <<<Displacing  28/coordinate 2 (-)>>>
             <<<Displacing  29/coordinate 1 (+)>>>
             <<<Displacing  29/coordinate 2 (+)>>>
             <<<Displacing  29/coordinate 3 (+)>>>
             <<<Displacing  30/coordinate 1 (+)>>>
             <<<Displacing  28/coordinate 3 (-)>>>
             <<<Displacing  29/coordinate 2 (-)>>>
             <<<Displacing  29/coordinate 1 (-)>>>
             <<<Displacing  29/coordinate 3 (-)>>>
             <<<Displacing  30/coordinate 1 (-)>>>
             <<<Displacing  30/coordinate 2 (+)>>>
             <<<Displacing  30/coordinate 3 (+)>>>
             <<<Displacing  30/coordinate 2 (-)>>>
             <<<Displacing  30/coordinate 3 (-)>>>
             <<<Displacing  31/coordinate 2 (+)>>>
             <<<Displacing  31/coordinate 2 (-)>>>
             <<<Displacing  31/coordinate 3 (+)>>>
             <<<Displacing  31/coordinate 3 (-)>>>
             <<<Displacing  31/coordinate 1 (+)>>>
             <<<Displacing  32/coordinate 1 (+)>>>
             <<<Displacing  32/coordinate 3 (+)>>>
             <<<Displacing  31/coordinate 1 (-)>>>
             <<<Displacing  32/coordinate 1 (-)>>>
             <<<Displacing  32/coordinate 3 (-)>>>
             <<<Displacing  32/coordinate 2 (+)>>>
             <<<Displacing  32/coordinate 2 (-)>>>
             <<<Displacing  33/coordinate 1 (+)>>>
             <<<Displacing  33/coordinate 1 (-)>>>
             <<<Displacing  33/coordinate 2 (+)>>>
             <<<Displacing  33/coordinate 2 (-)>>>
             <<<Displacing  34/coordinate 1 (+)>>>
             <<<Displacing  33/coordinate 3 (+)>>>
             <<<Displacing  33/coordinate 3 (-)>>>
             <<<Displacing  34/coordinate 1 (-)>>>
             <<<Displacing  34/coordinate 2 (+)>>>
             <<<Displacing  35/coordinate 1 (+)>>>
             <<<Displacing  34/coordinate 3 (+)>>>
             <<<Displacing  34/coordinate 2 (-)>>>
             <<<Displacing  35/coordinate 1 (-)>>>
             <<<Displacing  34/coordinate 3 (-)>>>
             <<<Displacing  35/coordinate 2 (+)>>>
             <<<Displacing  35/coordinate 2 (-)>>>
             <<<Displacing  35/coordinate 3 (+)>>>
             <<<Displacing  35/coordinate 3 (-)>>>
             <<<Displacing  36/coordinate 1 (+)>>>
             <<<Displacing  36/coordinate 2 (+)>>>
             <<<Displacing  36/coordinate 1 (-)>>>
             <<<Displacing  36/coordinate 2 (-)>>>
             <<<Displacing  36/coordinate 3 (+)>>>
             <<<Displacing  37/coordinate 1 (+)>>>
             <<<Displacing  36/coordinate 3 (-)>>>
             <<<Displacing  37/coordinate 1 (-)>>>
             <<<Displacing  37/coordinate 3 (+)>>>
             <<<Displacing  37/coordinate 2 (+)>>>
             <<<Displacing  37/coordinate 3 (-)>>>
             <<<Displacing  37/coordinate 2 (-)>>>
             <<<Displacing  38/coordinate 1 (+)>>>
             <<<Displacing  38/coordinate 1 (-)>>>
             <<<Displacing  38/coordinate 2 (+)>>>
             <<<Displacing  38/coordinate 2 (-)>>>
             <<<Displacing  38/coordinate 3 (+)>>>
             <<<Displacing  38/coordinate 3 (-)>>>
             <<<Displacing  39/coordinate 2 (+)>>>
             <<<Displacing  39/coordinate 1 (+)>>>
             <<<Displacing  39/coordinate 2 (-)>>>
             <<<Displacing  39/coordinate 1 (-)>>>
             <<<Displacing  39/coordinate 3 (+)>>>
             <<<Displacing  40/coordinate 1 (+)>>>
             <<<Displacing  40/coordinate 3 (+)>>>
             <<<Displacing  40/coordinate 3 (-)>>>
             <<<Displacing  40/coordinate 1 (-)>>>
             <<<Displacing  39/coordinate 3 (-)>>>
             <<<Displacing  40/coordinate 2 (+)>>>
             <<<Displacing  40/coordinate 2 (-)>>>
             <<<Displacing  41/coordinate 1 (+)>>>
             <<<Displacing  41/coordinate 1 (-)>>>
             <<<Displacing  41/coordinate 2 (+)>>>
             <<<Displacing  41/coordinate 2 (-)>>>
             <<<Displacing  41/coordinate 3 (+)>>>
             <<<Displacing  41/coordinate 3 (-)>>>
             <<<Displacing  42/coordinate 1 (+)>>>
             <<<Displacing  42/coordinate 1 (-)>>>
             <<<Displacing  42/coordinate 2 (+)>>>
             <<<Displacing  42/coordinate 2 (-)>>>
             <<<Displacing  42/coordinate 3 (+)>>>
             <<<Displacing  43/coordinate 1 (+)>>>
             <<<Displacing  43/coordinate 2 (+)>>>
             <<<Displacing  42/coordinate 3 (-)>>>
             <<<Displacing  43/coordinate 1 (-)>>>
             <<<Displacing  43/coordinate 2 (-)>>>
             <<<Displacing  43/coordinate 3 (+)>>>
             <<<Displacing  43/coordinate 3 (-)>>>
             <<<Displacing  44/coordinate 1 (+)>>>
             <<<Displacing  44/coordinate 1 (-)>>>
             <<<Displacing  44/coordinate 3 (+)>>>
             <<<Displacing  44/coordinate 2 (+)>>>
             <<<Displacing  44/coordinate 3 (-)>>>
             <<<Displacing  44/coordinate 2 (-)>>>
             <<<Displacing  45/coordinate 1 (+)>>>
             <<<Displacing  45/coordinate 2 (+)>>>
             <<<Displacing  45/coordinate 1 (-)>>>
             <<<Displacing  45/coordinate 2 (-)>>>
             <<<Displacing  45/coordinate 3 (+)>>>
             <<<Displacing  45/coordinate 3 (-)>>>
             <<<Displacing  46/coordinate 1 (+)>>>
             <<<Displacing  46/coordinate 1 (-)>>>
             <<<Displacing  46/coordinate 2 (+)>>>
             <<<Displacing  46/coordinate 2 (-)>>>
             <<<Displacing  46/coordinate 3 (+)>>>
             <<<Displacing  46/coordinate 3 (-)>>>

-----------------------
VIBRATIONAL FREQUENCIES
-----------------------

Scaling factor for frequencies =  1.000000000 (already applied!)

   0:         0.00 cm**-1
   1:         0.00 cm**-1
   2:         0.00 cm**-1
   3:         0.00 cm**-1
   4:         0.00 cm**-1
   5:         0.00 cm**-1
   6:       -20.08 cm**-1 ***imaginary mode***
   7:        27.24 cm**-1
   8:        39.90 cm**-1
   9:        41.51 cm**-1
  10:        47.12 cm**-1
  11:        53.67 cm**-1
  12:        60.72 cm**-1
  13:        70.43 cm**-1
  14:        75.82 cm**-1
  15:        82.50 cm**-1
  16:        84.52 cm**-1
  17:       113.18 cm**-1
  18:       116.59 cm**-1
  19:       126.65 cm**-1
  20:       132.85 cm**-1
  21:       156.50 cm**-1
  22:       181.77 cm**-1
  23:       206.56 cm**-1
  24:       222.95 cm**-1
  25:       227.82 cm**-1
  26:       268.49 cm**-1
  27:       271.10 cm**-1
  28:       282.43 cm**-1
  29:       286.50 cm**-1
  30:       381.82 cm**-1
  31:       383.55 cm**-1
  32:       389.67 cm**-1
  33:       396.36 cm**-1
  34:       425.89 cm**-1
  35:       436.12 cm**-1
  36:       458.77 cm**-1
  37:       487.02 cm**-1
  38:       512.83 cm**-1
  39:       589.12 cm**-1
  40:       624.58 cm**-1
  41:       668.46 cm**-1
  42:       675.90 cm**-1
  43:       756.59 cm**-1
  44:       773.13 cm**-1
  45:       775.01 cm**-1
  46:       824.01 cm**-1
  47:       826.17 cm**-1
  48:       858.78 cm**-1
  49:       876.47 cm**-1
  50:       904.30 cm**-1
  51:       917.73 cm**-1
  52:       927.76 cm**-1
  53:       933.34 cm**-1
  54:       937.50 cm**-1
  55:       940.85 cm**-1
  56:       945.98 cm**-1
  57:       953.66 cm**-1
  58:       984.34 cm**-1
  59:       995.45 cm**-1
  60:      1014.38 cm**-1
  61:      1018.63 cm**-1
  62:      1065.54 cm**-1
  63:      1067.83 cm**-1
  64:      1070.51 cm**-1
  65:      1098.05 cm**-1
  66:      1100.83 cm**-1
  67:      1112.19 cm**-1
  68:      1124.26 cm**-1
  69:      1126.08 cm**-1
  70:      1144.07 cm**-1
  71:      1154.50 cm**-1
  72:      1177.98 cm**-1
  73:      1184.42 cm**-1
  74:      1203.99 cm**-1
  75:      1212.26 cm**-1
  76:      1218.76 cm**-1
  77:      1241.79 cm**-1
  78:      1254.99 cm**-1
  79:      1268.48 cm**-1
  80:      1275.52 cm**-1
  81:      1277.17 cm**-1
  82:      1279.47 cm**-1
  83:      1283.46 cm**-1
  84:      1293.80 cm**-1
  85:      1295.45 cm**-1
  86:      1324.14 cm**-1
  87:      1354.28 cm**-1
  88:      1355.62 cm**-1
  89:      1368.03 cm**-1
  90:      1380.56 cm**-1
  91:      1422.87 cm**-1
  92:      1427.72 cm**-1
  93:      1428.41 cm**-1
  94:      1454.80 cm**-1
  95:      1471.96 cm**-1
  96:      1492.36 cm**-1
  97:      1500.36 cm**-1
  98:      1502.84 cm**-1
  99:      1505.09 cm**-1
 100:      1506.33 cm**-1
 101:      1506.86 cm**-1
 102:      1507.64 cm**-1
 103:      1512.84 cm**-1
 104:      1513.23 cm**-1
 105:      1539.29 cm**-1
 106:      1561.25 cm**-1
 107:      1567.80 cm**-1
 108:      1569.19 cm**-1
 109:      1668.35 cm**-1
 110:      2859.49 cm**-1
 111:      2877.00 cm**-1
 112:      2887.61 cm**-1
 113:      2933.13 cm**-1
 114:      2938.18 cm**-1
 115:      2944.05 cm**-1
 116:      2946.01 cm**-1
 117:      2956.27 cm**-1
 118:      2963.80 cm**-1
 119:      2964.62 cm**-1
 120:      2976.20 cm**-1
 121:      2978.18 cm**-1
 122:      2979.31 cm**-1
 123:      2981.73 cm**-1
 124:      2985.46 cm**-1
 125:      2990.72 cm**-1
 126:      2997.48 cm**-1
 127:      3000.22 cm**-1
 128:      3014.45 cm**-1
 129:      3025.25 cm**-1
 130:      3050.43 cm**-1
 131:      3057.67 cm**-1
 132:      3063.59 cm**-1
 133:      3073.70 cm**-1
 134:      3092.37 cm**-1
 135:      3312.18 cm**-1
 136:      3402.15 cm**-1
 137:      3596.93 cm**-1


------------
NORMAL MODES
------------

These modes are the cartesian displacements weighted by the diagonal matrix
M(i,i)=1/sqrt(m[i]) where m[i] is the mass of the displaced atom
Thus, these vectors are normalized but *not* orthogonal

                  0          1          2          3          4          5    
      0       0.000000   0.000000   0.000000   0.000000   0.000000   0.000000
      1       0.000000   0.000000   0.000000   0.000000   0.000000   0.000000
      2       0.000000   0.000000   0.000000   0.000000   0.000000   0.000000
      3       0.000000   0.000000   0.000000   0.000000   0.000000   0.000000
      4       0.000000   0.000000   0.000000   0.000000   0.000000   0.000000
      5       0.000000   0.000000   0.000000   0.000000   0.000000   0.000000
      6       0.000000   0.000000   0.000000   0.000000   0.000000   0.000000
      7       0.000000   0.000000   0.000000   0.000000   0.000000   0.000000
      8       0.000000   0.000000   0.000000   0.000000   0.000000   0.000000
      9       0.000000   0.000000   0.000000   0.000000   0.000000   0.000000
     10       0.000000   0.000000   0.000000   0.000000   0.000000   0.000000
     11       0.000000   0.000000   0.000000   0.000000   0.000000   0.000000
     12       0.000000   0.000000   0.000000   0.000000   0.000000   0.000000
     13       0.000000   0.000000   0.000000   0.000000   0.000000   0.000000
     14       0.000000   0.000000   0.000000   0.000000   0.000000   0.000000
     15       0.000000   0.000000   0.000000   0.000000   0.000000   0.000000
     16       0.000000   0.000000   0.000000   0.000000   0.000000   0.000000
     17       0.000000   0.000000   0.000000   0.000000   0.000000   0.000000
     18       0.000000   0.000000   0.000000   0.000000   0.000000   0.000000
     19       0.000000   0.000000   0.000000   0.000000   0.000000   0.000000
     20       0.000000   0.000000   0.000000   0.000000   0.000000   0.000000
     21       0.000000   0.000000   0.000000   0.000000   0.000000   0.000000
     22       0.000000   0.000000   0.000000   0.000000   0.000000   0.000000
     23       0.000000   0.000000   0.000000   0.000000   0.000000   0.000000
     24       0.000000   0.000000   0.000000   0.000000   0.000000   0.000000
     25       0.000000   0.000000   0.000000   0.000000   0.000000   0.000000
     26       0.000000   0.000000   0.000000   0.000000   0.000000   0.000000
     27       0.000000   0.000000   0.000000   0.000000   0.000000   0.000000
     28       0.000000   0.000000   0.000000   0.000000   0.000000   0.000000
     29       0.000000   0.000000   0.000000   0.000000   0.000000   0.000000
     30       0.000000   0.000000   0.000000   0.000000   0.000000   0.000000
     31       0.000000   0.000000   0.000000   0.000000   0.000000   0.000000
     32       0.000000   0.000000   0.000000   0.000000   0.000000   0.000000
     33       0.000000   0.000000   0.000000   0.000000   0.000000   0.000000
     34       0.000000   0.000000   0.000000   0.000000   0.000000   0.000000
     35       0.000000   0.000000   0.000000   0.000000   0.000000   0.000000
     36       0.000000   0.000000   0.000000   0.000000   0.000000   0.000000
     37       0.000000   0.000000   0.000000   0.000000   0.000000   0.000000
     38       0.000000   0.000000   0.000000   0.000000   0.000000   0.000000
     39       0.000000   0.000000   0.000000   0.000000   0.000000   0.000000
     40       0.000000   0.000000   0.000000   0.000000   0.000000   0.000000
     41       0.000000   0.000000   0.000000   0.000000   0.000000   0.000000
     42       0.000000   0.000000   0.000000   0.000000   0.000000   0.000000
     43       0.000000   0.000000   0.000000   0.000000   0.000000   0.000000
     44       0.000000   0.000000   0.000000   0.000000   0.000000   0.000000
     45       0.000000   0.000000   0.000000   0.000000   0.000000   0.000000
     46       0.000000   0.000000   0.000000   0.000000   0.000000   0.000000
     47       0.000000   0.000000   0.000000   0.000000   0.000000   0.000000
     48       0.000000   0.000000   0.000000   0.000000   0.000000   0.000000
     49       0.000000   0.000000   0.000000   0.000000   0.000000   0.000000
     50       0.000000   0.000000   0.000000   0.000000   0.000000   0.000000
     51       0.000000   0.000000   0.000000   0.000000   0.000000   0.000000
     52       0.000000   0.000000   0.000000   0.000000   0.000000   0.000000
     53       0.000000   0.000000   0.000000   0.000000   0.000000   0.000000
     54       0.000000   0.000000   0.000000   0.000000   0.000000   0.000000
     55       0.000000   0.000000   0.000000   0.000000   0.000000   0.000000
     56       0.000000   0.000000   0.000000   0.000000   0.000000   0.000000
     57       0.000000   0.000000   0.000000   0.000000   0.000000   0.000000
     58       0.000000   0.000000   0.000000   0.000000   0.000000   0.000000
     59       0.000000   0.000000   0.000000   0.000000   0.000000   0.000000
     60       0.000000   0.000000   0.000000   0.000000   0.000000   0.000000
     61       0.000000   0.000000   0.000000   0.000000   0.000000   0.000000
     62       0.000000   0.000000   0.000000   0.000000   0.000000   0.000000
     63       0.000000   0.000000   0.000000   0.000000   0.000000   0.000000
     64       0.000000   0.000000   0.000000   0.000000   0.000000   0.000000
     65       0.000000   0.000000   0.000000   0.000000   0.000000   0.000000
     66       0.000000   0.000000   0.000000   0.000000   0.000000   0.000000
     67       0.000000   0.000000   0.000000   0.000000   0.000000   0.000000
     68       0.000000   0.000000   0.000000   0.000000   0.000000   0.000000
     69       0.000000   0.000000   0.000000   0.000000   0.000000   0.000000
     70       0.000000   0.000000   0.000000   0.000000   0.000000   0.000000
     71       0.000000   0.000000   0.000000   0.000000   0.000000   0.000000
     72       0.000000   0.000000   0.000000   0.000000   0.000000   0.000000
     73       0.000000   0.000000   0.000000   0.000000   0.000000   0.000000
     74       0.000000   0.000000   0.000000   0.000000   0.000000   0.000000
     75       0.000000   0.000000   0.000000   0.000000   0.000000   0.000000
     76       0.000000   0.000000   0.000000   0.000000   0.000000   0.000000
     77       0.000000   0.000000   0.000000   0.000000   0.000000   0.000000
     78       0.000000   0.000000   0.000000   0.000000   0.000000   0.000000
     79       0.000000   0.000000   0.000000   0.000000   0.000000   0.000000
     80       0.000000   0.000000   0.000000   0.000000   0.000000   0.000000
     81       0.000000   0.000000   0.000000   0.000000   0.000000   0.000000
     82       0.000000   0.000000   0.000000   0.000000   0.000000   0.000000
     83       0.000000   0.000000   0.000000   0.000000   0.000000   0.000000
     84       0.000000   0.000000   0.000000   0.000000   0.000000   0.000000
     85       0.000000   0.000000   0.000000   0.000000   0.000000   0.000000
     86       0.000000   0.000000   0.000000   0.000000   0.000000   0.000000
     87       0.000000   0.000000   0.000000   0.000000   0.000000   0.000000
     88       0.000000   0.000000   0.000000   0.000000   0.000000   0.000000
     89       0.000000   0.000000   0.000000   0.000000   0.000000   0.000000
     90       0.000000   0.000000   0.000000   0.000000   0.000000   0.000000
     91       0.000000   0.000000   0.000000   0.000000   0.000000   0.000000
     92       0.000000   0.000000   0.000000   0.000000   0.000000   0.000000
     93       0.000000   0.000000   0.000000   0.000000   0.000000   0.000000
     94       0.000000   0.000000   0.000000   0.000000   0.000000   0.000000
     95       0.000000   0.000000   0.000000   0.000000   0.000000   0.000000
     96       0.000000   0.000000   0.000000   0.000000   0.000000   0.000000
     97       0.000000   0.000000   0.000000   0.000000   0.000000   0.000000
     98       0.000000   0.000000   0.000000   0.000000   0.000000   0.000000
     99       0.000000   0.000000   0.000000   0.000000   0.000000   0.000000
    100       0.000000   0.000000   0.000000   0.000000   0.000000   0.000000
    101       0.000000   0.000000   0.000000   0.000000   0.000000   0.000000
    102       0.000000   0.000000   0.000000   0.000000   0.000000   0.000000
    103       0.000000   0.000000   0.000000   0.000000   0.000000   0.000000
    104       0.000000   0.000000   0.000000   0.000000   0.000000   0.000000
    105       0.000000   0.000000   0.000000   0.000000   0.000000   0.000000
    106       0.000000   0.000000   0.000000   0.000000   0.000000   0.000000
    107       0.000000   0.000000   0.000000   0.000000   0.000000   0.000000
    108       0.000000   0.000000   0.000000   0.000000   0.000000   0.000000
    109       0.000000   0.000000   0.000000   0.000000   0.000000   0.000000
    110       0.000000   0.000000   0.000000   0.000000   0.000000   0.000000
    111       0.000000   0.000000   0.000000   0.000000   0.000000   0.000000
    112       0.000000   0.000000   0.000000   0.000000   0.000000   0.000000
    113       0.000000   0.000000   0.000000   0.000000   0.000000   0.000000
    114       0.000000   0.000000   0.000000   0.000000   0.000000   0.000000
    115       0.000000   0.000000   0.000000   0.000000   0.000000   0.000000
    116       0.000000   0.000000   0.000000   0.000000   0.000000   0.000000
    117       0.000000   0.000000   0.000000   0.000000   0.000000   0.000000
    118       0.000000   0.000000   0.000000   0.000000   0.000000   0.000000
    119       0.000000   0.000000   0.000000   0.000000   0.000000   0.000000
    120       0.000000   0.000000   0.000000   0.000000   0.000000   0.000000
    121       0.000000   0.000000   0.000000   0.000000   0.000000   0.000000
    122       0.000000   0.000000   0.000000   0.000000   0.000000   0.000000
    123       0.000000   0.000000   0.000000   0.000000   0.000000   0.000000
    124       0.000000   0.000000   0.000000   0.000000   0.000000   0.000000
    125       0.000000   0.000000   0.000000   0.000000   0.000000   0.000000
    126       0.000000   0.000000   0.000000   0.000000   0.000000   0.000000
    127       0.000000   0.000000   0.000000   0.000000   0.000000   0.000000
    128       0.000000   0.000000   0.000000   0.000000   0.000000   0.000000
    129       0.000000   0.000000   0.000000   0.000000   0.000000   0.000000
    130       0.000000   0.000000   0.000000   0.000000   0.000000   0.000000
    131       0.000000   0.000000   0.000000   0.000000   0.000000   0.000000
    132       0.000000   0.000000   0.000000   0.000000   0.000000   0.000000
    133       0.000000   0.000000   0.000000   0.000000   0.000000   0.000000
    134       0.000000   0.000000   0.000000   0.000000   0.000000   0.000000
    135       0.000000   0.000000   0.000000   0.000000   0.000000   0.000000
    136       0.000000   0.000000   0.000000   0.000000   0.000000   0.000000
    137       0.000000   0.000000   0.000000   0.000000   0.000000   0.000000
                  6          7          8          9         10         11    
      0      -0.019556   0.033168   0.071552   0.071290   0.020073  -0.014210
      1      -0.066500  -0.031022   0.099279  -0.047459   0.024631  -0.061715
      2      -0.011307   0.027543   0.116660   0.022010   0.001368   0.023109
      3      -0.014598   0.027344   0.061084   0.069361   0.023222  -0.014993
      4      -0.052625  -0.026678   0.085236  -0.013308   0.016323  -0.048638
      5      -0.008666  -0.000892   0.092309  -0.026788   0.024259   0.004182
      6      -0.022513   0.013272   0.038728   0.029819   0.027955  -0.022094
      7      -0.041907  -0.019416   0.055427   0.019656  -0.002938  -0.026965
      8      -0.004466  -0.009743   0.022305  -0.035338   0.004458   0.023787
      9      -0.035014   0.007024   0.027154  -0.006820   0.028202  -0.025371
     10      -0.046475  -0.015690   0.040439   0.017565  -0.014474  -0.017588
     11      -0.004038   0.013887  -0.020640   0.008031  -0.040389   0.066435
     12      -0.040250   0.012406   0.039620  -0.005248   0.025695  -0.024519
     13      -0.060973  -0.020830   0.056575  -0.017470  -0.005145  -0.030762
     14      -0.008081   0.040811   0.009122   0.055338  -0.061315   0.085374
     15      -0.032358   0.025297   0.061530   0.033725   0.021650  -0.018916
     16      -0.070887  -0.028821   0.085755  -0.050203   0.014644  -0.053220
     17      -0.011163   0.046903   0.076895   0.062034  -0.040178   0.062928
     18      -0.004689   0.033358   0.069786   0.098614   0.021969  -0.010817
     19      -0.049418  -0.028733   0.096700  -0.011114   0.024193  -0.055187
     20      -0.009409  -0.017302   0.125799  -0.058398   0.057286  -0.027284
     21      -0.039153  -0.002609   0.006103  -0.037996   0.029924  -0.024436
     22      -0.038936  -0.010265   0.015106   0.043006  -0.030488  -0.001913
     23       0.000621   0.008310  -0.080750   0.001660  -0.058731   0.087793
     24      -0.036351   0.028957   0.070247   0.034442   0.019674  -0.018292
     25      -0.081962  -0.033131   0.097286  -0.077460   0.021688  -0.063119
     26      -0.013406   0.066687   0.097429   0.097980  -0.056545   0.077610
     27      -0.026125  -0.004324   0.019874   0.008063   0.038348  -0.043264
     28      -0.007074   0.000210   0.026177   0.101283  -0.039603  -0.007269
     29       0.003614  -0.044861  -0.037039  -0.063154   0.009954  -0.029838
     30       0.028675   0.068054   0.012395  -0.087707  -0.138012   0.150821
     31      -0.008344  -0.056331  -0.041050  -0.036937   0.106694   0.203407
     32       0.028597   0.179307   0.031402  -0.092007  -0.001755  -0.015759
     33      -0.015662  -0.013207   0.018653   0.016340   0.030020  -0.040706
     34       0.015670   0.003691   0.022765   0.138574  -0.069085  -0.000936
     35       0.008019  -0.100345  -0.036127  -0.107482   0.033804  -0.031440
     36      -0.006379  -0.008926   0.035207   0.069685  -0.000372  -0.045777
     37       0.038161   0.110298   0.049784   0.330069  -0.186802  -0.021760
     38       0.014161  -0.080621  -0.027178  -0.060783   0.005925  -0.036142
     39      -0.000493  -0.030992   0.009339   0.002523   0.026765  -0.031290
     40       0.012699  -0.013096   0.018953   0.109617  -0.052167   0.002153
     41      -0.011119  -0.214226  -0.063574  -0.303994   0.151512  -0.008224
     42      -0.065884   0.014197  -0.013732  -0.046386  -0.080065   0.096753
     43       0.069847   0.016630  -0.017605   0.007043   0.066134   0.129528
     44      -0.045728   0.083679  -0.125595   0.006378   0.013442  -0.180152
     45       0.003092   0.040092  -0.002384  -0.062216  -0.107554   0.113680
     46       0.049183   0.015523  -0.027787   0.014817   0.071419   0.110783
     47      -0.033819   0.065165  -0.097813  -0.005122   0.011583  -0.130333
     48       0.039994   0.113729   0.039986  -0.092204  -0.176953   0.127119
     49       0.000890  -0.076756  -0.020352  -0.075154   0.153078   0.315572
     50       0.059353   0.226957   0.102636  -0.151684  -0.005112   0.101004
     51      -0.105406  -0.048504  -0.130386  -0.024258  -0.136038   0.120090
     52       0.101822   0.090102  -0.028264   0.015597   0.086321   0.026017
     53      -0.066668   0.033371  -0.127531   0.003062   0.002572  -0.114956
     54      -0.151741  -0.067581  -0.165768  -0.018238  -0.154582   0.132193
     55       0.351564   0.152618   0.109864   0.010349   0.203744  -0.071532
     56      -0.189710  -0.038129  -0.250134   0.033486  -0.038257  -0.100869
     57      -0.351748  -0.127126  -0.298860  -0.004790  -0.242202   0.193216
     58      -0.022168   0.089492  -0.112173   0.019214   0.024107   0.041370
     59      -0.018625   0.102325  -0.093325  -0.009068   0.010863  -0.158506
     60      -0.015661   0.004553   0.029723   0.028908   0.030286  -0.022442
     61      -0.023249  -0.015744   0.041972   0.056500  -0.014813  -0.010601
     62      -0.001716  -0.052139   0.002704  -0.090230   0.031521   0.002180
     63      -0.000752   0.003507   0.033964   0.048855   0.024901  -0.001390
     64      -0.021066  -0.026889   0.049597   0.044382  -0.006035  -0.003483
     65      -0.004243  -0.100130   0.031409  -0.161434   0.076187   0.017035
     66       0.029785   0.073781   0.015751  -0.085816  -0.141880   0.142781
     67      -0.008919  -0.073961  -0.036766  -0.057134   0.130193   0.271618
     68       0.045607   0.224163   0.078478  -0.128542  -0.027933   0.049166
     69       0.127006   0.112912   0.082729  -0.090673  -0.095712   0.106050
     70       0.101874   0.019232   0.001129   0.000484   0.060075   0.145151
     71      -0.096497  -0.000515  -0.148385   0.007520  -0.010888  -0.087991
     72      -0.036876  -0.002721   0.007802  -0.023039   0.066631  -0.042178
     73       0.018266  -0.104257  -0.005376  -0.026799   0.008275   0.018496
     74       0.031808  -0.032306  -0.001198   0.064976  -0.068738  -0.043866
     75      -0.069079  -0.010017   0.000676   0.016969   0.142080   0.019646
     76       0.021491  -0.085811  -0.000146  -0.003299  -0.011880   0.009945
     77       0.064299   0.102692   0.039874   0.223741  -0.239286  -0.127792
     78      -0.033930   0.014183  -0.000064  -0.097010   0.046629  -0.095710
     79      -0.020146  -0.234945  -0.046796  -0.180173   0.193055   0.112351
     80       0.025345  -0.052561  -0.010639   0.019811  -0.039372  -0.038697
     81       0.150299  -0.016251  -0.006954  -0.017029  -0.002735   0.014432
     82      -0.010696   0.088555  -0.104814   0.018037   0.029599   0.041926
     83       0.006200   0.007429  -0.030383  -0.010419   0.037094  -0.059285
     84       0.372661   0.049392   0.153442  -0.041530   0.099703  -0.050018
     85       0.103126   0.085153  -0.025052   0.016468   0.088398   0.031763
     86      -0.023600  -0.048567  -0.054820   0.006980   0.031775  -0.021748
     87       0.183258  -0.003479   0.020980  -0.023196   0.011125   0.007332
     88      -0.237993   0.037738  -0.232812   0.024567  -0.084648   0.134133
     89       0.110060   0.064557   0.087317  -0.046876   0.072660  -0.060560
     90       0.057198  -0.087565  -0.138014   0.030647  -0.025160   0.003538
     91       0.026914   0.158321  -0.118189   0.012111   0.044837  -0.050340
     92      -0.019976  -0.019352  -0.056372   0.000804   0.029876  -0.046082
     93       0.036224  -0.097448  -0.158407   0.035639  -0.034902   0.008369
     94       0.142902   0.190915  -0.051691   0.010517   0.121853  -0.119925
     95      -0.107493  -0.072022  -0.164450   0.034492   0.000281  -0.046345
     96      -0.075878  -0.137586  -0.248025   0.050085  -0.098150   0.050712
     97      -0.020436   0.171924  -0.160778   0.009640   0.008869  -0.053243
     98       0.019536   0.036667  -0.028121  -0.017243   0.038552  -0.085958
     99      -0.021812  -0.005534   0.014324  -0.019239   0.030254  -0.058645
    100       0.068459  -0.060215   0.017605  -0.023055  -0.152631  -0.087953
    101       0.019814  -0.118242  -0.008121   0.075999   0.021834   0.055202
    102      -0.028133  -0.034565   0.017843   0.035100   0.072963   0.009437
    103       0.098339   0.043832   0.049672   0.095757  -0.289379  -0.154662
    104       0.023149  -0.108074  -0.002393   0.105784   0.009171   0.058757
    105       0.011124   0.010013   0.024865  -0.053870  -0.075309  -0.141706
    106       0.066345  -0.075850   0.013452  -0.043996  -0.139683  -0.083659
    107      -0.003844  -0.223429  -0.037996  -0.047212   0.139516   0.109425
    108      -0.050826   0.006037   0.030871  -0.034399   0.026507  -0.028469
    109      -0.064702  -0.018990   0.045227  -0.019441  -0.013494  -0.023515
    110      -0.008485   0.056376  -0.023341   0.086496  -0.094790   0.118604
    111      -0.013651   0.043355   0.087776   0.101452   0.016537  -0.009606
    112      -0.073970  -0.036496   0.121051  -0.072082   0.039055  -0.077924
    113      -0.013694   0.033419   0.167466   0.027882   0.016388   0.007141
    114       0.158060  -0.079871  -0.099878   0.044609   0.057380  -0.071781
    115      -0.021546   0.166265  -0.158908   0.010201   0.008405  -0.046514
    116       0.014148  -0.049019   0.018319  -0.007879   0.049372   0.018226
    117       0.123130  -0.109315  -0.161988   0.067864   0.051090  -0.086004
    118      -0.008011   0.203167  -0.176002   0.008685   0.015311  -0.103776
    119       0.004321  -0.060859   0.006510  -0.002352   0.047009   0.022892
    120       0.252770  -0.049717  -0.022024   0.033773   0.116328  -0.108529
    121       0.022679   0.156257  -0.119776   0.012113   0.042293  -0.045905
    122      -0.000240  -0.088072   0.010479   0.003752   0.049569   0.049162
    123       0.170730  -0.074937  -0.088005   0.042286   0.064556  -0.075509
    124      -0.114169   0.144916  -0.210149   0.008362  -0.059045   0.013313
    125       0.062164  -0.018978   0.090898  -0.031315   0.065019   0.029269
    126      -0.041840   0.009014   0.002499  -0.040966   0.077120  -0.055583
    127       0.082372  -0.128461   0.006290  -0.144778  -0.166424  -0.122457
    128       0.032864  -0.079070   0.016097   0.204909  -0.024806   0.080228
    129      -0.066966   0.006817  -0.005170   0.011122   0.153257   0.010637
    130       0.084236  -0.113943   0.010316  -0.126884  -0.177584  -0.125557
    131       0.045907   0.002448   0.039513   0.299849  -0.094734   0.055595
    132      -0.032525   0.005363   0.007034  -0.042132   0.052636  -0.065986
    133       0.108854  -0.112201   0.019465  -0.160325  -0.251230  -0.180254
    134       0.030901  -0.122732   0.014637   0.224980   0.004856   0.128975
    135      -0.041253   0.024974  -0.003674  -0.105050   0.061704  -0.105999
    136       0.064142  -0.208335  -0.018753  -0.234872  -0.081177  -0.087556
    137       0.030312  -0.087837   0.011376   0.180701  -0.015193   0.076473
                 12         13         14         15         16         17    
      0      -0.017968   0.062637   0.006700  -0.042669   0.008505  -0.020147
      1      -0.017734   0.073521  -0.016081  -0.000083  -0.046811   0.004360
      2      -0.016999   0.103102   0.002538  -0.116959  -0.034321  -0.041094
      3      -0.014241   0.028496   0.016909  -0.077659   0.011024  -0.005688
      4      -0.018584   0.007024   0.000090  -0.064843  -0.014962   0.001561
      5      -0.001483   0.047762   0.023439  -0.178529  -0.060934   0.017997
      6      -0.000894   0.018324   0.010043   0.000182   0.001636   0.024735
      7      -0.013284  -0.061781   0.004343  -0.041554   0.029088   0.001154
      8       0.023911  -0.056877   0.019910  -0.041837  -0.015430   0.059038
      9       0.009662   0.048192  -0.006880   0.105425  -0.012630   0.045106
     10      -0.007544  -0.061849  -0.007959   0.042624   0.042046   0.006646
     11       0.033071  -0.098267  -0.003665   0.141552   0.055433   0.052373
     12       0.005734   0.084366  -0.016741   0.143613  -0.014526   0.034096
     13      -0.006884   0.005917  -0.023482   0.110180   0.011649   0.012123
     14       0.016482  -0.039168  -0.023870   0.208687   0.085827  -0.000523
     15      -0.007983   0.091724  -0.010262   0.070748  -0.003632  -0.000760
     16      -0.012130   0.072810  -0.027950   0.090003  -0.031894   0.008450
     17      -0.008326   0.060847  -0.021411   0.085734   0.041342  -0.051214
     18      -0.022091   0.008815   0.029717  -0.164208   0.021098  -0.022157
     19      -0.023333   0.009375   0.008993  -0.131987  -0.025632  -0.002537
     20      -0.009275   0.084113   0.041332  -0.326025  -0.117091   0.024421
     21       0.023870   0.046200  -0.010832   0.156503  -0.023954   0.070249
     22      -0.005373  -0.116309  -0.005835   0.056223   0.078095   0.005817
     23       0.054061  -0.173060  -0.005663   0.227919   0.088646   0.085144
     24      -0.010974   0.119132  -0.018229   0.101315  -0.004414  -0.012083
     25      -0.011711   0.124517  -0.040515   0.142352  -0.053877   0.008968
     26      -0.020514   0.106856  -0.037610   0.143062   0.064827  -0.096657
     27       0.001838  -0.025390   0.008083   0.027083   0.000613  -0.007875
     28      -0.015073  -0.140025   0.012175  -0.070945   0.044113  -0.030657
     29       0.031665  -0.170489   0.009624   0.038609  -0.043540  -0.023703
[...]
  13:        70.43    0.000000  (  0.000000   0.000000   0.000000)
  14:        75.82    0.000000  (  0.000000   0.000000   0.000000)
  15:        82.50    0.000000  (  0.000000   0.000000   0.000000)
  16:        84.52    0.000000  (  0.000000   0.000000   0.000000)
  17:       113.18    0.000000  (  0.000000   0.000000   0.000000)
  18:       116.59    0.000000  (  0.000000   0.000000   0.000000)
  19:       126.65    0.000000  (  0.000000   0.000000   0.000000)
  20:       132.85    0.000000  (  0.000000   0.000000   0.000000)
  21:       156.50    0.000000  (  0.000000   0.000000   0.000000)
  22:       181.77    0.000000  (  0.000000   0.000000   0.000000)
  23:       206.56    0.000000  (  0.000000   0.000000   0.000000)
  24:       222.95    0.000000  (  0.000000   0.000000   0.000000)
  25:       227.82    0.000000  (  0.000000   0.000000   0.000000)
  26:       268.49    0.000000  (  0.000000   0.000000   0.000000)
  27:       271.10    0.000000  (  0.000000   0.000000   0.000000)
  28:       282.43    0.000000  (  0.000000   0.000000   0.000000)
  29:       286.50    0.000000  (  0.000000   0.000000   0.000000)
  30:       381.82    0.000000  (  0.000000   0.000000   0.000000)
  31:       383.55    0.000000  (  0.000000   0.000000   0.000000)
  32:       389.67    0.000000  (  0.000000   0.000000   0.000000)
  33:       396.36    0.000000  (  0.000000   0.000000   0.000000)
  34:       425.89    0.000000  (  0.000000   0.000000   0.000000)
  35:       436.12    0.000000  (  0.000000   0.000000   0.000000)
  36:       458.77    0.000000  (  0.000000   0.000000   0.000000)
  37:       487.02    0.000000  (  0.000000   0.000000   0.000000)
  38:       512.83    0.000000  (  0.000000   0.000000   0.000000)
  39:       589.12    0.000000  (  0.000000   0.000000   0.000000)
  40:       624.58    0.000000  (  0.000000   0.000000   0.000000)
  41:       668.46    0.000000  (  0.000000   0.000000   0.000000)
  42:       675.90    0.000000  (  0.000000   0.000000   0.000000)
  43:       756.59    0.000000  (  0.000000   0.000000   0.000000)
  44:       773.13    0.000000  (  0.000000   0.000000   0.000000)
  45:       775.01    0.000000  (  0.000000   0.000000   0.000000)
  46:       824.01    0.000000  (  0.000000   0.000000   0.000000)
  47:       826.17    0.000000  (  0.000000   0.000000   0.000000)
  48:       858.78    0.000000  (  0.000000   0.000000   0.000000)
  49:       876.47    0.000000  (  0.000000   0.000000   0.000000)
  50:       904.30    0.000000  (  0.000000   0.000000   0.000000)
  51:       917.73    0.000000  (  0.000000   0.000000   0.000000)
  52:       927.76    0.000000  (  0.000000   0.000000   0.000000)
  53:       933.34    0.000000  (  0.000000   0.000000   0.000000)
  54:       937.50    0.000000  (  0.000000   0.000000   0.000000)
  55:       940.85    0.000000  (  0.000000   0.000000   0.000000)
  56:       945.98    0.000000  (  0.000000   0.000000   0.000000)
  57:       953.66    0.000000  (  0.000000   0.000000   0.000000)
  58:       984.34    0.000000  (  0.000000   0.000000   0.000000)
  59:       995.45    0.000000  (  0.000000   0.000000   0.000000)
  60:      1014.38    0.000000  (  0.000000   0.000000   0.000000)
  61:      1018.63    0.000000  (  0.000000   0.000000   0.000000)
  62:      1065.54    0.000000  (  0.000000   0.000000   0.000000)
  63:      1067.83    0.000000  (  0.000000   0.000000   0.000000)
  64:      1070.51    0.000000  (  0.000000   0.000000   0.000000)
  65:      1098.05    0.000000  (  0.000000   0.000000   0.000000)
  66:      1100.83    0.000000  (  0.000000   0.000000   0.000000)
  67:      1112.19    0.000000  (  0.000000   0.000000   0.000000)
  68:      1124.26    0.000000  (  0.000000   0.000000   0.000000)
  69:      1126.08    0.000000  (  0.000000   0.000000   0.000000)
  70:      1144.07    0.000000  (  0.000000   0.000000   0.000000)
  71:      1154.50    0.000000  (  0.000000   0.000000   0.000000)
  72:      1177.98    0.000000  (  0.000000   0.000000   0.000000)
  73:      1184.42    0.000000  (  0.000000   0.000000   0.000000)
  74:      1203.99    0.000000  (  0.000000   0.000000   0.000000)
  75:      1212.26    0.000000  (  0.000000   0.000000   0.000000)
  76:      1218.76    0.000000  (  0.000000   0.000000   0.000000)
  77:      1241.79    0.000000  (  0.000000   0.000000   0.000000)
  78:      1254.99    0.000000  (  0.000000   0.000000   0.000000)
  79:      1268.48    0.000000  (  0.000000   0.000000   0.000000)
  80:      1275.52    0.000000  (  0.000000   0.000000   0.000000)
  81:      1277.17    0.000000  (  0.000000   0.000000   0.000000)
  82:      1279.47    0.000000  (  0.000000   0.000000   0.000000)
  83:      1283.46    0.000000  (  0.000000   0.000000   0.000000)
  84:      1293.80    0.000000  (  0.000000   0.000000   0.000000)
  85:      1295.45    0.000000  (  0.000000   0.000000   0.000000)
  86:      1324.14    0.000000  (  0.000000   0.000000   0.000000)
  87:      1354.28    0.000000  (  0.000000   0.000000   0.000000)
  88:      1355.62    0.000000  (  0.000000   0.000000   0.000000)
  89:      1368.03    0.000000  (  0.000000   0.000000   0.000000)
  90:      1380.56    0.000000  (  0.000000   0.000000   0.000000)
  91:      1422.87    0.000000  (  0.000000   0.000000   0.000000)
  92:      1427.72    0.000000  (  0.000000   0.000000   0.000000)
  93:      1428.41    0.000000  (  0.000000   0.000000   0.000000)
  94:      1454.80    0.000000  (  0.000000   0.000000   0.000000)
  95:      1471.96    0.000000  (  0.000000   0.000000   0.000000)
  96:      1492.36    0.000000  (  0.000000   0.000000   0.000000)
  97:      1500.36    0.000000  (  0.000000   0.000000   0.000000)
  98:      1502.84    0.000000  (  0.000000   0.000000   0.000000)
  99:      1505.09    0.000000  (  0.000000   0.000000   0.000000)
 100:      1506.33    0.000000  (  0.000000   0.000000   0.000000)
 101:      1506.86    0.000000  (  0.000000   0.000000   0.000000)
 102:      1507.64    0.000000  (  0.000000   0.000000   0.000000)
 103:      1512.84    0.000000  (  0.000000   0.000000   0.000000)
 104:      1513.23    0.000000  (  0.000000   0.000000   0.000000)
 105:      1539.29    0.000000  (  0.000000   0.000000   0.000000)
 106:      1561.25    0.000000  (  0.000000   0.000000   0.000000)
 107:      1567.80    0.000000  (  0.000000   0.000000   0.000000)
 108:      1569.19    0.000000  (  0.000000   0.000000   0.000000)
 109:      1668.35    0.000000  (  0.000000   0.000000   0.000000)
 110:      2859.49    0.000000  (  0.000000   0.000000   0.000000)
 111:      2877.00    0.000000  (  0.000000   0.000000   0.000000)
 112:      2887.61    0.000000  (  0.000000   0.000000   0.000000)
 113:      2933.13    0.000000  (  0.000000   0.000000   0.000000)
 114:      2938.18    0.000000  (  0.000000   0.000000   0.000000)
 115:      2944.05    0.000000  (  0.000000   0.000000   0.000000)
 116:      2946.01    0.000000  (  0.000000   0.000000   0.000000)
 117:      2956.27    0.000000  (  0.000000   0.000000   0.000000)
 118:      2963.80    0.000000  (  0.000000   0.000000   0.000000)
 119:      2964.62    0.000000  (  0.000000   0.000000   0.000000)
 120:      2976.20    0.000000  (  0.000000   0.000000   0.000000)
 121:      2978.18    0.000000  (  0.000000   0.000000   0.000000)
 122:      2979.31    0.000000  (  0.000000   0.000000   0.000000)
 123:      2981.73    0.000000  (  0.000000   0.000000   0.000000)
 124:      2985.46    0.000000  (  0.000000   0.000000   0.000000)
 125:      2990.72    0.000000  (  0.000000   0.000000   0.000000)
 126:      2997.48    0.000000  (  0.000000   0.000000   0.000000)
 127:      3000.22    0.000000  (  0.000000   0.000000   0.000000)
 128:      3014.45    0.000000  (  0.000000   0.000000   0.000000)
 129:      3025.25    0.000000  (  0.000000   0.000000   0.000000)
 130:      3050.43    0.000000  (  0.000000   0.000000   0.000000)
 131:      3057.67    0.000000  (  0.000000   0.000000   0.000000)
 132:      3063.59    0.000000  (  0.000000   0.000000   0.000000)
 133:      3073.70    0.000000  (  0.000000   0.000000   0.000000)
 134:      3092.37    0.000000  (  0.000000   0.000000   0.000000)
 135:      3312.18    0.000000  (  0.000000   0.000000   0.000000)
 136:      3402.15    0.000000  (  0.000000   0.000000   0.000000)
 137:      3596.93    0.000000  (  0.000000   0.000000   0.000000)

The first frequency considered to be a vibration is 7
The total number of vibrations considered is 131


--------------------------
THERMOCHEMISTRY AT 298.15K
--------------------------

Temperature         ... 298.15 K
Pressure            ... 1.00 atm
Total Mass          ... 252.40 AMU

Throughout the following assumptions are being made:
  (1) The electronic state is orbitally nondegenerate
  (2) There are no thermally accessible electronically excited states
  (3) Hindered rotations indicated by low frequency modes are not
      treated as such but are treated as vibrations and this may
      cause some error
  (4) All equations used are the standard statistical mechanics
      equations for an ideal gas
  (5) All vibrations are strictly harmonic

freq.      27.24  E(vib)   ...       0.55 
freq.      39.90  E(vib)   ...       0.54 
freq.      41.51  E(vib)   ...       0.54 
freq.      47.12  E(vib)   ...       0.53 
freq.      53.67  E(vib)   ...       0.52 
freq.      60.72  E(vib)   ...       0.51 
freq.      70.43  E(vib)   ...       0.50 
freq.      75.82  E(vib)   ...       0.49 
freq.      82.50  E(vib)   ...       0.48 
freq.      84.52  E(vib)   ...       0.48 
freq.     113.18  E(vib)   ...       0.45 
freq.     116.59  E(vib)   ...       0.44 
freq.     126.65  E(vib)   ...       0.43 
freq.     132.85  E(vib)   ...       0.42 
freq.     156.50  E(vib)   ...       0.40 
freq.     181.77  E(vib)   ...       0.37 
freq.     206.56  E(vib)   ...       0.35 
freq.     222.95  E(vib)   ...       0.33 
freq.     227.82  E(vib)   ...       0.33 
freq.     268.49  E(vib)   ...       0.29 
freq.     271.10  E(vib)   ...       0.29 
freq.     282.43  E(vib)   ...       0.28 
freq.     286.50  E(vib)   ...       0.27 
freq.     381.82  E(vib)   ...       0.21 
freq.     383.55  E(vib)   ...       0.20 
freq.     389.67  E(vib)   ...       0.20 
freq.     396.36  E(vib)   ...       0.20 
freq.     425.89  E(vib)   ...       0.18 
freq.     436.12  E(vib)   ...       0.17 
freq.     458.77  E(vib)   ...       0.16 
freq.     487.02  E(vib)   ...       0.15 
freq.     512.83  E(vib)   ...       0.13 
freq.     589.12  E(vib)   ...       0.10 
freq.     624.58  E(vib)   ...       0.09 
freq.     668.46  E(vib)   ...       0.08 
freq.     675.90  E(vib)   ...       0.08 
freq.     756.59  E(vib)   ...       0.06 
freq.     773.13  E(vib)   ...       0.05 
freq.     775.01  E(vib)   ...       0.05 
freq.     824.01  E(vib)   ...       0.05 
freq.     826.17  E(vib)   ...       0.04 
freq.     858.78  E(vib)   ...       0.04 
freq.     876.47  E(vib)   ...       0.04 
freq.     904.30  E(vib)   ...       0.03 
freq.     917.73  E(vib)   ...       0.03 
freq.     927.76  E(vib)   ...       0.03 
freq.     933.34  E(vib)   ...       0.03 
freq.     937.50  E(vib)   ...       0.03 
freq.     940.85  E(vib)   ...       0.03 
freq.     945.98  E(vib)   ...       0.03 
freq.     953.66  E(vib)   ...       0.03 
freq.     984.34  E(vib)   ...       0.02 
freq.     995.45  E(vib)   ...       0.02 
freq.    1014.38  E(vib)   ...       0.02 
freq.    1018.63  E(vib)   ...       0.02 
freq.    1065.54  E(vib)   ...       0.02 
freq.    1067.83  E(vib)   ...       0.02 
freq.    1070.51  E(vib)   ...       0.02 
freq.    1098.05  E(vib)   ...       0.02 
freq.    1100.83  E(vib)   ...       0.02 
freq.    1112.19  E(vib)   ...       0.01 
freq.    1124.26  E(vib)   ...       0.01 
freq.    1126.08  E(vib)   ...       0.01 
freq.    1144.07  E(vib)   ...       0.01 
freq.    1154.50  E(vib)   ...       0.01 
freq.    1177.98  E(vib)   ...       0.01 
freq.    1184.42  E(vib)   ...       0.01 
freq.    1203.99  E(vib)   ...       0.01 
freq.    1212.26  E(vib)   ...       0.01 
freq.    1218.76  E(vib)   ...       0.01 
freq.    1241.79  E(vib)   ...       0.01 
freq.    1254.99  E(vib)   ...       0.01 
freq.    1268.48  E(vib)   ...       0.01 
freq.    1275.52  E(vib)   ...       0.01 
freq.    1277.17  E(vib)   ...       0.01 
freq.    1279.47  E(vib)   ...       0.01 
freq.    1283.46  E(vib)   ...       0.01 
freq.    1293.80  E(vib)   ...       0.01 
freq.    1295.45  E(vib)   ...       0.01 
freq.    1324.14  E(vib)   ...       0.01 
freq.    1354.28  E(vib)   ...       0.01 
freq.    1355.62  E(vib)   ...       0.01 
freq.    1368.03  E(vib)   ...       0.01 
freq.    1380.56  E(vib)   ...       0.01 
freq.    1422.87  E(vib)   ...       0.00 
freq.    1427.72  E(vib)   ...       0.00 
freq.    1428.41  E(vib)   ...       0.00 
freq.    1454.80  E(vib)   ...       0.00 
freq.    1471.96  E(vib)   ...       0.00 
freq.    1492.36  E(vib)   ...       0.00 
freq.    1500.36  E(vib)   ...       0.00 
freq.    1502.84  E(vib)   ...       0.00 
freq.    1505.09  E(vib)   ...       0.00 
freq.    1506.33  E(vib)   ...       0.00 
freq.    1506.86  E(vib)   ...       0.00 
freq.    1507.64  E(vib)   ...       0.00 
freq.    1512.84  E(vib)   ...       0.00 
freq.    1513.23  E(vib)   ...       0.00 
freq.    1539.29  E(vib)   ...       0.00 
freq.    1561.25  E(vib)   ...       0.00 
freq.    1567.80  E(vib)   ...       0.00 
freq.    1569.19  E(vib)   ...       0.00 
freq.    1668.35  E(vib)   ...       0.00 
freq.    2859.49  E(vib)   ...       0.00 
freq.    2877.00  E(vib)   ...       0.00 
freq.    2887.61  E(vib)   ...       0.00 
freq.    2933.13  E(vib)   ...       0.00 
freq.    2938.18  E(vib)   ...       0.00 
freq.    2944.05  E(vib)   ...       0.00 
freq.    2946.01  E(vib)   ...       0.00 
freq.    2956.27  E(vib)   ...       0.00 
freq.    2963.80  E(vib)   ...       0.00 
freq.    2964.62  E(vib)   ...       0.00 
freq.    2976.20  E(vib)   ...       0.00 
freq.    2978.18  E(vib)   ...       0.00 
freq.    2979.31  E(vib)   ...       0.00 
freq.    2981.73  E(vib)   ...       0.00 
freq.    2985.46  E(vib)   ...       0.00 
freq.    2990.72  E(vib)   ...       0.00 
freq.    2997.48  E(vib)   ...       0.00 
freq.    3000.22  E(vib)   ...       0.00 
freq.    3014.45  E(vib)   ...       0.00 
freq.    3025.25  E(vib)   ...       0.00 
freq.    3050.43  E(vib)   ...       0.00 
freq.    3057.67  E(vib)   ...       0.00 
freq.    3063.59  E(vib)   ...       0.00 
freq.    3073.70  E(vib)   ...       0.00 
freq.    3092.37  E(vib)   ...       0.00 
freq.    3312.18  E(vib)   ...       0.00 
freq.    3402.15  E(vib)   ...       0.00 
freq.    3596.93  E(vib)   ...       0.00 

------------
INNER ENERGY
------------

The inner energy is: U= E(el) + E(ZPE) + E(vib) + E(rot) + E(trans)
    E(el)   - is the total energy from the electronic structure calculation
              = E(kin-el) + E(nuc-el) + E(el-el) + E(nuc-nuc)
    E(ZPE)  - the the zero temperature vibrational energy from the frequency calculation
    E(vib)  - the the finite temperature correction to E(ZPE) due to population
              of excited vibrational states
    E(rot)  - is the rotational thermal energy
    E(trans)- is the translational thermal energy

Summary of contributions to the inner energy U:
Electronic energy                ...    -56.29556338 Eh
Zero point energy                ...      0.40002902 Eh     251.02 kcal/mol
Thermal vibrational correction   ...      0.02031750 Eh      12.75 kcal/mol
Thermal rotational correction    ...      0.00141627 Eh       0.89 kcal/mol
Thermal translational correction ...      0.00141627 Eh       0.89 kcal/mol
-----------------------------------------------------------------------
Total thermal energy                    -55.87238432 Eh


Summary of corrections to the electronic energy:
(perhaps to be used in another calculation)
Total thermal correction                  0.02315005 Eh      14.53 kcal/mol
Non-thermal (ZPE) correction              0.40002902 Eh     251.02 kcal/mol
-----------------------------------------------------------------------
Total correction                          0.42317906 Eh     265.55 kcal/mol


--------
ENTHALPY
--------

The enthalpy is H = U + kB*T
                kB is Boltzmann's constant
Total free energy                 ...    -55.87238432 Eh 
Thermal Enthalpy correction       ...      0.00094421 Eh       0.59 kcal/mol
-----------------------------------------------------------------------
Total Enthalpy                    ...    -55.87144011 Eh


Note: Only C1 symmetry has been detected, increase convergence thresholds 
      if your molecule has a higher symmetry. Symmetry factor of 1.0 is   
      used for the rotational entropy correction. 
 

Note: Rotational entropy computed according to Herzberg 
Infrared and Raman Spectra, Chapter V,1, Van Nostrand Reinhold, 1945 
Point Group:  C1, Symmetry Number:   1  
Rotational constants in cm-1:     0.010850     0.007402     0.004890 

Vibrational entropy computed according to the QRRHO of S. Grimme
Chem.Eur.J. 2012 18 9955


-------
ENTROPY
-------

The entropy contributions are T*S = T*(S(el)+S(vib)+S(rot)+S(trans))
     S(el)   - electronic entropy
     S(vib)  - vibrational entropy
     S(rot)  - rotational entropy
     S(trans)- translational entropy
The entropies will be listed as mutliplied by the temperature to get
units of energy

Electronic entropy                ...      0.00000000 Eh      0.00 kcal/mol
Vibrational entropy               ...      0.03710845 Eh     23.29 kcal/mol
Rotational entropy                ...      0.01647416 Eh     10.34 kcal/mol
Translational entropy             ...      0.02018250 Eh     12.66 kcal/mol
-----------------------------------------------------------------------
Final entropy term                ...      0.07376511 Eh     46.29 kcal/mol

In case the symmetry of your molecule has not been determined correctly
or in case you have a reason to use a different symmetry number we print 
out the resulting rotational entropy values for sn=1,12 :
 --------------------------------------------------------
|  sn= 1 | S(rot)=       0.01647416 Eh     10.34 kcal/mol|
|  sn= 2 | S(rot)=       0.01581970 Eh      9.93 kcal/mol|
|  sn= 3 | S(rot)=       0.01543687 Eh      9.69 kcal/mol|
|  sn= 4 | S(rot)=       0.01516525 Eh      9.52 kcal/mol|
|  sn= 5 | S(rot)=       0.01495456 Eh      9.38 kcal/mol|
|  sn= 6 | S(rot)=       0.01478241 Eh      9.28 kcal/mol|
|  sn= 7 | S(rot)=       0.01463687 Eh      9.18 kcal/mol|
|  sn= 8 | S(rot)=       0.01451079 Eh      9.11 kcal/mol|
|  sn= 9 | S(rot)=       0.01439958 Eh      9.04 kcal/mol|
|  sn=10 | S(rot)=       0.01430010 Eh      8.97 kcal/mol|
|  sn=11 | S(rot)=       0.01421011 Eh      8.92 kcal/mol|
|  sn=12 | S(rot)=       0.01412796 Eh      8.87 kcal/mol|
 --------------------------------------------------------


-------------------
GIBBS FREE ENERGY
-------------------

The Gibbs free energy is G = H - T*S

Total enthalpy                    ...    -55.87144011 Eh 
Total entropy correction          ...     -0.07376511 Eh    -46.29 kcal/mol
-----------------------------------------------------------------------
Final Gibbs free energy         ...    -55.94520522 Eh

For completeness - the Gibbs free energy minus the electronic energy
G-E(el)                           ...      0.35035816 Eh    219.85 kcal/mol


Total Time for Numerical Frequencies  :       167.427 sec
Time for Reference State(s)           :         0.165 sec
Time for Displacements                :       149.049 sec

Timings for individual modules:

Sum of individual times         ...        0.604 sec (=   0.010 min)
XTB module                      ...        0.604 sec (=   0.010 min) 100.0 %
                             ****ORCA TERMINATED NORMALLY****
TOTAL RUN TIME: 0 days 0 hours 2 minutes 48 seconds 712 msec
(SLURM) EXECUTION TIME: 168.774019071 seconds.
