
                                 *****************
                                 * O   R   C   A *
                                 *****************

           --- An Ab Initio, DFT and Semiempirical electronic structure package ---

                  #######################################################
                  #                        -***-                        #
                  #          Department of theory and spectroscopy      #
                  #               Directorship: Frank Neese             #
                  #        Max Planck Institute fuer Kohlenforschung    #
                  #                Kaiser Wilhelm Platz 1               #
                  #                 D-45470 Muelheim/Ruhr               #
                  #                      Germany                        #
                  #                                                     #
                  #                  All rights reserved                #
                  #                        -***-                        #
                  #######################################################


                         Program Version 4.2.1 -  RELEASE  -


 With contributions from (in alphabetic order):
   Daniel Aravena         : Magnetic Suceptibility
   Michael Atanasov       : Ab Initio Ligand Field Theory (pilot matlab implementation)
   Alexander A. Auer      : GIAO ZORA, VPT2
   Ute Becker             : Parallelization
   Giovanni Bistoni       : ED, misc. LED, open-shell LED, HFLD
   Martin Brehm           : Molecular dynamics
   Dmytro Bykov           : SCF Hessian
   Vijay G. Chilkuri      : MRCI spin determinant printing, contributions to CSF-ICE
   Dipayan Datta          : RHF DLPNO-CCSD density
   Achintya Kumar Dutta   : EOM-CC, STEOM-CC
   Dmitry Ganyushin       : Spin-Orbit,Spin-Spin,Magnetic field MRCI
   Miquel Garcia          : C-PCM Hessian, Gaussian charge scheme
   Yang Guo               : DLPNO-NEVPT2, CIM, IAO-localization
   Andreas Hansen         : Spin unrestricted coupled pair/coupled cluster methods
   Benjamin Helmich-Paris : CASSCF linear response (MC-RPA)
   Lee Huntington         : MR-EOM, pCC
   Robert Izsak           : Overlap fitted RIJCOSX, COSX-SCS-MP3, EOM
   Christian Kollmar      : KDIIS, OOCD, Brueckner-CCSD(T), CCSD density
   Simone Kossmann        : Meta GGA functionals, TD-DFT gradient, OOMP2, MP2 Hessian
   Martin Krupicka        : AUTO-CI
   Lucas Lang             : DCDCAS
   Dagmar Lenk            : GEPOL surface, SMD
   Dimitrios Liakos       : Extrapolation schemes; Compound Job, initial MDCI parallelization
   Dimitrios Manganas     : Further ROCIS development; embedding schemes
   Dimitrios Pantazis     : SARC Basis sets
   Taras Petrenko         : DFT Hessian,TD-DFT gradient, ASA, ECA, R-Raman, ABS, FL, XAS/XES, NRVS
   Peter Pinski           : DLPNO-MP2, DLPNO-MP2 Gradient
   Christoph Reimann      : Effective Core Potentials
   Marius Retegan         : Local ZFS, SOC
   Christoph Riplinger    : Optimizer, TS searches, QM/MM, DLPNO-CCSD(T), (RO)-DLPNO pert. Triples
   Tobias Risthaus        : Range-separated hybrids, TD-DFT gradient, RPA, STAB
   Michael Roemelt        : Original ROCIS implementation
   Masaaki Saitow         : Open-shell DLPNO-CCSD energy and density
   Barbara Sandhoefer     : DKH picture change effects
   Avijit Sen             : IP-ROCIS
   Kantharuban Sivalingam : CASSCF convergence, NEVPT2, FIC-MRCI
   Bernardo de Souza      : ESD, SOC TD-DFT
   Georgi Stoychev        : AutoAux, RI-MP2 NMR
   Willem Van den Heuvel  : Paramagnetic NMR
   Boris Wezisla          : Elementary symmetry handling
   Frank Wennmohs         : Technical directorship


 We gratefully acknowledge several colleagues who have allowed us to
 interface, adapt or use parts of their codes:
   Stefan Grimme, W. Hujo, H. Kruse,             : VdW corrections, initial TS optimization,
                  C. Bannwarth                     DFT functionals, gCP, sTDA/sTD-DF
   Ed Valeev, F. Pavosevic, A. Kumar             : LibInt (2-el integral package), F12 methods
   Garnet Chan, S. Sharma, J. Yang, R. Olivares  : DMRG
   Ulf Ekstrom                                   : XCFun DFT Library
   Mihaly Kallay                                 : mrcc  (arbitrary order and MRCC methods)
   Andreas Klamt, Michael Diedenhofen            : otool_cosmo (COSMO solvation model)
   Jiri Pittner, Ondrej Demel                    : Mk-CCSD
   Frank Weinhold                                : gennbo (NPA and NBO analysis)
   Christopher J. Cramer and Donald G. Truhlar   : smd solvation model
   Lars Goerigk                                  : TD-DFT with DH, B97 family of functionals
   V. Asgeirsson, H. Jonsson                     : NEB implementation
   FAccTs GmbH                                   : IRC, NEB, NEB-TS, Multilevel, MM, QM/MM, CI optimization
   S Lehtola, MJT Oliveira, MAL Marques          : LibXC Library


 Your calculation uses the libint2 library for the computation of 2-el integrals
 For citations please refer to: http://libint.valeyev.net

 Your ORCA version has been built with support for libXC version: 4.2.3
 For citations please refer to: https://tddft.org/programs/libxc/

 This ORCA versions uses:
   CBLAS   interface :  Fast vector & matrix operations
   LAPACKE interface :  Fast linear algebra routines
   SCALAPACK package :  Parallel linear algebra routines


----- Orbital basis set information -----
Your calculation utilizes the basis: 6-311G(d,p)
   H, Li - Ne  : R. Krishnan, J. S. Binkley, R. Seeger and J. A. Pople, J. Chem. Phys. 72, 650 (1980).
   Na - Ar     : A. D. McLean and G. S. Chandler J. Chem. Phys. 72, 5639, (1980).
   K  - Ca     : J.-P. Blaudeau, M. P. McGrath, L. A. Curtiss and L. Radom, J. Chem. Phys. 107, 5016 (1997).
   Ga - Kr     : L. A. Curtiss, M. P. McGrath, J.-P. Blandeau, N. E. Davis, R. C. Binning and L. Radom, J. Chem. Phys. 103, 6104 (1995).
   Pol./Diff.
   H, Li - Cl  : T. Clark, J. Chandrasekhar and P. v. R. Schleyer, J. Comp. Chem. 4, 294 (1983).
   H - Ne      : M. J. Frisch, J. A. Pople and J. S. Binkley, J. Chem. Phys. 80, 3265 (1984).

================================================================================
                                        WARNINGS
                       Please study these warnings very carefully!
================================================================================


WARNING: Geometry Optimization
  ===> : Switching off AutoStart
         For restart on a previous wavefunction, please use MOREAD

WARNING: Post HF methods need fully converged wavefunctions
  ===> : Setting SCFConvForced true
         You can overwrite this default with %scf ConvForced false 


INFO   : the flag for use of LIBINT has been found!

================================================================================
                                       INPUT FILE
================================================================================
NAME = NH3‡.inp
|  1> ! MP2 6-311G(d,p) OptTS Freq IRC NoFrozenCore TightOpt TightSCF Grid4 FinalGrid5 PrintBasis PrintMOs NBO
|  2> 
|  3> %geom
|  4>  ts_mode
|  5>   {D 1 2 3 0}
|  6>  end
|  7>  ts_active_atoms
|  8>   {0 1 2 3}
|  9>  end
| 10>  inhess read
| 11>  inhessname "freq.hess"
| 12> end
| 13> 
| 14> %irc
| 15>  maxiter 1000
| 16>  de_init_displ 0.25
| 17>  TolMAXG 1e-3
| 18>  TolRMSG 2e-4
| 19> end
| 20> 
| 21> %pal
| 22>  nprocs 4
| 23> end
| 24> 
| 25> *xyz 0 1
| 26>   N   0.00000000131419     -0.00000000001565      0.00000000811939
| 27>   H   0.99425136476648      0.00000000003133     -0.00000000270640
| 28>   H   -0.49712568301770      0.86104693771793     -0.00000000270651
| 29>   H   -0.49712568306293     -0.86104693773364     -0.00000000270651
| 30> *
| 31> 
| 32>                          ****END OF INPUT****
================================================================================

                       *****************************
                       * Geometry Optimization Run *
                       *****************************

Geometry optimization settings:
Update method            Update   .... Bofill
Choice of coordinates    CoordSys .... Z-matrix Internals
Initial Hessian          InHess   .... Read

Convergence Tolerances:
Energy Change            TolE     ....  1.0000e-06 Eh
Max. Gradient            TolMAXG  ....  1.0000e-04 Eh/bohr
RMS Gradient             TolRMSG  ....  3.0000e-05 Eh/bohr
Max. Displacement        TolMAXD  ....  1.0000e-03 bohr
RMS Displacement         TolRMSD  ....  6.0000e-04 bohr
Strict Convergence                ....  False
------------------------------------------------------------------------------
                        ORCA OPTIMIZATION COORDINATE SETUP
------------------------------------------------------------------------------

The optimization will be done in new redundant internal coordinates
Making redundant internal coordinates   ...  (new redundants) done
Following TS mode number                ...    internal coordinate number:  7
TS-active-atoms for coordinate setup... 0 1 2 3 
Evaluating the initial hessian          ... (Reading Exact Hessian)...  
InHessName: freq.hess	The file <freq.hess> is opened as a .hess file
done
done
Diagonalizing the Hessian               .... done
Dimension of the hessian                .... 8
Lowest eigenvalues of the non projected Hessian:
 -0.018810413  0.000000000  0.000000000  0.102524588  0.102527464
done
Evaluating the coordinates              ...  done
Calculating the B-matrix                .... done
Calculating the G-matrix                .... done
Diagonalizing the G-matrix              .... done
The first mode is                       ....    2
The number of degrees of freedom        ....    6

    -----------------------------------------------------------------
                    Redundant Internal Coordinates


    -----------------------------------------------------------------
         Definition                    Initial Value    d2E/dq (diagonal element)
    -----------------------------------------------------------------
      1. B(H   1,N   0)                  0.9943         0.524364   
      2. B(H   2,N   0)                  0.9943         0.524361   
      3. B(H   3,N   0)                  0.9943         0.524361   
      4. A(H   1,N   0,H   3)          120.0000         0.068858   
      5. A(H   2,N   0,H   3)          120.0000         0.068860   
      6. A(H   1,N   0,H   2)          120.0000         0.068858   
      7. D(N   0,H   3,H   2,H   1)      0.0000        -0.005788   
      8. I(H   1,H   3,H   2,N   0)      0.0000        -0.013023   
    -----------------------------------------------------------------

Number of atoms                         .... 4
Number of degrees of freedom            .... 8

         *************************************************************
         *                GEOMETRY OPTIMIZATION CYCLE   1            *
         *************************************************************
---------------------------------
CARTESIAN COORDINATES (ANGSTROEM)
---------------------------------
  N      0.000000   -0.000000    0.000000
  H      0.994251    0.000000   -0.000000
  H     -0.497126    0.861047   -0.000000
  H     -0.497126   -0.861047   -0.000000

----------------------------
CARTESIAN COORDINATES (A.U.)
----------------------------
  NO LB      ZA    FRAG     MASS         X           Y           Z
   0 N     7.0000    0    14.007    0.000000   -0.000000    0.000000
   1 H     1.0000    0     1.008    1.878863    0.000000   -0.000000
   2 H     1.0000    0     1.008   -0.939431    1.627143   -0.000000
   3 H     1.0000    0     1.008   -0.939431   -1.627143   -0.000000

--------------------------------
INTERNAL COORDINATES (ANGSTROEM)
--------------------------------
 N      0   0   0     0.000000000000     0.00000000     0.00000000
 H      1   0   0     0.994251363452     0.00000000     0.00000000
 H      1   2   0     0.994251364094   120.00000015     0.00000000
 H      1   2   3     0.994251364103   120.00000016   179.99999809

---------------------------
INTERNAL COORDINATES (A.U.)
---------------------------
 N      0   0   0     0.000000000000     0.00000000     0.00000000
 H      1   0   0     1.878862785203     0.00000000     0.00000000
 H      1   2   0     1.878862786415   120.00000015     0.00000000
 H      1   2   3     1.878862786433   120.00000016   179.99999809

---------------------
BASIS SET INFORMATION
---------------------
There are 2 groups of distinct atoms

 Group   1 Type N   : 11s5p1d contracted to 4s3p1d pattern {6311/311/1}
 Group   2 Type H   : 5s1p contracted to 3s1p pattern {311/1}

Atom   0N    basis set group =>   1
Atom   1H    basis set group =>   2
Atom   2H    basis set group =>   2
Atom   3H    basis set group =>   2

-------------------------
BASIS SET IN INPUT FORMAT
-------------------------

 # Basis set for element : H 
 NewGTO H 
 S 3 
   1      33.8650000000      0.0254938145
   2       5.0947900000      0.1903731086
   3       1.1587900000      0.8521614860
 S 1 
   1       0.3258400000      1.0000000000
 S 1 
   1       0.1027410000      1.0000000000
 P 1 
   1       0.7500000000      1.0000000000
  end;

 # Basis set for element : N 
 NewGTO N 
 S 6 
   1    6293.4800000000      0.0019697881
   2     949.0440000000      0.0149612859
   3     218.7760000000      0.0735005308
   4      63.6916000000      0.2489367658
   5      18.8282000000      0.6024594331
   6       2.7202300000      0.2562017589
 S 3 
   1      30.6331000000      0.1119060795
   2       7.0261400000      0.9216666549
   3       2.1120500000     -0.0025691918
 P 3 
   1      30.6331000000      0.0383119186
   2       7.0261400000      0.2374031155
   3       2.1120500000      0.8175923978
 S 1 
   1       0.6840090000      1.0000000000
 P 1 
   1       0.6840090000      1.0000000000
 S 1 
   1       0.2008780000      1.0000000000
 P 1 
   1       0.2008780000      1.0000000000
 D 1 
   1       0.9130000000      1.0000000000
  end;



           ************************************************************
           *        Program running with 4 parallel MPI-processes     *
           *              working on a common directory               *
           ************************************************************
------------------------------------------------------------------------------
                           ORCA GTO INTEGRAL CALCULATION
------------------------------------------------------------------------------

                         BASIS SET STATISTICS AND STARTUP INFO

 # of primitive gaussian shells          ...   35
 # of primitive gaussian functions       ...   55
 # of contracted shells                  ...   20
 # of contracted basis functions         ...   36
 Highest angular momentum                ...    2
 Maximum contraction depth               ...    6
 Integral package used                   ... LIBINT
 Integral threshhold            Thresh   ...  2.500e-11
 Primitive cut-off              TCut     ...  2.500e-12


------------------------------ INTEGRAL EVALUATION ----------------------------


 * One electron integrals 
 Pre-screening matrix                    ... done
 Shell pair data                         ... done (   0.000 sec)



           ************************************************************
           *        Program running with 4 parallel MPI-processes     *
           *              working on a common directory               *
           ************************************************************
-------------------------------------------------------------------------------
                                 ORCA SCF
-------------------------------------------------------------------------------

------------
SCF SETTINGS
------------
Hamiltonian:
 Ab initio Hamiltonian  Method          .... Hartree-Fock(GTOs)


General Settings:
 Integral files         IntName         .... NH3‡
 Hartree-Fock type      HFTyp           .... RHF
 Total Charge           Charge          ....    0
 Multiplicity           Mult            ....    1
 Number of Electrons    NEL             ....   10
 Basis Dimension        Dim             ....   36
 Nuclear Repulsion      ENuc            ....     12.0988349850 Eh

Convergence Acceleration:
 DIIS                   CNVDIIS         .... on
   Start iteration      DIISMaxIt       ....    12
   Startup error        DIISStart       ....  0.200000
   # of expansion vecs  DIISMaxEq       ....     5
   Bias factor          DIISBfac        ....   1.050
   Max. coefficient     DIISMaxC        ....  10.000
 Newton-Raphson         CNVNR           .... off
 SOSCF                  CNVSOSCF        .... on
   Start iteration      SOSCFMaxIt      ....   150
   Startup grad/error   SOSCFStart      ....  0.003300
 Level Shifting         CNVShift        .... on
   Level shift para.    LevelShift      ....    0.2500
   Turn off err/grad.   ShiftErr        ....    0.0010
 Zerner damping         CNVZerner       .... off
 Static damping         CNVDamp         .... on
   Fraction old density DampFac         ....    0.7000
   Max. Damping (<1)    DampMax         ....    0.9800
   Min. Damping (>=0)   DampMin         ....    0.0000
   Turn off err/grad.   DampErr         ....    0.1000
 Fernandez-Rico         CNVRico         .... off

SCF Procedure:
 Maximum # iterations   MaxIter         ....   125
 SCF integral mode      SCFMode         .... Direct
   Integral package                     .... LIBINT
 Reset frequency        DirectResetFreq ....    20
 Integral Threshold     Thresh          ....  2.500e-11 Eh
 Primitive CutOff       TCut            ....  2.500e-12 Eh

Convergence Tolerance:
 Convergence Check Mode ConvCheckMode   .... Total+1el-Energy
 Convergence forced     ConvForced      .... 1
 Energy Change          TolE            ....  1.000e-08 Eh
 1-El. energy change                    ....  1.000e-05 Eh
 Orbital Gradient       TolG            ....  1.000e-05
 Orbital Rotation angle TolX            ....  1.000e-05
 DIIS Error             TolErr          ....  5.000e-07


Diagonalization of the overlap matrix:
Smallest eigenvalue                        ... 2.080e-02
Time for diagonalization                   ...    0.015 sec
Threshold for overlap eigenvalues          ... 1.000e-08
Number of eigenvalues below threshold      ... 0
Time for construction of square roots      ...    0.047 sec
Total time needed                          ...    0.062 sec

-------------------
DFT GRID GENERATION
-------------------

General Integration Accuracy     IntAcc      ...  4.670
Radial Grid Type                 RadialGrid  ... Gauss-Chebyshev
Angular Grid (max. acc.)         AngularGrid ... Lebedev-302
Angular grid pruning method      GridPruning ... 3 (G Style)
Weight generation scheme         WeightScheme... Becke
Basis function cutoff            BFCut       ...    1.0000e-11
Integration weight cutoff        WCut        ...    1.0000e-14
Grids for H and He will be reduced by one unit

# of grid points (after initial pruning)     ...  16394 (   0.0 sec)
# of grid points (after weights+screening)   ...  16135 (   0.1 sec)
nearest neighbour list constructed           ...    0.0 sec
Grid point re-assignment to atoms done       ...    0.0 sec
Grid point division into batches done        ...    0.1 sec
Reduced shell lists constructed in    0.1 sec

Total number of grid points                  ...    16135
Total number of batches                      ...      254
Average number of points per batch           ...       63
Average number of grid points per atom       ...     4034
Average number of shells per batch           ...    16.68 (83.38%)
Average number of basis functions per batch  ...    29.45 (81.79%)
Average number of large shells per batch     ...    15.91 (95.39%)
Average number of large basis fcns per batch ...    28.22 (95.82%)
Maximum spatial batch extension              ...  14.42, 12.76, 15.64 au
Average spatial batch extension              ...   0.77,  0.70,  0.98 au

Time for grid setup =    0.370 sec

------------------------------
INITIAL GUESS: MODEL POTENTIAL
------------------------------
Loading Hartree-Fock densities                     ... done
Calculating cut-offs                               ... done
Setting up the integral package                    ... done
Initializing the effective Hamiltonian             ... done
Starting the Coulomb interaction                   ... done (   0.0 sec)
Reading the grid                                   ... done
Mapping shells                                     ... done
Starting the XC term evaluation                    ... done (   0.0 sec)
Transforming the Hamiltonian                       ... done (   0.0 sec)
Diagonalizing the Hamiltonian                      ... done (   0.0 sec)
Back transforming the eigenvectors                 ... done (   0.0 sec)
Now organizing SCF variables                       ... done
                      ------------------
                      INITIAL GUESS DONE (   0.6 sec)
                      ------------------
--------------
SCF ITERATIONS
--------------
ITER       Energy         Delta-E        Max-DP      RMS-DP      [F,P]     Damp
               ***  Starting incremental Fock matrix formation  ***
  0    -56.0520146002   0.000000000000 0.07312521  0.00377619  0.4365970 0.7000
  1    -56.1102361515  -0.058221551295 0.05443780  0.00269922  0.2629139 0.7000
                               ***Turning on DIIS***
  2    -56.1419864414  -0.031750289889 0.02996656  0.00152852  0.1462574 0.7000
  3    -56.3497161926  -0.207729751204 0.03357957  0.00208290  0.0801249 0.0000
  4    -56.1688348523   0.180881340309 0.01073950  0.00048888  0.0181398 0.0000
                      *** Initiating the SOSCF procedure ***
                           *** Shutting down DIIS ***
                      *** Re-Reading the Fockian *** 
                      *** Removing any level shift *** 
ITER      Energy       Delta-E        Grad      Rot      Max-DP    RMS-DP
  5    -56.20094466  -0.0321098036  0.001381  0.001381  0.002122  0.000136
               *** Restarting incremental Fock matrix formation ***
  6    -56.20123251  -0.0002878546  0.000479  0.000400  0.000904  0.000057
  7    -56.20123444  -0.0000019268  0.000205  0.000275  0.000602  0.000034
  8    -56.20123477  -0.0000003299  0.000013  0.000016  0.000020  0.000002
  9    -56.20123477  -0.0000000019  0.000008  0.000009  0.000020  0.000001
                  ***Gradient check signals convergence***
              ***Rediagonalizing the Fockian in SOSCF/NRSCF***

               *****************************************************
               *                     SUCCESS                       *
               *           SCF CONVERGED AFTER  10 CYCLES          *
               *****************************************************


----------------
TOTAL SCF ENERGY
----------------

Total Energy       :          -56.20123477 Eh           -1529.31335 eV

Components:
Nuclear Repulsion  :           12.09883499 Eh             329.22604 eV
Electronic Energy  :          -68.30006975 Eh           -1858.53938 eV
One Electron Energy:         -100.01518489 Eh           -2721.55154 eV
Two Electron Energy:           31.71511513 Eh             863.01216 eV

Virial components:
Potential Energy   :         -112.40250862 Eh           -3058.62776 eV
Kinetic Energy     :           56.20127385 Eh            1529.31441 eV
Virial Ratio       :            1.99999930


---------------
SCF CONVERGENCE
---------------

  Last Energy change         ...   -2.3394e-10  Tolerance :   1.0000e-08
  Last MAX-Density change    ...    3.0069e-06  Tolerance :   1.0000e-07
  Last RMS-Density change    ...    1.7705e-07  Tolerance :   5.0000e-09
  Last Orbital Gradient      ...    1.9631e-06  Tolerance :   1.0000e-05
  Last Orbital Rotation      ...    1.5691e-06  Tolerance :   1.0000e-05

             **** THE GBW FILE WAS UPDATED (NH3‡.gbw) ****
             **** DENSITY FILE WAS UPDATED (NH3‡.scfp) ****
             **** ENERGY FILE WAS UPDATED (NH3‡.en.tmp) ****
             **** THE GBW FILE WAS UPDATED (NH3‡.gbw) ****
             **** DENSITY FILE WAS UPDATED (NH3‡.scfp) ****
----------------
ORBITAL ENERGIES
----------------

  NO   OCC          E(Eh)            E(eV) 
   0   2.0000     -15.506559      -421.9549 
   1   2.0000      -1.116754       -30.3884 
   2   2.0000      -0.642899       -17.4942 
   3   2.0000      -0.642899       -17.4942 
   4   2.0000      -0.383354       -10.4316 
   5   0.0000       0.164131         4.4662 
   6   0.0000       0.232933         6.3384 
   7   0.0000       0.232933         6.3384 
   8   0.0000       0.540154        14.6983 
   9   0.0000       0.540154        14.6983 
  10   0.0000       0.588932        16.0257 
  11   0.0000       0.828076        22.5331 
  12   0.0000       0.962132        26.1810 
  13   0.0000       0.962132        26.1810 
  14   0.0000       1.117810        30.4171 
  15   0.0000       1.453314        39.5467 
  16   0.0000       1.453314        39.5467 
  17   0.0000       1.732281        47.1378 
  18   0.0000       1.860956        50.6392 
  19   0.0000       1.860956        50.6392 
  20   0.0000       2.022624        55.0384 
  21   0.0000       2.190188        59.5980 
  22   0.0000       2.337175        63.5978 
  23   0.0000       2.337175        63.5978 
  24   0.0000       2.670391        72.6650 
  25   0.0000       2.818276        76.6892 
  26   0.0000       2.818276        76.6892 
  27   0.0000       2.828613        76.9705 
  28   0.0000       2.828613        76.9705 
  29   0.0000       3.408555        92.7515 
  30   0.0000       3.544790        96.4586 
  31   0.0000       3.544790        96.4586 
  32   0.0000       4.214016       114.6692 
  33   0.0000       5.331383       145.0743 
  34   0.0000       5.331383       145.0743 
  35   0.0000      37.103268      1009.6312 
------------------
MOLECULAR ORBITALS
------------------
                      0         1         2         3         4         5   
                 -15.50656  -1.11675  -0.64290  -0.64290  -0.38335   0.16413
                   2.00000   2.00000   2.00000   2.00000   2.00000   0.00000
                  --------  --------  --------  --------  --------  --------
  0N   1s        -0.557547 -0.109255  0.000000  0.000000  0.000000  0.046603
  0N   2s        -0.468186 -0.180670  0.000000  0.000000  0.000000  0.075635
  0N   1pz        0.000000 -0.000000 -0.000000 -0.000000 -0.268099  0.000000
  0N   1px       -0.000000  0.000000 -0.206737 -0.001206  0.000000  0.000000
  0N   1py        0.000000  0.000000 -0.001206  0.206737  0.000000 -0.000000
  0N   3s        -0.005476  0.476656  0.000000 -0.000000 -0.000000 -0.114525
  0N   2pz       -0.000000 -0.000000 -0.000000  0.000000 -0.400873  0.000000
  0N   2px        0.000000 -0.000000 -0.320528 -0.001871  0.000000  0.000000
  0N   2py       -0.000000  0.000000 -0.001871  0.320528  0.000000 -0.000000
  0N   4s         0.000127  0.342490 -0.000000 -0.000000 -0.000000 -1.408861
  0N   3pz        0.000000 -0.000000 -0.000000 -0.000000 -0.512210  0.000000
  0N   3px       -0.000000  0.000000 -0.208938 -0.001219  0.000000 -0.000000
  0N   3py       -0.000000  0.000000 -0.001219  0.208938  0.000000 -0.000000
  0N   1dz2      -0.000001 -0.011919  0.000000 -0.000000  0.000000  0.012154
  0N   1dxz      -0.000000  0.000000  0.000000  0.000000 -0.000000 -0.000000
  0N   1dyz       0.000000  0.000000  0.000000 -0.000000  0.000000 -0.000000
  0N   1dx2y2     0.000000 -0.000000 -0.022326 -0.000130 -0.000000 -0.000000
  0N   1dxy       0.000000  0.000000  0.000130 -0.022326  0.000000 -0.000000
  1H   1s        -0.000235  0.089979 -0.173248 -0.001011  0.000000  0.027815
  1H   2s         0.000189  0.092003 -0.235494 -0.001374  0.000000  0.010791
  1H   3s        -0.000134  0.002350 -0.077526 -0.000452  0.000000  0.724230
  1H   1pz        0.000000  0.000000 -0.000000 -0.000000 -0.025675  0.000000
  1H   1px       -0.000105 -0.021976  0.024172  0.000141 -0.000000 -0.008065
  1H   1py        0.000000 -0.000000 -0.000078  0.013403  0.000000 -0.000000
  2H   1s        -0.000235  0.089979  0.085749  0.150543  0.000000  0.027815
  2H   2s         0.000189  0.092003  0.116557  0.204631  0.000000  0.010791
  2H   3s        -0.000134  0.002350  0.038371  0.067366  0.000000  0.724230
  2H   1pz        0.000000  0.000000  0.000000  0.000000 -0.025675  0.000000
  2H   1px        0.000052  0.010988 -0.004104  0.016247  0.000000  0.004032
  2H   1py       -0.000091 -0.019031 -0.016184 -0.014873 -0.000000 -0.006984
  3H   1s        -0.000235  0.089979  0.087500 -0.149532  0.000000  0.027815
  3H   2s         0.000189  0.092003  0.118937 -0.203257  0.000000  0.010791
  3H   3s        -0.000134  0.002350  0.039155 -0.066913  0.000000  0.724230
  3H   1pz        0.000000  0.000000  0.000000 -0.000000 -0.025675  0.000000
  3H   1px        0.000052  0.010988 -0.003914 -0.016294  0.000000  0.004032
  3H   1py        0.000091  0.019031  0.016357 -0.014683  0.000000  0.006984
                      6         7         8         9        10        11   
                   0.23293   0.23293   0.54015   0.54015   0.58893   0.82808
                   0.00000   0.00000   0.00000   0.00000   0.00000   0.00000
                  --------  --------  --------  --------  --------  --------
  0N   1s        -0.000000  0.000000 -0.000000 -0.000000 -0.041289  0.000000
  0N   2s        -0.000000  0.000000 -0.000000 -0.000000 -0.074070  0.000000
  0N   1pz        0.000000 -0.000000 -0.000000  0.000000 -0.000000  0.231953
  0N   1px       -0.122682 -0.000429  0.000412  0.060239 -0.000000 -0.000000
  0N   1py       -0.000429  0.122682 -0.060239  0.000412  0.000000 -0.000000
  0N   3s         0.000000 -0.000000  0.000000  0.000000  0.157487 -0.000000
  0N   2pz        0.000000 -0.000000 -0.000000  0.000000 -0.000000  0.888454
  0N   2px       -0.098298 -0.000344  0.000906  0.132466 -0.000000 -0.000000
  0N   2py       -0.000344  0.098298 -0.132466  0.000906  0.000000 -0.000000
  0N   4s        -0.000000  0.000000  0.000000  0.000000  1.728115  0.000000
  0N   3pz       -0.000000 -0.000000 -0.000000  0.000000 -0.000000 -1.179851
  0N   3px       -0.723055 -0.002528  0.011518  1.684546 -0.000000  0.000000
  0N   3py       -0.002528  0.723055 -1.684546  0.011518  0.000000  0.000000
  0N   1dz2      -0.000000 -0.000000  0.000000  0.000000  0.009084 -0.000000
  0N   1dxz       0.000000  0.000000 -0.000000 -0.000000 -0.000000 -0.000000
  0N   1dyz       0.000000 -0.000000  0.000000 -0.000000 -0.000000 -0.000000
  0N   1dx2y2     0.004572  0.000016  0.000054  0.007895 -0.000000 -0.000000
  0N   1dxy      -0.000016  0.004572  0.007895 -0.000054 -0.000000 -0.000000
  1H   1s         0.011271  0.000039 -0.000428 -0.062591 -0.065082  0.000000
  1H   2s        -0.152823 -0.000534 -0.011910 -1.741924 -1.271024 -0.000000
  1H   3s         1.868169  0.006532  0.002018  0.295161  0.327355 -0.000000
  1H   1pz       -0.000000 -0.000000 -0.000000 -0.000000 -0.000000  0.043069
  1H   1px        0.018353  0.000064  0.000498  0.072767  0.028249  0.000000
  1H   1py        0.000008 -0.002267 -0.039889  0.000273  0.000000  0.000000
  2H   1s        -0.005602 -0.009781  0.054419  0.030925 -0.065082  0.000000
  2H   2s         0.075949  0.132616  1.514505  0.860648 -1.271024 -0.000000
  2H   3s        -0.928428 -1.621148 -0.256626 -0.145833  0.327355 -0.000000
  2H   1pz        0.000000  0.000000  0.000000  0.000000 -0.000000  0.043069
  2H   1px        0.006264  0.006988  0.014565  0.048011 -0.014125 -0.000000
  2H   1py       -0.006916 -0.014356 -0.064645 -0.013795  0.024465  0.000000
  3H   1s        -0.005670  0.009742 -0.053991  0.031666 -0.065082  0.000000
  3H   2s         0.076874 -0.132082 -1.502595  0.881276 -1.271024 -0.000000
  3H   3s        -0.939742  1.614616  0.254608 -0.149328  0.327355 -0.000000
  3H   1pz        0.000000 -0.000000 -0.000000  0.000000 -0.000000  0.043069
  3H   1px        0.006313 -0.006944 -0.013907  0.048206 -0.014125 -0.000000
  3H   1py        0.007016 -0.014307 -0.064450  0.014678 -0.024465 -0.000000
                     12        13        14        15        16        17   
                   0.96213   0.96213   1.11781   1.45331   1.45331   1.73228
                   0.00000   0.00000   0.00000   0.00000   0.00000   0.00000
                  --------  --------  --------  --------  --------  --------
  0N   1s         0.000000  0.000000 -0.107071  0.000000 -0.000000 -0.000000
  0N   2s         0.000000  0.000000 -0.216982 -0.000000 -0.000000 -0.000000
  0N   1pz        0.000000 -0.000000 -0.000000  0.000000 -0.000000  0.000000
  0N   1px        0.264473  0.001479  0.000000  0.000000 -0.000000  0.000000
  0N   1py        0.001479 -0.264473 -0.000000  0.000000  0.000000  0.000000
  0N   3s        -0.000000 -0.000000  1.624750  0.000000  0.000000  0.000000
  0N   2pz        0.000000 -0.000000  0.000000  0.000000 -0.000000 -0.000000
  0N   2px        0.805303  0.004504  0.000000  0.000000 -0.000000 -0.000000
  0N   2py        0.004504 -0.805303 -0.000000  0.000000  0.000000 -0.000000
  0N   4s         0.000000  0.000000 -3.902336 -0.000000 -0.000000 -0.000000
  0N   3pz       -0.000000  0.000000  0.000000  0.000000 -0.000000  0.000000
  0N   3px       -1.743453 -0.009750  0.000000  0.000000 -0.000000  0.000000
  0N   3py       -0.009750  1.743453 -0.000000  0.000000  0.000000  0.000000
  0N   1dz2      -0.000000 -0.000000  0.093860  0.000000 -0.000000  0.000000
  0N   1dxz       0.000000  0.000000 -0.000000  0.245071 -0.001466  0.000000
  0N   1dyz       0.000000 -0.000000 -0.000000  0.001466  0.245071 -0.000000
  0N   1dx2y2    -0.071068 -0.000397 -0.000000  0.000000 -0.000000  0.000000
  0N   1dxy       0.000397 -0.071068 -0.000000 -0.000000 -0.000000 -0.000000
  1H   1s        -0.022142 -0.000124 -0.020528  0.000000 -0.000000  0.000000
  1H   2s         0.003306  0.000018  0.629850 -0.000000  0.000000 -0.000000
  1H   3s         1.245750  0.006967  0.498773 -0.000000  0.000000 -0.000000
  1H   1pz        0.000000  0.000000  0.000000  0.711183 -0.004255 -0.000000
  1H   1px       -0.196548 -0.001099 -0.289084  0.000000 -0.000000 -0.000000
  1H   1py        0.000243 -0.043369 -0.000000 -0.000000 -0.000000 -0.606461
  2H   1s         0.010964  0.019237 -0.020528 -0.000000  0.000000  0.000000
  2H   2s        -0.001637 -0.002872  0.629850  0.000000 -0.000000 -0.000000
  2H   3s        -0.616842 -1.082335  0.498773  0.000000 -0.000000 -0.000000
  2H   1pz       -0.000000 -0.000000  0.000000 -0.351906  0.618030  0.000000
  2H   1px       -0.016030 -0.103980  0.144542 -0.000000 -0.000000  0.525210
  2H   1py        0.103123  0.137150 -0.250354 -0.000000  0.000000  0.303230
  3H   1s         0.011178 -0.019114 -0.020528 -0.000000 -0.000000 -0.000000
  3H   2s        -0.001669  0.002854  0.629850  0.000000  0.000000  0.000000
  3H   3s        -0.628909  1.075368  0.498773  0.000000  0.000000  0.000000
  3H   1pz       -0.000000  0.000000  0.000000 -0.359277 -0.613775 -0.000000
  3H   1px       -0.017192  0.103794  0.144542 -0.000000  0.000000 -0.525210
  3H   1py       -0.104651  0.135988  0.250354  0.000000  0.000000  0.303230
                     18        19        20        21        22        23   
                   1.86096   1.86096   2.02262   2.19019   2.33717   2.33717
                   0.00000   0.00000   0.00000   0.00000   0.00000   0.00000
                  --------  --------  --------  --------  --------  --------
  0N   1s         0.000000  0.000000  0.000000 -0.041830 -0.000000 -0.000000
  0N   2s         0.000000  0.000000  0.000000 -0.083248 -0.000000 -0.000000
  0N   1pz       -0.000000  0.000000 -0.109215 -0.000000  0.000000 -0.000000
  0N   1px        0.005277  0.000056  0.000000  0.000000 -0.002845 -0.192611
  0N   1py        0.000056 -0.005277 -0.000000 -0.000000  0.192611 -0.002845
  0N   3s        -0.000000 -0.000000 -0.000000  0.489261  0.000000  0.000000
  0N   2pz       -0.000000  0.000000 -0.164306 -0.000000 -0.000000  0.000000
  0N   2px       -0.301602 -0.003184  0.000000 -0.000000  0.004978  0.336980
  0N   2py       -0.003184  0.301602 -0.000000  0.000000 -0.336980  0.004978
  0N   4s        -0.000000 -0.000000  0.000000 -0.954828 -0.000000  0.000000
  0N   3pz        0.000000 -0.000000 -0.581289 -0.000000 -0.000000 -0.000000
  0N   3px        1.512218  0.015965  0.000000  0.000000 -0.001007 -0.068144
  0N   3py        0.015965 -1.512218  0.000000 -0.000000  0.068144 -0.001007
  0N   1dz2      -0.000000 -0.000000 -0.000000  0.597855  0.000000  0.000000
  0N   1dxz      -0.000000 -0.000000 -0.000000 -0.000000 -0.000000 -0.000000
  0N   1dyz      -0.000000  0.000000  0.000000 -0.000000  0.000000 -0.000000
  0N   1dx2y2     0.260855  0.002754 -0.000000 -0.000000  0.008868  0.600343
  0N   1dxy      -0.002754  0.260855 -0.000000 -0.000000  0.600343 -0.008868
  1H   1s         0.212841  0.002247  0.000000 -0.524553  0.013400  0.907148
  1H   2s        -1.142143 -0.012058 -0.000000  0.954980 -0.022524 -1.524825
  1H   3s        -0.007667 -0.000081  0.000000 -0.216452  0.010520  0.712210
  1H   1pz       -0.000000 -0.000000  0.700894  0.000000  0.000000  0.000000
  1H   1px       -0.324047 -0.003421 -0.000000  0.186289  0.003883  0.262839
  1H   1py       -0.007853  0.743846 -0.000000  0.000000 -0.477282  0.007050
  2H   1s        -0.104475 -0.185449  0.000000 -0.524553 -0.792313 -0.441969
  2H   2s         0.560629  0.995154 -0.000000  0.954980  1.331799  0.742906
  2H   3s         0.003763  0.006680  0.000000 -0.216452 -0.622052 -0.346994
  2H   1pz        0.000000  0.000000  0.700894  0.000000 -0.000000 -0.000000
  2H   1px       -0.640815  0.175033  0.000000 -0.093145 -0.086598  0.425043
  2H   1py       -0.186307  0.427078 -0.000000  0.161331 -0.315078  0.097531
  3H   1s        -0.108367  0.183202  0.000000 -0.524553  0.778913 -0.465179
  3H   2s         0.581514 -0.983096 -0.000000  0.954980 -1.309276  0.781919
  3H   3s         0.003904 -0.006599  0.000000 -0.216452  0.611531 -0.365216
  3H   1pz        0.000000 -0.000000  0.700894  0.000000  0.000000 -0.000000
  3H   1px       -0.636977 -0.188523  0.000000 -0.093145  0.099115  0.422300
  3H   1py        0.177249  0.430916  0.000000 -0.161331 -0.317821 -0.088182
                     24        25        26        27        28        29   
                   2.67039   2.81828   2.81828   2.82861   2.82861   3.40856
                   0.00000   0.00000   0.00000   0.00000   0.00000   0.00000
                  --------  --------  --------  --------  --------  --------
  0N   1s        -0.044904  0.000000  0.000000  0.000000  0.000000 -0.078675
  0N   2s        -0.132256  0.000000  0.000000  0.000000  0.000000 -0.176867
  0N   1pz       -0.000000  0.000000 -0.000000 -0.000000 -0.000000 -0.000000
  0N   1px        0.000000 -0.002058 -0.190150 -0.000000 -0.000000 -0.000000
  0N   1py        0.000000  0.190150 -0.002058  0.000000 -0.000000  0.000000
  0N   3s         1.173161 -0.000000 -0.000000 -0.000000 -0.000000  1.099745
  0N   2pz       -0.000000 -0.000000 -0.000000 -0.000000  0.000000 -0.000000
  0N   2px       -0.000000 -0.016039 -1.481987 -0.000000 -0.000001  0.000000
  0N   2py        0.000000  1.481987 -0.016039  0.000001 -0.000000  0.000000
  0N   4s         1.443516 -0.000000 -0.000000 -0.000000 -0.000000  2.680305
  0N   3pz       -0.000000 -0.000000 -0.000000 -0.000000 -0.000000 -0.000000
  0N   3px       -0.000000 -0.016203 -1.497158 -0.000000 -0.000001 -0.000000
  0N   3py        0.000000  1.497158 -0.016203  0.000001 -0.000000  0.000000
  0N   1dz2       0.119647  0.000000  0.000000 -0.000000  0.000000 -1.223294
  0N   1dxz      -0.000000 -0.000000 -0.000001  0.007101  1.100826  0.000000
  0N   1dyz      -0.000000  0.000001 -0.000000 -1.100826  0.007101  0.000000
  0N   1dx2y2    -0.000000 -0.004208 -0.388801 -0.000000 -0.000000 -0.000000
  0N   1dxy      -0.000000 -0.388801  0.004208 -0.000000  0.000000 -0.000000
  1H   1s         0.685054 -0.003427 -0.316654 -0.000000 -0.000000 -0.317413
  1H   2s        -1.547625  0.027043  2.498772  0.000000  0.000002 -1.121063
  1H   3s         0.206514 -0.000538 -0.049739 -0.000000 -0.000000 -0.130213
  1H   1pz        0.000000  0.000000  0.000001 -0.003862 -0.598689 -0.000000
  1H   1px        0.684490 -0.017103 -1.580328 -0.000000 -0.000001  0.959419
  1H   1py       -0.000000 -0.561464  0.006076 -0.000001  0.000000  0.000000
  2H   1s         0.685054  0.275944  0.155359  0.000000  0.000000 -0.317413
  2H   2s        -1.547625 -2.177521 -1.225966 -0.000002 -0.000001 -1.121063
  2H   3s         0.206514  0.043344  0.024403  0.000000  0.000000 -0.130213
  2H   1pz        0.000000 -0.000001 -0.000000  0.520411  0.296000 -0.000000
  2H   1px       -0.342245 -0.927142  0.036053 -0.000001  0.000000 -0.479710
  2H   1py        0.592786  1.054917  0.916115  0.000001  0.000001  0.830882
  3H   1s         0.685054 -0.272517  0.161295 -0.000000  0.000000 -0.317413
  3H   2s        -1.547625  2.150479 -1.272806  0.000002 -0.000001 -1.121063
  3H   3s         0.206514 -0.042806  0.025336 -0.000000  0.000000 -0.130213
  3H   1pz        0.000000  0.000001 -0.000000 -0.516549  0.302689 -0.000000
  3H   1px       -0.342245  0.927705  0.015979  0.000001  0.000000 -0.479710
  3H   1py       -0.592786  1.034843 -0.938731  0.000001 -0.000001 -0.830882
                     30        31        32        33        34        35   
                   3.54479   3.54479   4.21402   5.33138   5.33138  37.10327
                   0.00000   0.00000   0.00000   0.00000   0.00000   0.00000
                  --------  --------  --------  --------  --------  --------
  0N   1s        -0.000000 -0.000000 -0.000000 -0.000000 -0.000000 -2.150382
  0N   2s        -0.000000 -0.000000 -0.000000 -0.000000 -0.000000  2.287471
  0N   1pz        0.000000 -0.000000  1.296047 -0.000000 -0.000000 -0.000000
  0N   1px        0.553585  0.004784 -0.000000  0.003592 -1.290726 -0.000000
  0N   1py        0.004784 -0.553585 -0.000000 -1.290726 -0.003592  0.000000
  0N   3s         0.000000  0.000000  0.000000  0.000000  0.000000 -0.468665
  0N   2pz       -0.000000  0.000000 -1.435854  0.000000  0.000000  0.000000
  0N   2px       -0.188785 -0.001632  0.000000 -0.007662  2.753476  0.000000
  0N   2py       -0.001632  0.188785  0.000000  2.753476  0.007662 -0.000000
  0N   4s         0.000000  0.000000  0.000000  0.000000 -0.000000 -0.042394
  0N   3pz        0.000000  0.000000  0.449217 -0.000000 -0.000000  0.000000
  0N   3px        0.203707  0.001760 -0.000000  0.000283 -0.101546  0.000000
  0N   3py        0.001760 -0.203707  0.000000 -0.101546 -0.000283 -0.000000
  0N   1dz2      -0.000000 -0.000000 -0.000000 -0.000000  0.000000  0.086414
  0N   1dxz      -0.000000 -0.000000  0.000000  0.000000 -0.000000 -0.000000
  0N   1dyz      -0.000000  0.000000 -0.000000 -0.000000 -0.000000 -0.000000
  0N   1dx2y2     1.133258  0.009794 -0.000000 -0.002581  0.927618 -0.000000
  0N   1dxy      -0.009794  1.133258 -0.000000 -0.927618 -0.002581 -0.000000
  1H   1s        -0.756630 -0.006539 -0.000000  0.001921 -0.690243  0.008332
  1H   2s         0.338718  0.002927 -0.000000  0.002679 -0.962752  0.159998
  1H   3s        -0.392466 -0.003392 -0.000000 -0.000669  0.240555 -0.034884
  1H   1pz       -0.000000 -0.000000  0.114823  0.000000 -0.000000  0.000000
  1H   1px        0.396966  0.003431  0.000000 -0.003146  1.130374 -0.131618
  1H   1py        0.003853 -0.445773  0.000000 -0.079760 -0.000222 -0.000000
  2H   1s         0.372652  0.658531 -0.000000 -0.598729  0.343458  0.008332
  2H   2s        -0.166824 -0.294802 -0.000000 -0.835107  0.479056  0.159998
  2H   3s         0.193296  0.341582 -0.000000  0.208661 -0.119698 -0.034884
  2H   1pz        0.000000  0.000000  0.114823 -0.000000  0.000000  0.000000
  2H   1px        0.433754 -0.017387 -0.000000 -0.524623  0.221316  0.065809
  2H   1py        0.024670 -0.408985  0.000000  0.829299 -0.521700 -0.113985
  3H   1s         0.383978 -0.651992 -0.000000  0.596808  0.346785  0.008332
  3H   2s        -0.171894  0.291874 -0.000000  0.832428  0.483696  0.159998
  3H   3s         0.199170 -0.338190 -0.000000 -0.207992 -0.120857 -0.034884
  3H   1pz        0.000000 -0.000000  0.114823  0.000000  0.000000  0.000000
  3H   1px        0.433388  0.024881 -0.000000  0.523383  0.224232  0.065809
  3H   1py       -0.017598 -0.409350 -0.000000  0.826382  0.526307  0.113985



                    ********************************
                    * MULLIKEN POPULATION ANALYSIS *
                    ********************************

-----------------------
MULLIKEN ATOMIC CHARGES
-----------------------
   0 N :   -0.664047
   1 H :    0.221349
   2 H :    0.221349
   3 H :    0.221349
Sum of atomic charges:    0.0000000

--------------------------------
MULLIKEN REDUCED ORBITAL CHARGES
--------------------------------
  0 N s       :     3.425571  s :     3.425571
      pz      :     1.947596  p :     4.221835
      px      :     1.137119
      py      :     1.137119
      dz2     :     0.002215  d :     0.016642
      dxz     :     0.000000
      dyz     :     0.000000
      dx2y2   :     0.007213
      dxy     :     0.007213
  1 H s       :     0.731503  s :     0.731503
      pz      :     0.017468  p :     0.047148
      px      :     0.023541
      py      :     0.006139
  2 H s       :     0.731503  s :     0.731503
      pz      :     0.017468  p :     0.047148
      px      :     0.010490
      py      :     0.019191
  3 H s       :     0.731503  s :     0.731503
      pz      :     0.017468  p :     0.047148
      px      :     0.010490
      py      :     0.019191


                     *******************************
                     * LOEWDIN POPULATION ANALYSIS *
                     *******************************

----------------------
LOEWDIN ATOMIC CHARGES
----------------------
   0 N :   -0.066874
   1 H :    0.022291
   2 H :    0.022291
   3 H :    0.022291

-------------------------------
LOEWDIN REDUCED ORBITAL CHARGES
-------------------------------
  0 N s       :     2.938910  s :     2.938910
      pz      :     1.840085  p :     4.102998
      px      :     1.131457
      py      :     1.131457
      dz2     :     0.000837  d :     0.024966
      dxz     :     0.000000
      dyz     :     0.000000
      dx2y2   :     0.012064
      dxy     :     0.012064
  1 H s       :     0.836324  s :     0.836324
      pz      :     0.053305  p :     0.141385
      px      :     0.071165
      py      :     0.016915
  2 H s       :     0.836324  s :     0.836324
      pz      :     0.053305  p :     0.141385
      px      :     0.030477
      py      :     0.057602
  3 H s       :     0.836324  s :     0.836324
      pz      :     0.053305  p :     0.141385
      px      :     0.030477
      py      :     0.057602


                      *****************************
                      * MAYER POPULATION ANALYSIS *
                      *****************************

  NA   - Mulliken gross atomic population
  ZA   - Total nuclear charge
  QA   - Mulliken gross atomic charge
  VA   - Mayer's total valence
  BVA  - Mayer's bonded valence
  FA   - Mayer's free valence

  ATOM       NA         ZA         QA         VA         BVA        FA
  0 N      7.6640     7.0000    -0.6640     2.8773     2.8773     0.0000
  1 H      0.7787     1.0000     0.2213     0.9617     0.9617    -0.0000
  2 H      0.7787     1.0000     0.2213     0.9617     0.9617     0.0000
  3 H      0.7787     1.0000     0.2213     0.9617     0.9617     0.0000

  Mayer bond orders larger than 0.100000
B(  0-N ,  1-H ) :   0.9591 B(  0-N ,  2-H ) :   0.9591 B(  0-N ,  3-H ) :   0.9591 


Now starting NBO....

 *********************************** NBO 7.0 ***********************************
             N A T U R A L   A T O M I C   O R B I T A L   A N D
          N A T U R A L   B O N D   O R B I T A L   A N A L Y S I S
 *********************** Giovanni  F. Caramori (I101916) ***********************
  (c) Copyright 1996-2020 Board of Regents of the University of Wisconsin System
      on behalf of the Theoretical Chemistry Institute.  All rights reserved.

          Cite this program [NBO 7.0.8 (11-Feb-2020)] as:

          NBO 7.0.  E. D. Glendening, J. K. Badenhoop, A. E. Reed,
          J. E. Carpenter, J. A. Bohmann, C. M. Morales, P. Karafiloglou,
          C. R. Landis, and F. Weinhold, Theoretical Chemistry Institute,
          University of Wisconsin, Madison, WI (2018)

       /NPA    / : Natural Population Analysis
       /NBO    / : Natural Bond Orbital Analysis
       /AONBO  / : Checkpoint the AO to NBO transformation
       /ARCHIVE/ : Write the archive file to lfn47

 Job title: ORCA Job: NH3‡


 NATURAL POPULATIONS:  Natural atomic orbital occupancies

  NAO Atom No lang   Type(AO)    Occupancy      Energy
 -------------------------------------------------------
   1    N  1  s      Cor( 1s)     2.00000     -15.50653
   2    N  1  s      Val( 2s)     1.37665      -0.56380
   3    N  1  s      Ryd( 4s)     0.00000      35.83267
   4    N  1  s      Ryd( 3s)     0.00000       2.23221
   5    N  1  px     Val( 2p)     1.35186      -0.19618
   6    N  1  px     Ryd( 3p)     0.00142       0.91025
   7    N  1  px     Ryd( 4p)     0.00000       5.05896
   8    N  1  py     Val( 2p)     1.35186      -0.19618
   9    N  1  py     Ryd( 3p)     0.00142       0.91025
  10    N  1  py     Ryd( 4p)     0.00000       5.05896
  11    N  1  pz     Val( 2p)     1.99416      -0.37844
  12    N  1  pz     Ryd( 3p)     0.00385       0.83216
  13    N  1  pz     Ryd( 4p)     0.00000       4.20575
  14    N  1  dxy    Ryd( 3d)     0.00284       3.02513
  15    N  1  dxz    Ryd( 3d)     0.00000       2.47369
  16    N  1  dyz    Ryd( 3d)     0.00000       2.47369
  17    N  1  dx2y2  Ryd( 3d)     0.00284       3.02513
  18    N  1  dz2    Ryd( 3d)     0.00154       2.76668

  19    H  2  s      Val( 1s)     0.63539       0.24906
  20    H  2  s      Ryd( 2s)     0.00062       1.24710
  21    H  2  s      Ryd( 3s)     0.00000       1.60087
  22    H  2  px     Ryd( 2p)     0.00051       2.81607
  23    H  2  py     Ryd( 2p)     0.00000       2.07506
  24    H  2  pz     Ryd( 2p)     0.00066       1.87945

  25    H  3  s      Val( 1s)     0.63539       0.24906
  26    H  3  s      Ryd( 2s)     0.00062       1.24710
  27    H  3  s      Ryd( 3s)     0.00000       1.60087
  28    H  3  px     Ryd( 2p)     0.00013       2.26031
  29    H  3  py     Ryd( 2p)     0.00038       2.63082
  30    H  3  pz     Ryd( 2p)     0.00066       1.87945

  31    H  4  s      Val( 1s)     0.63539       0.24906
  32    H  4  s      Ryd( 2s)     0.00062       1.24710
  33    H  4  s      Ryd( 3s)     0.00000       1.60087
  34    H  4  px     Ryd( 2p)     0.00013       2.26031
  35    H  4  py     Ryd( 2p)     0.00038       2.63082
  36    H  4  pz     Ryd( 2p)     0.00066       1.87945


 Summary of Natural Population Analysis:

                                     Natural Population
             Natural    ---------------------------------------------
  Atom No    Charge        Core      Valence    Rydberg      Total
 --------------------------------------------------------------------
    N  1   -1.08844      2.00000     6.07453    0.01391     8.08844
    H  2    0.36281      0.00000     0.63539    0.00180     0.63719
    H  3    0.36281      0.00000     0.63539    0.00180     0.63719
    H  4    0.36281      0.00000     0.63539    0.00180     0.63719
 ====================================================================
 * Total *  0.00000      2.00000     7.98070    0.01930    10.00000

                                 Natural Population
 ---------------------------------------------------------
   Core                       2.00000 (100.0000% of    2)
   Valence                    7.98070 ( 99.7588% of    8)
   Natural Minimal Basis      9.98070 ( 99.8070% of   10)
   Natural Rydberg Basis      0.01930 (  0.1930% of   10)
 ---------------------------------------------------------

    Atom No         Natural Electron Configuration
 ----------------------------------------------------------------------------
      N  1      [core]2s( 1.38)2p( 4.70)3p( 0.01)3d( 0.01)
      H  2            1s( 0.64)
      H  3            1s( 0.64)
      H  4            1s( 0.64)


 NATURAL BOND ORBITAL ANALYSIS:

                            Occupancies       Lewis Structure    Low   High
         Max    Occ     -------------------  -----------------   occ   occ
  Cycle  Ctr   Thresh    Lewis   non-Lewis     CR  BD  nC  LP    (L)   (NL)
 ============================================================================
    1     2     1.90     9.99577   0.00423      1   3   0   1     0      0
 ----------------------------------------------------------------------------

 Structure accepted: No low occupancy Lewis orbitals

 -------------------------------------------------------
   Core                      2.00000 (100.000% of   2)
   Valence Lewis             7.99577 ( 99.947% of   8)
  ==================      =============================
   Total Lewis               9.99577 ( 99.958% of  10)
  -----------------------------------------------------
   Valence non-Lewis         0.00020 (  0.002% of  10)
   Rydberg non-Lewis         0.00403 (  0.040% of  10)
  ==================      =============================
   Total non-Lewis           0.00423 (  0.042% of  10)
 -------------------------------------------------------


     (Occupancy)   Bond orbital / Coefficients / Hybrids
 ------------------ Lewis ------------------------------------------------------
   1. (2.00000) CR ( 1) N  1            s(100.00%)
                                         1.0000  0.0000  0.0000  0.0000  0.0000
                                         0.0000  0.0000  0.0000  0.0000  0.0000
                                         0.0000  0.0000  0.0000  0.0000  0.0000
                                         0.0000  0.0000  0.0000
   2. (1.99801) LP ( 1) N  1            s(  0.00%)p 1.00(100.00%)
                                         0.0000  0.0000  0.0000  0.0000  0.0000
                                         0.0000  0.0000  0.0000  0.0000  0.0000
                                         0.9990 -0.0439  0.0000  0.0000  0.0000
                                         0.0000  0.0000  0.0000
   3. (1.99925) BD ( 1) N  1- H  2
               ( 68.20%)   0.8258* N  1 s( 33.30%)p 2.00( 66.53%)d 0.01(  0.18%)
                                         0.0000  0.5770  0.0000  0.0000  0.8152
                                         0.0264  0.0000  0.0000  0.0000  0.0000
                                         0.0000  0.0000  0.0000  0.0000  0.0000
                                         0.0000  0.0374 -0.0193
               ( 31.80%)   0.5639* H  2 s( 99.93%)p 0.00(  0.07%)
                                         0.9996 -0.0005  0.0000 -0.0268  0.0000
                                         0.0000
   4. (1.99925) BD ( 1) N  1- H  3
               ( 68.20%)   0.8258* N  1 s( 33.30%)p 2.00( 66.53%)d 0.01(  0.18%)
                                         0.0000  0.5770  0.0000  0.0000 -0.4076
                                        -0.0132  0.0000  0.7060  0.0229  0.0000
                                         0.0000  0.0000  0.0000 -0.0324  0.0000
                                         0.0000 -0.0187 -0.0193
               ( 31.80%)   0.5639* H  3 s( 99.93%)p 0.00(  0.07%)
                                         0.9996 -0.0005  0.0000  0.0134 -0.0232
                                         0.0000
   5. (1.99925) BD ( 1) N  1- H  4
               ( 68.20%)   0.8258* N  1 s( 33.30%)p 2.00( 66.53%)d 0.01(  0.18%)
                                         0.0000  0.5770  0.0000  0.0000 -0.4076
                                        -0.0132  0.0000 -0.7060 -0.0229  0.0000
                                         0.0000  0.0000  0.0000  0.0324  0.0000
                                         0.0000 -0.0187 -0.0193
               ( 31.80%)   0.5639* H  4 s( 99.93%)p 0.00(  0.07%)
                                         0.9996 -0.0005  0.0000  0.0134  0.0232
                                         0.0000
 ---------------- non-Lewis ----------------------------------------------------
   6. (0.00007) BD*( 1) N  1- H  2
               ( 31.80%)   0.5639* N  1 s( 33.30%)p 2.00( 66.53%)d 0.01(  0.18%)
               ( 68.20%)  -0.8258* H  2 s( 99.93%)p 0.00(  0.07%)
   7. (0.00007) BD*( 1) N  1- H  3
               ( 31.80%)   0.5639* N  1 s( 33.30%)p 2.00( 66.53%)d 0.01(  0.18%)
               ( 68.20%)  -0.8258* H  3 s( 99.93%)p 0.00(  0.07%)
   8. (0.00007) BD*( 1) N  1- H  4
               ( 31.80%)   0.5639* N  1 s( 33.30%)p 2.00( 66.53%)d 0.01(  0.18%)
               ( 68.20%)  -0.8258* H  4 s( 99.93%)p 0.00(  0.07%)
   9. (0.00000) RY ( 1) N  1            s( 98.83%)p 0.00(  0.00%)d 0.01(  1.17%)
  10. (0.00000) RY ( 2) N  1            s(100.00%)p 0.00(  0.00%)d 0.00(  0.00%)
  11. (0.00000) RY ( 3) N  1            s(  0.00%)p 1.00(100.00%)d 0.00(  0.00%)
  12. (0.00000) RY ( 4) N  1            s(  0.00%)p 1.00(100.00%)
  13. (0.00000) RY ( 5) N  1            s(  0.00%)p 1.00(100.00%)d 0.00(  0.00%)
  14. (0.00000) RY ( 6) N  1            s(  0.00%)p 1.00(100.00%)
  15. (0.00000) RY ( 7) N  1            s(  0.00%)p 1.00(100.00%)
  16. (0.00000) RY ( 8) N  1            s(  0.00%)p 1.00(100.00%)
  17. (0.00000) RY ( 9) N  1            s(  0.00%)p 1.00(  0.21%)d99.99( 99.79%)
  18. (0.00000) RY (10) N  1            s(  0.00%)p 0.00(  0.00%)d 1.00(100.00%)
  19. (0.00000) RY (11) N  1            s(  0.00%)p 0.00(  0.00%)d 1.00(100.00%)
  20. (0.00000) RY (12) N  1            s(  0.00%)p 1.00(  0.21%)d99.99( 99.79%)
  21. (0.00000) RY (13) N  1            s(  1.28%)p 0.00(  0.00%)d77.04( 98.72%)
  22. (0.00068) RY ( 1) H  2            s( 91.81%)p 0.09(  8.19%)
                                         0.0082  0.9582  0.0000  0.2861  0.0000
                                         0.0000
  23. (0.00066) RY ( 2) H  2            s(  0.00%)p 1.00(100.00%)
                                         0.0000  0.0000  0.0000  0.0000  0.0000
                                         1.0000
  24. (0.00000) RY ( 3) H  2            s(  0.00%)p 1.00(100.00%)
  25. (0.00000) RY ( 4) H  2            s(  8.29%)p11.06( 91.71%)
  26. (0.00000) RY ( 5) H  2            s( 99.96%)p 0.00(  0.04%)
  27. (0.00068) RY ( 1) H  3            s( 91.81%)p 0.09(  8.19%)
                                         0.0082  0.9582  0.0000 -0.1431  0.2478
                                         0.0000
  28. (0.00066) RY ( 2) H  3            s(  0.00%)p 1.00(100.00%)
                                         0.0000  0.0000  0.0000  0.0000  0.0000
                                         1.0000
  29. (0.00000) RY ( 3) H  3            s(  0.00%)p 1.00(100.00%)
  30. (0.00000) RY ( 4) H  3            s(  8.29%)p11.06( 91.71%)
  31. (0.00000) RY ( 5) H  3            s( 99.96%)p 0.00(  0.04%)
  32. (0.00068) RY ( 1) H  4            s( 91.81%)p 0.09(  8.19%)
                                         0.0082  0.9582  0.0000 -0.1431 -0.2478
                                         0.0000
  33. (0.00066) RY ( 2) H  4            s(  0.00%)p 1.00(100.00%)
                                         0.0000  0.0000  0.0000  0.0000  0.0000
                                         1.0000
  34. (0.00000) RY ( 3) H  4            s(  0.00%)p 1.00(100.00%)
  35. (0.00000) RY ( 4) H  4            s(  8.29%)p11.06( 91.71%)
  36. (0.00000) RY ( 5) H  4            s( 99.96%)p 0.00(  0.04%)


 NHO DIRECTIONALITY AND BOND BENDING (deviation from line of nuclear centers at
                                      the position of maximum hybrid amplitude)

         [Thresholds for printing:  angular deviation  >  1.0 degree]
                                    p- or d-character  > 25.0%
                                    orbital occupancy  >  0.10e

                        Line of Centers        Hybrid 1             Hybrid 2
                        ---------------  -------------------  ------------------
           NBO            Theta   Phi    Theta   Phi    Dev   Theta   Phi    Dev
 ===============================================================================
   2. LP ( 1) N  1          --     --      0.0    0.0   --      --     --    --


 SECOND ORDER PERTURBATION THEORY ANALYSIS OF FOCK MATRIX IN NBO BASIS

     Threshold for printing:   0.50 kcal/mol
                                                          E(2) E(NL)-E(L) F(L,NL)
      Donor (L) NBO              Acceptor (NL) NBO      kcal/mol   a.u.    a.u.
 ===============================================================================

 within unit  1
    2. LP ( 1) N  1            23. RY ( 2) H  2            1.07    2.26   0.044
    2. LP ( 1) N  1            28. RY ( 2) H  3            1.07    2.26   0.044
    2. LP ( 1) N  1            33. RY ( 2) H  4            1.07    2.26   0.044
    3. BD ( 1) N  1- H  2      27. RY ( 1) H  3            0.55    2.17   0.031
    3. BD ( 1) N  1- H  2      32. RY ( 1) H  4            0.55    2.17   0.031
    4. BD ( 1) N  1- H  3      22. RY ( 1) H  2            0.55    2.17   0.031
    4. BD ( 1) N  1- H  3      32. RY ( 1) H  4            0.55    2.17   0.031
    5. BD ( 1) N  1- H  4      22. RY ( 1) H  2            0.55    2.17   0.031
    5. BD ( 1) N  1- H  4      27. RY ( 1) H  3            0.55    2.17   0.031


 NATURAL BOND ORBITALS (Summary):

                                                     Principal Delocalizations
           NBO                 Occupancy    Energy   (geminal,vicinal,remote)
 ===============================================================================
 Molecular unit  1  (H3N)
 ------ Lewis --------------------------------------
    1. CR ( 1) N  1             2.00000   -15.50653
    2. LP ( 1) N  1             1.99801    -0.38096  23(v),28(v),33(v)
    3. BD ( 1) N  1- H  2       1.99925    -0.80000  27(v),32(v)
    4. BD ( 1) N  1- H  3       1.99925    -0.80000  22(v),32(v)
    5. BD ( 1) N  1- H  4       1.99925    -0.80000  22(v),27(v)
 ------ non-Lewis ----------------------------------
    6. BD*( 1) N  1- H  2       0.00007     0.74579
    7. BD*( 1) N  1- H  3       0.00007     0.74579
    8. BD*( 1) N  1- H  4       0.00007     0.74579
    9. RY ( 1) N  1             0.00000    35.47572
   10. RY ( 2) N  1             0.00000     2.23221
   11. RY ( 3) N  1             0.00000     0.90261
   12. RY ( 4) N  1             0.00000     5.05896
   13. RY ( 5) N  1             0.00000     0.90261
   14. RY ( 6) N  1             0.00000     5.05896
   15. RY ( 7) N  1             0.00000     0.83468
   16. RY ( 8) N  1             0.00000     4.20575
   17. RY ( 9) N  1             0.00000     3.01879
   18. RY (10) N  1             0.00000     2.47369
   19. RY (11) N  1             0.00000     2.47369
   20. RY (12) N  1             0.00000     3.01879
   21. RY (13) N  1             0.00000     3.12145
   22. RY ( 1) H  2             0.00068     1.37218
   23. RY ( 2) H  2             0.00066     1.87945
   24. RY ( 3) H  2             0.00000     2.07506
   25. RY ( 4) H  2             0.00000     2.67546
   26. RY ( 5) H  2             0.00000     1.61101
   27. RY ( 1) H  3             0.00068     1.37218
   28. RY ( 2) H  3             0.00066     1.87945
   29. RY ( 3) H  3             0.00000     2.07506
   30. RY ( 4) H  3             0.00000     2.67546
   31. RY ( 5) H  3             0.00000     1.61101
   32. RY ( 1) H  4             0.00068     1.37218
   33. RY ( 2) H  4             0.00066     1.87945
   34. RY ( 3) H  4             0.00000     2.07506
   35. RY ( 4) H  4             0.00000     2.67546
   36. RY ( 5) H  4             0.00000     1.61101
          -------------------------------
                 Total Lewis    9.99577  ( 99.9577%)
           Valence non-Lewis    0.00020  (  0.0020%)
           Rydberg non-Lewis    0.00403  (  0.0403%)
          -------------------------------
               Total unit  1   10.00000  (100.0000%)
              Charge unit  1    0.00000

 $CHOOSE
   LONE 1 1 END
   BOND S 1 2 S 1 3 S 1 4 END
 $END

 NBO analysis completed in 0.04 CPU seconds (0 wall seconds)
 Maximum scratch memory used by NBO was 276887 words (2.11 MB)
Stopping NBO...Storing NBOs: NH3‡.nbo

                                *** returned from  NBO  program ***

-------
TIMINGS
-------

Total SCF time: 0 days 0 hours 0 min 4 sec 

Total time                  ....       4.449 sec
Sum of individual times     ....       3.665 sec  ( 82.4%)

Fock matrix formation       ....       2.599 sec  ( 58.4%)
Diagonalization             ....       0.029 sec  (  0.7%)
Density matrix formation    ....       0.065 sec  (  1.5%)
Population analysis         ....       0.214 sec  (  4.8%)
Initial guess               ....       0.241 sec  (  5.4%)
Orbital Transformation      ....       0.000 sec  (  0.0%)
Orbital Orthonormalization  ....       0.000 sec  (  0.0%)
DIIS solution               ....       0.029 sec  (  0.6%)
SOSCF solution              ....       0.118 sec  (  2.6%)


           ************************************************************
           *        Program running with 4 parallel MPI-processes     *
           *              working on a common directory               *
           ************************************************************

------------------------------------------------------------------------------
                                ORCA  MP2 
------------------------------------------------------------------------------

MP2 will be done in the AO integral direct mode
The Q1-step will be done using symmetric double matrices
Dimension of the basis                    ...   36
Memory devoted for MP2                    ...  256 MB   
Memory needed for all in one shot         ...    1 MB
Number of MOs that can be treated together... 1398      
MP2 density construction                  ... relaxed
The MP2 gradient is requested => amplitudes will be stored on disk
Total number of MOs              ...    5
Number of MOs treated per batch  ...    2 
Number of batches necessary      ...    1 
OPERATORS   0/  0 PASS   0
-----------------------------------------------
 MP2 CORRELATION ENERGY   :     -0.216515202 Eh
-----------------------------------------------


---------------------
MP2 DENSITY FORMATION
---------------------

Completing the external part of the density      ... done
Storing the unrelaxed density                    ... done

Calculating G(D)                                 ... done
Completing the Lagrangian                        ... done
Solving the Z-vector equations                   ... 

------------------------------------------------------------------------------
                           ORCA CP-SCF CALCULATION
------------------------------------------------------------------------------

Input orbitals are from        ... NH3‡.gbw
Input Perturbation             ... NH3‡.pin.tmp
Wavefunction output            ... NH3‡.pout.tmp
Perturbation mode              ... Real perturbation (singlet)
Solver                         ... POPLE
Max. number of iterations      ... 128
Convergence tolerance          ... 1.000e-08
Integral handling              ... Direct
Number of perturbations        ... 1
Number of operators            ... 1
Orbital ranges used for CP-SCF:
 Operator 0:  Orbitals   0...  4  to   5... 35
Variables per vector in CP-SCF ... 155
Number of vectors sought       ... 1
     CP-SCF ITERATION   0: 
     CP-SCF ITERATION   1:      0.000012907677
     CP-SCF ITERATION   2:      0.000000322574
     CP-SCF ITERATION   3:      0.000000004020
                                                 ... done
Finalizing the relaxed density                   ... done
Transforming P to the AO basis                   ... done
Storing the relaxed density                      ... done

------------------------------------
ENERGY WEIGHTED DENSITY FINALIZATION
------------------------------------

Gathering the parts of the W-matrix              ...                                                      done
Forming the Z-density                            ... done
Transforming Z to the AO basis                   ... done
Calculating G(Z)                                 ... done
Finalizing the W-matrix                          ...                                                      done
Transforming W to the AO basis and storing       ... done

                *********************************************
                * UNRELAXED MP2 DENSITY POPULATION ANALYSIS *
                *********************************************

------------------------------------------------------------------------------
                           ORCA POPULATION ANALYSIS
------------------------------------------------------------------------------
Input electron density              ... NH3‡.pmp2ur
BaseName (.gbw .S,...)              ... NH3‡

                    ********************************
                    * MULLIKEN POPULATION ANALYSIS *
                    ********************************

-----------------------
MULLIKEN ATOMIC CHARGES
-----------------------
   0 N :   -0.661768
   1 H :    0.220589
   2 H :    0.220589
   3 H :    0.220589
Sum of atomic charges:    0.0000000

--------------------------------
MULLIKEN REDUCED ORBITAL CHARGES
--------------------------------
  0 N s       :     3.423971  s :     3.423971
      pz      :     1.935622  p :     4.201953
      px      :     1.133165
      py      :     1.133165
      dz2     :     0.006447  d :     0.035844
      dxz     :     0.004143
      dyz     :     0.004143
      dx2y2   :     0.010556
      dxy     :     0.010556
  1 H s       :     0.730100  s :     0.730100
      pz      :     0.018783  p :     0.049311
      px      :     0.023318
      py      :     0.007210
  2 H s       :     0.730100  s :     0.730100
      pz      :     0.018783  p :     0.049311
      px      :     0.011237
      py      :     0.019291
  3 H s       :     0.730100  s :     0.730100
      pz      :     0.018783  p :     0.049311
      px      :     0.011237
      py      :     0.019291


                     *******************************
                     * LOEWDIN POPULATION ANALYSIS *
                     *******************************

----------------------
LOEWDIN ATOMIC CHARGES
----------------------
   0 N :   -0.065552
   1 H :    0.021851
   2 H :    0.021851
   3 H :    0.021851

-------------------------------
LOEWDIN REDUCED ORBITAL CHARGES
-------------------------------
  0 N s       :     2.938650  s :     2.938650
      pz      :     1.829483  p :     4.081470
      px      :     1.125993
      py      :     1.125993
      dz2     :     0.006024  d :     0.045433
      dxz     :     0.004023
      dyz     :     0.004023
      dx2y2   :     0.015682
      dxy     :     0.015682
  1 H s       :     0.832631  s :     0.832631
      pz      :     0.054242  p :     0.145518
      px      :     0.073039
      py      :     0.018236
  2 H s       :     0.832631  s :     0.832631
      pz      :     0.054242  p :     0.145518
      px      :     0.031937
      py      :     0.059338
  3 H s       :     0.832631  s :     0.832631
      pz      :     0.054242  p :     0.145518
      px      :     0.031937
      py      :     0.059338


                      *****************************
                      * MAYER POPULATION ANALYSIS *
                      *****************************

  NA   - Mulliken gross atomic population
  ZA   - Total nuclear charge
  QA   - Mulliken gross atomic charge
  VA   - Mayer's total valence
  BVA  - Mayer's bonded valence
  FA   - Mayer's free valence

  ATOM       NA         ZA         QA         VA         BVA        FA
  0 N      7.6618     7.0000    -0.6618     3.0752     2.7682     0.3070
  1 H      0.7794     1.0000     0.2206     0.9681     0.9240     0.0441
  2 H      0.7794     1.0000     0.2206     0.9681     0.9240     0.0441
  3 H      0.7794     1.0000     0.2206     0.9681     0.9240     0.0441

  Mayer bond orders larger than 0.100000
B(  0-N ,  1-H ) :   0.9227 B(  0-N ,  2-H ) :   0.9227 B(  0-N ,  3-H ) :   0.9227 


Now starting NBO....

 *********************************** NBO 7.0 ***********************************
             N A T U R A L   A T O M I C   O R B I T A L   A N D
          N A T U R A L   B O N D   O R B I T A L   A N A L Y S I S
 *********************** Giovanni  F. Caramori (I101916) ***********************
  (c) Copyright 1996-2020 Board of Regents of the University of Wisconsin System
      on behalf of the Theoretical Chemistry Institute.  All rights reserved.

          Cite this program [NBO 7.0.8 (11-Feb-2020)] as:

          NBO 7.0.  E. D. Glendening, J. K. Badenhoop, A. E. Reed,
          J. E. Carpenter, J. A. Bohmann, C. M. Morales, P. Karafiloglou,
          C. R. Landis, and F. Weinhold, Theoretical Chemistry Institute,
          University of Wisconsin, Madison, WI (2018)

       /NPA    / : Natural Population Analysis
       /NBO    / : Natural Bond Orbital Analysis
       /AONBO  / : Checkpoint the AO to NBO transformation
       /ARCHIVE/ : Write the archive file to lfn47

 Job title: ORCA Job: NH3‡.pmp2ur


 NATURAL POPULATIONS:  Natural atomic orbital occupancies

  NAO Atom No lang   Type(AO)    Occupancy
 ------------------------------------------
   1    N  1  s      Cor( 1s)     1.99939
   2    N  1  s      Val( 2s)     1.37015
   3    N  1  s      Ryd( 3s)     0.00429
   4    N  1  s      Ryd( 4s)     0.00023
   5    N  1  px     Val( 2p)     1.33553
   6    N  1  px     Ryd( 3p)     0.00713
   7    N  1  px     Ryd( 4p)     0.00039
   8    N  1  py     Val( 2p)     1.33553
   9    N  1  py     Ryd( 3p)     0.00713
  10    N  1  py     Ryd( 4p)     0.00039
  11    N  1  pz     Val( 2p)     1.96241
  12    N  1  pz     Ryd( 3p)     0.02222
  13    N  1  pz     Ryd( 4p)     0.00077
  14    N  1  dxy    Ryd( 3d)     0.00581
  15    N  1  dxz    Ryd( 3d)     0.00430
  16    N  1  dyz    Ryd( 3d)     0.00430
  17    N  1  dx2y2  Ryd( 3d)     0.00581
  18    N  1  dz2    Ryd( 3d)     0.00513

  19    H  2  s      Val( 1s)     0.63663
  20    H  2  s      Ryd( 2s)     0.00172
  21    H  2  s      Ryd( 3s)     0.00068
  22    H  2  px     Ryd( 2p)     0.00111
  23    H  2  py     Ryd( 2p)     0.00081
  24    H  2  pz     Ryd( 2p)     0.00208

  25    H  3  s      Val( 1s)     0.63663
  26    H  3  s      Ryd( 2s)     0.00172
  27    H  3  s      Ryd( 3s)     0.00068
  28    H  3  px     Ryd( 2p)     0.00088
  29    H  3  py     Ryd( 2p)     0.00103
  30    H  3  pz     Ryd( 2p)     0.00208

  31    H  4  s      Val( 1s)     0.63663
  32    H  4  s      Ryd( 2s)     0.00172
  33    H  4  s      Ryd( 3s)     0.00068
  34    H  4  px     Ryd( 2p)     0.00088
  35    H  4  py     Ryd( 2p)     0.00103
  36    H  4  pz     Ryd( 2p)     0.00208


 Summary of Natural Population Analysis:

                                     Natural Population
             Natural    ---------------------------------------------
  Atom No    Charge        Core      Valence    Rydberg      Total
 --------------------------------------------------------------------
    N  1   -1.07092      1.99939     6.00363    0.06790     8.07092
    H  2    0.35697      0.00000     0.63663    0.00639     0.64303
    H  3    0.35697      0.00000     0.63663    0.00639     0.64303
    H  4    0.35697      0.00000     0.63663    0.00639     0.64303
 ====================================================================
 * Total *  0.00000      1.99939     7.91352    0.08709    10.00000

                                 Natural Population
 ---------------------------------------------------------
   Core                       1.99939 ( 99.9697% of    2)
   Valence                    7.91352 ( 98.9190% of    8)
   Natural Minimal Basis      9.91291 ( 99.1291% of   10)
   Natural Rydberg Basis      0.08709 (  0.8709% of   10)
 ---------------------------------------------------------

    Atom No         Natural Electron Configuration
 ----------------------------------------------------------------------------
      N  1      [core]2s( 1.37)2p( 4.63)3p( 0.04)3d( 0.03)
      H  2            1s( 0.64)
      H  3            1s( 0.64)
      H  4            1s( 0.64)


 NATURAL BOND ORBITAL ANALYSIS:

                            Occupancies       Lewis Structure    Low   High
         Max    Occ     -------------------  -----------------   occ   occ
  Cycle  Ctr   Thresh    Lewis   non-Lewis     CR  BD  nC  LP    (L)   (NL)
 ============================================================================
    1     2     1.90     9.88494   0.11506      1   3   0   1     0      0
 ----------------------------------------------------------------------------

 Structure accepted: No low occupancy Lewis orbitals

 -------------------------------------------------------
   Core                      1.99939 ( 99.970% of   2)
   Valence Lewis             7.88554 ( 98.569% of   8)
  ==================      =============================
   Total Lewis               9.88494 ( 98.849% of  10)
  -----------------------------------------------------
   Valence non-Lewis         0.04543 (  0.454% of  10)
   Rydberg non-Lewis         0.06963 (  0.696% of  10)
  ==================      =============================
   Total non-Lewis           0.11506 (  1.151% of  10)
 -------------------------------------------------------


     (Occupancy)   Bond orbital / Coefficients / Hybrids
 ------------------ Lewis ------------------------------------------------------
   1. (1.99939) CR ( 1) N  1            s(100.00%)
                                         1.0000  0.0000  0.0000  0.0000  0.0000
                                         0.0000  0.0000  0.0000  0.0000  0.0000
                                         0.0000  0.0000  0.0000  0.0000  0.0000
                                         0.0000  0.0000  0.0000
   2. (1.96691) LP ( 1) N  1            s(  0.00%)p 1.00(100.00%)
                                         0.0000  0.0000  0.0000  0.0000  0.0000
                                         0.0000  0.0000  0.0000  0.0000  0.0000
                                         0.9988  0.0472 -0.0088  0.0000  0.0000
                                         0.0000  0.0000  0.0000
   3. (1.97288) BD ( 1) N  1- H  2
               ( 68.22%)   0.8260* N  1 s( 33.29%)p 2.00( 66.51%)d 0.01(  0.20%)
                                         0.0000  0.5770 -0.0007 -0.0001  0.8151
                                        -0.0265  0.0053  0.0000  0.0000  0.0000
                                         0.0000  0.0000  0.0000  0.0000  0.0000
                                         0.0000  0.0395 -0.0207
               ( 31.78%)   0.5637* H  2 s( 99.90%)p 0.00(  0.10%)
                                         0.9995 -0.0023  0.0010 -0.0314  0.0000
                                         0.0000
   4. (1.97288) BD ( 1) N  1- H  3
               ( 68.22%)   0.8260* N  1 s( 33.29%)p 2.00( 66.51%)d 0.01(  0.20%)
                                         0.0000  0.5770 -0.0007 -0.0001 -0.4075
                                         0.0133 -0.0027  0.7059 -0.0230  0.0046
                                         0.0000  0.0000  0.0000 -0.0342  0.0000
                                         0.0000 -0.0198 -0.0207
               ( 31.78%)   0.5637* H  3 s( 99.90%)p 0.00(  0.10%)
                                         0.9995 -0.0023  0.0010  0.0157 -0.0272
                                         0.0000
   5. (1.97288) BD ( 1) N  1- H  4
               ( 68.22%)   0.8260* N  1 s( 33.29%)p 2.00( 66.51%)d 0.01(  0.20%)
                                         0.0000  0.5770 -0.0007 -0.0001 -0.4075
                                         0.0133 -0.0027 -0.7059  0.0230 -0.0046
[...]
FINAL SINGLE POINT ENERGY       -56.417758464674
-------------------------   --------------------

                                *** OPTIMIZATION RUN DONE ***

                            ***************************************
                            *     ORCA property calculations      *
                            ***************************************

                                    ---------------------
                                    Active property flags
                                    ---------------------
   (+) Dipole Moment


------------------------------------------------------------------------------
                       ORCA ELECTRIC PROPERTIES CALCULATION
------------------------------------------------------------------------------

Dipole Moment Calculation                       ... on
Quadrupole Moment Calculation                   ... off
Polarizability Calculation                      ... off
GBWName                                         ... NH3‡.gbw
Electron density file                           ... NH3‡.scfp
The origin for moment calculation is the CENTER OF MASS  = (-0.000000, -0.000000 -0.000000)

-------------
DIPOLE MOMENT
-------------
                                X             Y             Z
Electronic contribution:      0.00000       0.00000      -0.00000
Nuclear contribution   :      0.00000       0.00000       0.00000
                        -----------------------------------------
Total Dipole Moment    :      0.00000       0.00000       0.00000
                        -----------------------------------------
Magnitude (a.u.)       :      0.00000
Magnitude (Debye)      :      0.00000



--------------------
Rotational spectrum 
--------------------
 
Rotational constants in cm-1:    11.239179    11.239179     5.619590 
Rotational constants in MHz : 336942.113396 336942.112668 168471.056516 

 Dipole components along the rotational axes: 
x,y,z [a.u.] :     0.000000     0.000000     0.000000 
x,y,z [Debye]:     0.000000     0.000000     0.000000 

 

                         *** MP2 UNRELAXED DENSITY ***

------------------------------------------------------------------------------
                       ORCA ELECTRIC PROPERTIES CALCULATION
------------------------------------------------------------------------------

Dipole Moment Calculation                       ... on
Quadrupole Moment Calculation                   ... off
Polarizability Calculation                      ... off
GBWName                                         ... NH3‡.gbw
Electron density file                           ... NH3‡.pmp2ur
The origin for moment calculation is the CENTER OF MASS  = (-0.000000, -0.000000 -0.000000)

-------------
DIPOLE MOMENT
-------------
                                X             Y             Z
Electronic contribution:      0.00000       0.00000      -0.00000
Nuclear contribution   :      0.00000       0.00000       0.00000
                        -----------------------------------------
Total Dipole Moment    :      0.00000       0.00000       0.00000
                        -----------------------------------------
Magnitude (a.u.)       :      0.00000
Magnitude (Debye)      :      0.00000



--------------------
Rotational spectrum 
--------------------
 
Rotational constants in cm-1:    11.239179    11.239179     5.619590 
Rotational constants in MHz : 336942.113396 336942.112668 168471.056516 

 Dipole components along the rotational axes: 
x,y,z [a.u.] :     0.000000     0.000000     0.000000 
x,y,z [Debye]:     0.000000     0.000000     0.000000 

 

                           *** MP2 RELAXED DENSITY ***

------------------------------------------------------------------------------
                       ORCA ELECTRIC PROPERTIES CALCULATION
------------------------------------------------------------------------------

Dipole Moment Calculation                       ... on
Quadrupole Moment Calculation                   ... off
Polarizability Calculation                      ... off
GBWName                                         ... NH3‡.gbw
Electron density file                           ... NH3‡.pmp2re
The origin for moment calculation is the CENTER OF MASS  = (-0.000000, -0.000000 -0.000000)

-------------
DIPOLE MOMENT
-------------
                                X             Y             Z
Electronic contribution:      0.00000       0.00000      -0.00000
Nuclear contribution   :      0.00000       0.00000       0.00000
                        -----------------------------------------
Total Dipole Moment    :      0.00000       0.00000       0.00000
                        -----------------------------------------
Magnitude (a.u.)       :      0.00000
Magnitude (Debye)      :      0.00000



--------------------
Rotational spectrum 
--------------------
 
Rotational constants in cm-1:    11.239179    11.239179     5.619590 
Rotational constants in MHz : 336942.113396 336942.112668 168471.056516 

 Dipole components along the rotational axes: 
x,y,z [a.u.] :     0.000000     0.000000     0.000000 
x,y,z [Debye]:     0.000000     0.000000     0.000000 

 
------------------------------------------------------------------------------
                         ORCA MP2 H E S S I A N CALCULATION
------------------------------------------------------------------------------

Calculating analytic MP2 second derivatives ... (>NH3‡.last_mp2) done

-----------------------
VIBRATIONAL FREQUENCIES
-----------------------

Scaling factor for frequencies =  1.000000000  (already applied!)

   0:         0.00 cm**-1
   1:         0.00 cm**-1
   2:         0.00 cm**-1
   3:         0.00 cm**-1
   4:         0.00 cm**-1
   5:         0.00 cm**-1
   6:      -909.47 cm**-1 ***imaginary mode***
   7:      1595.85 cm**-1
   8:      1595.86 cm**-1
   9:      3702.40 cm**-1
  10:      3916.52 cm**-1
  11:      3916.53 cm**-1


------------
NORMAL MODES
------------

These modes are the Cartesian displacements weighted by the diagonal matrix
M(i,i)=1/sqrt(m[i]) where m[i] is the mass of the displaced atom
Thus, these vectors are normalized but *not* orthogonal

                  0          1          2          3          4          5    
      0       0.000000   0.000000   0.000000   0.000000   0.000000   0.000000
      1       0.000000   0.000000   0.000000   0.000000   0.000000   0.000000
      2       0.000000   0.000000   0.000000   0.000000   0.000000   0.000000
      3       0.000000   0.000000   0.000000   0.000000   0.000000   0.000000
      4       0.000000   0.000000   0.000000   0.000000   0.000000   0.000000
      5       0.000000   0.000000   0.000000   0.000000   0.000000   0.000000
      6       0.000000   0.000000   0.000000   0.000000   0.000000   0.000000
      7       0.000000   0.000000   0.000000   0.000000   0.000000   0.000000
      8       0.000000   0.000000   0.000000   0.000000   0.000000   0.000000
      9       0.000000   0.000000   0.000000   0.000000   0.000000   0.000000
     10       0.000000   0.000000   0.000000   0.000000   0.000000   0.000000
     11       0.000000   0.000000   0.000000   0.000000   0.000000   0.000000
                  6          7          8          9         10         11    
      0      -0.000000  -0.000001  -0.080550  -0.000000   0.000001  -0.086268
      1      -0.000000  -0.080550   0.000001  -0.000000  -0.086268  -0.000001
      2       0.123688  -0.000000  -0.000000   0.000000   0.000000   0.000000
      3       0.000000  -0.000001  -0.065033  -0.577350  -0.000006   0.813330
      4       0.000000   0.811241  -0.000012   0.000000  -0.014149  -0.000000
      5      -0.572917   0.000000   0.000000  -0.000000  -0.000000   0.000000
      6      -0.000000   0.379447   0.592167   0.288675  -0.358310   0.192715
      7       0.000000   0.154039   0.379435  -0.500000   0.606462  -0.358306
      8      -0.572917   0.000000  -0.000000  -0.000000   0.000000  -0.000000
      9      -0.000000  -0.379430   0.592178   0.288675   0.358307   0.192720
     10      -0.000000   0.154028  -0.379439   0.500000   0.606457   0.358314
     11      -0.572917  -0.000000  -0.000000  -0.000000  -0.000000  -0.000000


-----------
IR SPECTRUM
-----------

 Mode    freq (cm**-1)   T**2         TX         TY         TZ
-------------------------------------------------------------------
   7:      1595.85   37.521622  (  0.000087   6.125490   0.000000)
   8:      1595.86   37.515379  (  6.124980  -0.000087   0.000000)
   9:      3702.40    0.000000  (  0.000247  -0.000000  -0.000000)
  10:      3916.52   40.718003  ( -0.000044   6.381066   0.000000)
  11:      3916.53   40.718682  (  6.381119   0.000044   0.000000)

The first frequency considered to be a vibration is 7
The total number of vibrations considered is 5


--------------------------
THERMOCHEMISTRY AT 298.15K
--------------------------

Temperature         ... 298.15 K
Pressure            ... 1.00 atm
Total Mass          ... 17.03 AMU

Throughout the following assumptions are being made:
  (1) The electronic state is orbitally nondegenerate
  (2) There are no thermally accessible electronically excited states
  (3) Hindered rotations indicated by low frequency modes are not
      treated as such but are treated as vibrations and this may
      cause some error
  (4) All equations used are the standard statistical mechanics
      equations for an ideal gas
  (5) All vibrations are strictly harmonic

freq.    1595.85  E(vib)   ...       0.00 
freq.    1595.86  E(vib)   ...       0.00 
freq.    3702.40  E(vib)   ...       0.00 
freq.    3916.52  E(vib)   ...       0.00 
freq.    3916.53  E(vib)   ...       0.00 

------------
INNER ENERGY
------------

The inner energy is: U= E(el) + E(ZPE) + E(vib) + E(rot) + E(trans)
    E(el)   - is the total energy from the electronic structure calculation
              = E(kin-el) + E(nuc-el) + E(el-el) + E(nuc-nuc)
    E(ZPE)  - the the zero temperature vibrational energy from the frequency calculation
    E(vib)  - the the finite temperature correction to E(ZPE) due to population
              of excited vibrational states
    E(rot)  - is the rotational thermal energy
    E(trans)- is the translational thermal energy

Summary of contributions to the inner energy U:
Electronic energy                ...    -56.41775846 Eh
Zero point energy                ...      0.03355095 Eh      21.05 kcal/mol
Thermal vibrational correction   ...      0.00000658 Eh       0.00 kcal/mol
Thermal rotational correction    ...      0.00141627 Eh       0.89 kcal/mol
Thermal translational correction ...      0.00141627 Eh       0.89 kcal/mol
-----------------------------------------------------------------------
Total thermal energy                    -56.38136839 Eh


Summary of corrections to the electronic energy:
(perhaps to be used in another calculation)
Total thermal correction                  0.00283913 Eh       1.78 kcal/mol
Non-thermal (ZPE) correction              0.03355095 Eh      21.05 kcal/mol
-----------------------------------------------------------------------
Total correction                          0.03639007 Eh      22.84 kcal/mol


--------
ENTHALPY
--------

The enthalpy is H = U + kB*T
                kB is Boltzmann's constant
Total free energy                 ...    -56.38136839 Eh 
Thermal Enthalpy correction       ...      0.00094421 Eh       0.59 kcal/mol
-----------------------------------------------------------------------
Total Enthalpy                    ...    -56.38042418 Eh


Note: Rotational entropy computed according to Herzberg 
Infrared and Raman Spectra, Chapter V,1, Van Nostrand Reinhold, 1945 
Point Group:  D3h, Symmetry Number:   6  
Rotational constants in cm-1:    11.239179    11.239179     5.619590 

Vibrational entropy computed according to the QRRHO of S. Grimme
Chem.Eur.J. 2012 18 9955


-------
ENTROPY
-------

The entropy contributions are T*S = T*(S(el)+S(vib)+S(rot)+S(trans))
     S(el)   - electronic entropy
     S(vib)  - vibrational entropy
     S(rot)  - rotational entropy
     S(trans)- translational entropy
The entropies will be listed as mutliplied by the temperature to get
units of energy

Electronic entropy                ...      0.00000000 Eh      0.00 kcal/mol
Vibrational entropy               ...      0.00000744 Eh      0.00 kcal/mol
Rotational entropy                ...      0.00471976 Eh      2.96 kcal/mol
Translational entropy             ...      0.01636425 Eh     10.27 kcal/mol
-----------------------------------------------------------------------
Final entropy term                ...      0.02109145 Eh     13.24 kcal/mol

In case the symmetry of your molecule has not been determined correctly
or in case you have a reason to use a different symmetry number we print 
out the resulting rotational entropy values for sn=1,12 :
 --------------------------------------------------------
|  sn= 1 | S(rot)=       0.00641150 Eh      4.02 kcal/mol|
|  sn= 2 | S(rot)=       0.00575705 Eh      3.61 kcal/mol|
|  sn= 3 | S(rot)=       0.00537421 Eh      3.37 kcal/mol|
|  sn= 4 | S(rot)=       0.00510259 Eh      3.20 kcal/mol|
|  sn= 5 | S(rot)=       0.00489190 Eh      3.07 kcal/mol|
|  sn= 6 | S(rot)=       0.00471976 Eh      2.96 kcal/mol|
|  sn= 7 | S(rot)=       0.00457421 Eh      2.87 kcal/mol|
|  sn= 8 | S(rot)=       0.00444813 Eh      2.79 kcal/mol|
|  sn= 9 | S(rot)=       0.00433693 Eh      2.72 kcal/mol|
|  sn=10 | S(rot)=       0.00423745 Eh      2.66 kcal/mol|
|  sn=11 | S(rot)=       0.00414746 Eh      2.60 kcal/mol|
|  sn=12 | S(rot)=       0.00406530 Eh      2.55 kcal/mol|
 --------------------------------------------------------


-------------------
GIBBS FREE ENERGY
-------------------

The Gibbs free energy is G = H - T*S

Total enthalpy                    ...    -56.38042418 Eh 
Total entropy correction          ...     -0.02109145 Eh    -13.24 kcal/mol
-----------------------------------------------------------------------
Final Gibbs free energy         ...    -56.40151563 Eh

For completeness - the Gibbs free energy minus the electronic energy
G-E(el)                           ...      0.01624283 Eh     10.19 kcal/mol




------------------------------------------------------------------------------- 
                    Intrinsic Reaction Coordinate Calculation                  
------------------------------------------------------------------------------- 

System:
Nr. of atoms                        .... 4
Algorithm: SD (steepest descent step) plus correction
Settings:
Max. no of cycles        MaxIter    .... 1000
Direction                           .... Forward and backward
Initial displacement Hessian type   .... Read
Hessian Filename                    .... NH3‡.hess
Following Hessian mode              .... 0
Initial displacement type           .... Energy
  Initial displacement energy change.... 0.250 mEh
Coordinate system following type    .... Cartesian
Length of steepest descent step     .... 0.150 bohr
Do parabolic fit 
  if SD step is uphill              .... YES
Do Correction to SD step            .... YES
Scaling for length of correction
  compared to SD step               .... 0.333
Do parabolic fit to SD correction   .... YES
Only interpolate for parabolic fit  .... YES
Do update to length of
  SD step and correction            .... YES
Convergence Tolerances:
  Max. Gradient            TolMAXG  ....  1.0000e-03 Eh/bohr
  RMS Gradient             TolRMSG  ....  2.0000e-04 Eh/bohr
Storing full IRC trajectory in      .... NH3‡_IRC_Full_trj.xyz
Storing forward trajectory in       .... NH3‡_IRC_F_trj.xyz
Storing backward trajectory in      .... NH3‡_IRC_B_trj.xyz


 ...good, the file NH3‡.hess exists
Reading the hessian file           ...... done
Determining length of initial displacement:
  Requested energy change (quadratic behavior): 0.250 mEh
  Resulting scaling factor for initial displacement along normalized TS mode: 0.1150

         *************************************************************
         *                          FORWARD IRC                      *
         *************************************************************

Iteration    E(Eh)      dE(kcal/mol)  max(|G|)   RMS(G) 
Convergence thresholds                0.001000  0.000200            
    0       -56.418005   -0.154784    0.006074  0.002060
    1       -56.421695   -2.470140    0.014815  0.007975
    2       -56.424777   -4.404442    0.017288  0.006165
    3       -56.427222   -5.938718    0.007482  0.003986
    4       -56.427604   -6.177964    0.004606  0.002521
    5       -56.427870   -6.345001    0.000974  0.000359
    6       -56.427874   -6.347392    0.000907  0.000435
    7       -56.427875   -6.348097    0.000622  0.000271
    8       -56.427875   -6.348441    0.000406  0.000162

                      ***********************HURRAY********************
                      ***            THE IRC HAS CONVERGED          ***
                      *************************************************


         *************************************************************
         *                          BACKWARD IRC                     *
         *************************************************************

Iteration    E(Eh)      dE(kcal/mol)  max(|G|)   RMS(G) 
Convergence thresholds                0.001000  0.000200            
    0       -56.418005   -0.154785    0.006074  0.002060
    1       -56.421695   -2.470141    0.014815  0.007975
    2       -56.424777   -4.404443    0.017288  0.006165
    3       -56.427222   -5.938718    0.007482  0.003986
    4       -56.427604   -6.177964    0.004606  0.002521
    5       -56.427870   -6.345001    0.000974  0.000359
    6       -56.427874   -6.347391    0.000907  0.000436
    7       -56.427875   -6.348097    0.000622  0.000271
    8       -56.427875   -6.348441    0.000406  0.000162

                      ***********************HURRAY********************
                      ***            THE IRC HAS CONVERGED          ***
                      *************************************************


---------------------------------------------------------------
                       IRC PATH SUMMARY              
---------------------------------------------------------------
All gradients are in Eh/Bohr.

Step        E(Eh)      dE(kcal/mol)  max(|G|)   RMS(G) 
   1       -56.427875   -6.348441    0.000406  0.000162
   2       -56.427875   -6.348097    0.000622  0.000271
   3       -56.427874   -6.347391    0.000907  0.000436
   4       -56.427870   -6.345001    0.000974  0.000359
   5       -56.427604   -6.177964    0.004606  0.002521
   6       -56.427222   -5.938718    0.007482  0.003986
   7       -56.424777   -4.404443    0.017288  0.006165
   8       -56.421695   -2.470141    0.014815  0.007975
   9       -56.418005   -0.154785    0.006074  0.002060
  10       -56.417758    0.000000    0.000026  0.000013 <= TS
  11       -56.418005   -0.154784    0.006074  0.002060
  12       -56.421695   -2.470140    0.014815  0.007975
  13       -56.424777   -4.404442    0.017288  0.006165
  14       -56.427222   -5.938718    0.007482  0.003986
  15       -56.427604   -6.177964    0.004606  0.002521
  16       -56.427870   -6.345001    0.000974  0.000359
  17       -56.427874   -6.347392    0.000907  0.000435
  18       -56.427875   -6.348097    0.000622  0.000271
  19       -56.427875   -6.348441    0.000406  0.000162

Timings for individual modules:

Sum of individual times         ...      606.905 sec (=  10.115 min)
GTO integral calculation        ...       89.773 sec (=   1.496 min)  14.8 %
SCF iterations                  ...      271.539 sec (=   4.526 min)  44.7 %
MP2 module                      ...      228.497 sec (=   3.808 min)  37.6 %
Geometry relaxation             ...        0.189 sec (=   0.003 min)   0.0 %
Analytical frequency calculation...       16.907 sec (=   0.282 min)   2.8 %
                             ****ORCA TERMINATED NORMALLY****
TOTAL RUN TIME: 0 days 0 hours 10 minutes 8 seconds 560 msec
