
                                 *****************
                                 * O   R   C   A *
                                 *****************

           --- An Ab Initio, DFT and Semiempirical electronic structure package ---

                  #######################################################
                  #                        -***-                        #
                  #          Department of theory and spectroscopy      #
                  #               Directorship: Frank Neese             #
                  #        Max Planck Institute fuer Kohlenforschung    #
                  #                Kaiser Wilhelm Platz 1               #
                  #                 D-45470 Muelheim/Ruhr               #
                  #                      Germany                        #
                  #                                                     #
                  #                  All rights reserved                #
                  #                        -***-                        #
                  #######################################################


                         Program Version 4.2.1 -  RELEASE  -


 With contributions from (in alphabetic order):
   Daniel Aravena         : Magnetic Suceptibility
   Michael Atanasov       : Ab Initio Ligand Field Theory (pilot matlab implementation)
   Alexander A. Auer      : GIAO ZORA, VPT2
   Ute Becker             : Parallelization
   Giovanni Bistoni       : ED, misc. LED, open-shell LED, HFLD
   Martin Brehm           : Molecular dynamics
   Dmytro Bykov           : SCF Hessian
   Vijay G. Chilkuri      : MRCI spin determinant printing, contributions to CSF-ICE
   Dipayan Datta          : RHF DLPNO-CCSD density
   Achintya Kumar Dutta   : EOM-CC, STEOM-CC
   Dmitry Ganyushin       : Spin-Orbit,Spin-Spin,Magnetic field MRCI
   Miquel Garcia          : C-PCM Hessian, Gaussian charge scheme
   Yang Guo               : DLPNO-NEVPT2, CIM, IAO-localization
   Andreas Hansen         : Spin unrestricted coupled pair/coupled cluster methods
   Benjamin Helmich-Paris : CASSCF linear response (MC-RPA)
   Lee Huntington         : MR-EOM, pCC
   Robert Izsak           : Overlap fitted RIJCOSX, COSX-SCS-MP3, EOM
   Christian Kollmar      : KDIIS, OOCD, Brueckner-CCSD(T), CCSD density
   Simone Kossmann        : Meta GGA functionals, TD-DFT gradient, OOMP2, MP2 Hessian
   Martin Krupicka        : AUTO-CI
   Lucas Lang             : DCDCAS
   Dagmar Lenk            : GEPOL surface, SMD
   Dimitrios Liakos       : Extrapolation schemes; Compound Job, initial MDCI parallelization
   Dimitrios Manganas     : Further ROCIS development; embedding schemes
   Dimitrios Pantazis     : SARC Basis sets
   Taras Petrenko         : DFT Hessian,TD-DFT gradient, ASA, ECA, R-Raman, ABS, FL, XAS/XES, NRVS
   Peter Pinski           : DLPNO-MP2, DLPNO-MP2 Gradient
   Christoph Reimann      : Effective Core Potentials
   Marius Retegan         : Local ZFS, SOC
   Christoph Riplinger    : Optimizer, TS searches, QM/MM, DLPNO-CCSD(T), (RO)-DLPNO pert. Triples
   Tobias Risthaus        : Range-separated hybrids, TD-DFT gradient, RPA, STAB
   Michael Roemelt        : Original ROCIS implementation
   Masaaki Saitow         : Open-shell DLPNO-CCSD energy and density
   Barbara Sandhoefer     : DKH picture change effects
   Avijit Sen             : IP-ROCIS
   Kantharuban Sivalingam : CASSCF convergence, NEVPT2, FIC-MRCI
   Bernardo de Souza      : ESD, SOC TD-DFT
   Georgi Stoychev        : AutoAux, RI-MP2 NMR
   Willem Van den Heuvel  : Paramagnetic NMR
   Boris Wezisla          : Elementary symmetry handling
   Frank Wennmohs         : Technical directorship


 We gratefully acknowledge several colleagues who have allowed us to
 interface, adapt or use parts of their codes:
   Stefan Grimme, W. Hujo, H. Kruse,             : VdW corrections, initial TS optimization,
                  C. Bannwarth                     DFT functionals, gCP, sTDA/sTD-DF
   Ed Valeev, F. Pavosevic, A. Kumar             : LibInt (2-el integral package), F12 methods
   Garnet Chan, S. Sharma, J. Yang, R. Olivares  : DMRG
   Ulf Ekstrom                                   : XCFun DFT Library
   Mihaly Kallay                                 : mrcc  (arbitrary order and MRCC methods)
   Andreas Klamt, Michael Diedenhofen            : otool_cosmo (COSMO solvation model)
   Jiri Pittner, Ondrej Demel                    : Mk-CCSD
   Frank Weinhold                                : gennbo (NPA and NBO analysis)
   Christopher J. Cramer and Donald G. Truhlar   : smd solvation model
   Lars Goerigk                                  : TD-DFT with DH, B97 family of functionals
   V. Asgeirsson, H. Jonsson                     : NEB implementation
   FAccTs GmbH                                   : IRC, NEB, NEB-TS, Multilevel, MM, QM/MM, CI optimization
   S Lehtola, MJT Oliveira, MAL Marques          : LibXC Library


 Your calculation uses the libint2 library for the computation of 2-el integrals
 For citations please refer to: http://libint.valeyev.net

 Your ORCA version has been built with support for libXC version: 4.2.3
 For citations please refer to: https://tddft.org/programs/libxc/

 This ORCA versions uses:
   CBLAS   interface :  Fast vector & matrix operations
   LAPACKE interface :  Fast linear algebra routines
   SCALAPACK package :  Parallel linear algebra routines




***************************************
The coordinates will be read from file: init.xyz
***************************************


----- Orbital basis set information -----
Your calculation utilizes the basis: cc-pVTZ 
       H, B-Ne : Obtained from the ccRepo (grant-hill.group.shef.ac.uk/ccrepo) Feb. 2017
                 T. H. Dunning, Jr., J. Chem. Phys. 90, 1007 (1989)
            He : Obtained from the ccRepo (grant-hill.group.shef.ac.uk/ccrepo) Feb. 2017
                 D. E. Woon, T. H. Dunning, Jr., J. Chem. Phys. 100, 2975 (1994)
  Li-Be, Na-Mg : Obtained from the ccRepo (grant-hill.group.shef.ac.uk/ccrepo) Feb. 2017
                 B. P. Prascher, D. E. Woon, K. A. Peterson, T. H. Dunning, Jr., A. K. Wilson, Theor. Chem. Acc. 128, 69 (2011)
         Al-Ar : Obtained from the ccRepo (grant-hill.group.shef.ac.uk/ccrepo) Feb. 2017
                 D. E. Woon, T. H. Dunning, Jr., J. Chem. Phys. 98, 1358 (1993)
            Ca : Obtained from the Peterson Research Group Website (tyr0.chem.wsu.edu/~kipeters) Feb. 2017
                 J. Koput, K. A. Peterson, J. Phys. Chem. 106, 9595 (2002)
         Sc-Zn : Obtained from the ccRepo (grant-hill.group.shef.ac.uk/ccrepo) Feb. 2017
                 N. B. Balabanov, K. A. Peterson, J. Chem. Phys. 123, 064107 (2005)
                 N. B. Balabanov, K. A. Peterson, J. Chem. Phys. 125, 074110 (2006)
         Ga-Kr : Obtained from the ccRepo (grant-hill.group.shef.ac.uk/ccrepo) Feb. 2017
                 A. K. Wilson, D. E. Woon, K. A. Peterson, T. H. Dunning, Jr., J. Chem. Phys. 110, 7667 (1999)
             Y : Obtained from the ccRepo (grant-hill.group.shef.ac.uk/ccrepo) Feb. 2017
                 K. A. Peterson, D. Figgen, M. Dolg, H. Stoll, J. Chem. Phys. 126, 124101 (2007)
        Ag, Au : Obtained from the Peterson Research Group Website (tyr0.chem.wsu.edu/~kipeters) Feb. 2017
                 K. A. Peterson, C. Puzzarini, Theor. Chem. Acc. 114, 283 (2005)

----- AuxJ basis set information -----
Your calculation utilizes the AutoAux generation procedure.
  G. L. Stoychev, A. A. Auer, F. Neese, J. Chem. Theory Comput. 13, 554 (2017)

----- AuxC basis set information -----
Your calculation utilizes the AutoAux generation procedure.
  G. L. Stoychev, A. A. Auer, F. Neese, J. Chem. Theory Comput. 13, 554 (2017)

----- AuxJK basis set information -----
Your calculation utilizes the AutoAux generation procedure.
  G. L. Stoychev, A. A. Auer, F. Neese, J. Chem. Theory Comput. 13, 554 (2017)

================================================================================
                                        WARNINGS
                       Please study these warnings very carefully!
================================================================================


WARNING: MDCI localization with Augmented Hessian Foster-Boys
  ===> : Switching off randomization!

WARNING: Post HF methods need fully converged wavefunctions
  ===> : Setting SCFConvForced true
         You can overwrite this default with %scf ConvForced false 


INFO   : the flag for use of LIBINT has been found!

================================================================================
                                       INPUT FILE
================================================================================
NAME = neon.inp
|  1> ! DLPNO-CCSD(T) cc-pVTZ RIJCOSX AutoAux TightSCF Grid4 FinalGrid5 PrintBasis PrintMOs
|  2> %maxcore 1150
|  3> 
|  4> * xyzfile 0 1 init.xyz
|  5> 
|  6>                          ****END OF INPUT****
================================================================================

                       ****************************
                       * Single Point Calculation *
                       ****************************

---------------------------------
CARTESIAN COORDINATES (ANGSTROEM)
---------------------------------
  Ne     0.000000    0.000000    0.000000

----------------------------
CARTESIAN COORDINATES (A.U.)
----------------------------
  NO LB      ZA    FRAG     MASS         X           Y           Z
   0 Ne   10.0000    0    20.179    0.000000    0.000000    0.000000

--------------------------------
INTERNAL COORDINATES (ANGSTROEM)
--------------------------------
 Ne     0   0   0     0.000000000000     0.00000000     0.00000000

---------------------------
INTERNAL COORDINATES (A.U.)
---------------------------
 Ne     0   0   0     0.000000000000     0.00000000     0.00000000

---------------------
BASIS SET INFORMATION
---------------------
There are 1 groups of distinct atoms

 Group   1 Type Ne  : 18s5p2d1f contracted to 4s3p2d1f pattern {8811/311/11/1}

Atom   0Ne   basis set group =>   1

-------------------------
BASIS SET IN INPUT FORMAT
-------------------------

 # Basis set for element : Ne
 NewGTO Ne
 S 8 
   1   24350.0000000000      0.0005145060
   2    3650.0000000000      0.0039776845
   3     829.6000000000      0.0204951706
   4     234.0000000000      0.0803715702
   5      75.6100000000      0.2353977500
   6      26.7300000000      0.4435020864
   7       9.9270000000      0.3593772874
   8       1.1020000000     -0.0078354543
 S 8 
   1   24350.0000000000     -0.0002006849
   2    3650.0000000000     -0.0015561583
   3     829.6000000000     -0.0080563080
   4     234.0000000000     -0.0327099371
   5      75.6100000000     -0.1026707322
   6      26.7300000000     -0.2423661267
   7       9.9270000000     -0.3022348526
   8       1.1020000000      1.0303570659
 S 1 
   1       2.8360000000      1.0000000000
 S 1 
   1       0.3782000000      1.0000000000
 P 3 
   1      54.7000000000      0.0423670170
   2      12.4300000000      0.2659357231
   3       3.6790000000      0.7946279757
 P 1 
   1       1.1430000000      1.0000000000
 P 1 
   1       0.3300000000      1.0000000000
 D 1 
   1       4.0140000000      1.0000000000
 D 1 
   1       1.0960000000      1.0000000000
 F 1 
   1       2.5440000000      1.0000000000
  end;

---------------------------------
AUXILIARY/J BASIS SET INFORMATION
---------------------------------
There are 1 groups of distinct atoms

 Group   1 Type Ne  : 14s11p10d5f3g contracted to 14s11p10d5f3g pattern {11111111111111/11111111111/1111111111/11111/111}

Atom   0Ne   basis set group =>   1

-------------------------------------
AUXILIARY/J BASIS SET IN INPUT FORMAT
-------------------------------------

 # Auxiliary/J basis set for element : Ne
 NewAuxJGTO Ne
 S 1 
   1    1374.3156811343      1.0000000000
 S 1 
   1     763.5087117413      1.0000000000
 S 1 
   1     424.1715065229      1.0000000000
 S 1 
   1     235.6508369572      1.0000000000
 S 1 
   1     130.9171316429      1.0000000000
 S 1 
   1      72.7317398016      1.0000000000
 S 1 
   1      40.4065221120      1.0000000000
 S 1 
   1      22.4480678400      1.0000000000
 S 1 
   1      12.4711488000      1.0000000000
 S 1 
   1       6.9284160000      1.0000000000
 S 1 
   1       3.8491200000      1.0000000000
 S 1 
   1       2.1384000000      1.0000000000
 S 1 
   1       1.1880000000      1.0000000000
 S 1 
   1       0.6600000000      1.0000000000
 P 1 
   1     235.6508369572      1.0000000000
 P 1 
   1     130.9171316429      1.0000000000
 P 1 
   1      72.7317398016      1.0000000000
 P 1 
   1      40.4065221120      1.0000000000
 P 1 
   1      22.4480678400      1.0000000000
 P 1 
   1      12.4711488000      1.0000000000
 P 1 
   1       6.9284160000      1.0000000000
 P 1 
   1       3.8491200000      1.0000000000
 P 1 
   1       2.1384000000      1.0000000000
 P 1 
   1       1.1880000000      1.0000000000
 P 1 
   1       0.6600000000      1.0000000000
 D 1 
   1     130.9171316429      1.0000000000
 D 1 
   1      72.7317398016      1.0000000000
 D 1 
   1      40.4065221120      1.0000000000
 D 1 
   1      22.4480678400      1.0000000000
 D 1 
   1      12.4711488000      1.0000000000
 D 1 
   1       6.9284160000      1.0000000000
 D 1 
   1       3.8491200000      1.0000000000
 D 1 
   1       2.1384000000      1.0000000000
 D 1 
   1       1.1880000000      1.0000000000
 D 1 
   1       0.6600000000      1.0000000000
 F 1 
   1      33.4049056000      1.0000000000
 F 1 
   1      15.1840480000      1.0000000000
 F 1 
   1       6.9018400000      1.0000000000
 F 1 
   1       3.1372000000      1.0000000000
 F 1 
   1       1.4260000000      1.0000000000
 G 1 
   1      10.6092800000      1.0000000000
 G 1 
   1       4.8224000000      1.0000000000
 G 1 
   1       2.1920000000      1.0000000000
  end;

---------------------------------
AUXILIARY/C BASIS SET INFORMATION
---------------------------------
There are 1 groups of distinct atoms

 Group   1 Type Ne  : 14s11p10d5f3g contracted to 14s11p10d5f3g pattern {11111111111111/11111111111/1111111111/11111/111}

Atom   0Ne   basis set group =>   1

-------------------------------------
AUXILIARY/C BASIS SET IN INPUT FORMAT
-------------------------------------

 # Auxiliary/C basis set for element : Ne
 NewAuxCGTO Ne
 S 1 
   1    1374.3156811343      1.0000000000
 S 1 
   1     763.5087117413      1.0000000000
 S 1 
   1     424.1715065229      1.0000000000
 S 1 
   1     235.6508369572      1.0000000000
 S 1 
   1     130.9171316429      1.0000000000
 S 1 
   1      72.7317398016      1.0000000000
 S 1 
   1      40.4065221120      1.0000000000
 S 1 
   1      22.4480678400      1.0000000000
 S 1 
   1      12.4711488000      1.0000000000
 S 1 
   1       6.9284160000      1.0000000000
 S 1 
   1       3.8491200000      1.0000000000
 S 1 
   1       2.1384000000      1.0000000000
 S 1 
   1       1.1880000000      1.0000000000
 S 1 
   1       0.6600000000      1.0000000000
 P 1 
   1     235.6508369572      1.0000000000
 P 1 
   1     130.9171316429      1.0000000000
 P 1 
   1      72.7317398016      1.0000000000
 P 1 
   1      40.4065221120      1.0000000000
 P 1 
   1      22.4480678400      1.0000000000
 P 1 
   1      12.4711488000      1.0000000000
 P 1 
   1       6.9284160000      1.0000000000
 P 1 
   1       3.8491200000      1.0000000000
 P 1 
   1       2.1384000000      1.0000000000
 P 1 
   1       1.1880000000      1.0000000000
 P 1 
   1       0.6600000000      1.0000000000
 D 1 
   1     130.9171316429      1.0000000000
 D 1 
   1      72.7317398016      1.0000000000
 D 1 
   1      40.4065221120      1.0000000000
 D 1 
   1      22.4480678400      1.0000000000
 D 1 
   1      12.4711488000      1.0000000000
 D 1 
   1       6.9284160000      1.0000000000
 D 1 
   1       3.8491200000      1.0000000000
 D 1 
   1       2.1384000000      1.0000000000
 D 1 
   1       1.1880000000      1.0000000000
 D 1 
   1       0.6600000000      1.0000000000
 F 1 
   1      33.4049056000      1.0000000000
 F 1 
   1      15.1840480000      1.0000000000
 F 1 
   1       6.9018400000      1.0000000000
 F 1 
   1       3.1372000000      1.0000000000
 F 1 
   1       1.4260000000      1.0000000000
 G 1 
   1      10.6092800000      1.0000000000
 G 1 
   1       4.8224000000      1.0000000000
 G 1 
   1       2.1920000000      1.0000000000
  end;

----------------------------------
AUXILIARY/JK BASIS SET INFORMATION
----------------------------------
There are 1 groups of distinct atoms

 Group   1 Type Ne  : 14s11p10d5f3g contracted to 14s11p10d5f3g pattern {11111111111111/11111111111/1111111111/11111/111}

Atom   0Ne   basis set group =>   1

--------------------------------------
AUXILIARY/JK BASIS SET IN INPUT FORMAT
--------------------------------------

 # Auxiliary/JK basis set for element : Ne
 NewAuxJKGTO Ne
 S 1 
   1    1374.3156811343      1.0000000000
 S 1 
   1     763.5087117413      1.0000000000
 S 1 
   1     424.1715065229      1.0000000000
 S 1 
   1     235.6508369572      1.0000000000
 S 1 
   1     130.9171316429      1.0000000000
 S 1 
   1      72.7317398016      1.0000000000
 S 1 
   1      40.4065221120      1.0000000000
 S 1 
   1      22.4480678400      1.0000000000
 S 1 
   1      12.4711488000      1.0000000000
 S 1 
   1       6.9284160000      1.0000000000
 S 1 
   1       3.8491200000      1.0000000000
 S 1 
   1       2.1384000000      1.0000000000
 S 1 
   1       1.1880000000      1.0000000000
 S 1 
   1       0.6600000000      1.0000000000
 P 1 
   1     235.6508369572      1.0000000000
 P 1 
   1     130.9171316429      1.0000000000
 P 1 
   1      72.7317398016      1.0000000000
 P 1 
   1      40.4065221120      1.0000000000
 P 1 
   1      22.4480678400      1.0000000000
 P 1 
   1      12.4711488000      1.0000000000
 P 1 
   1       6.9284160000      1.0000000000
 P 1 
   1       3.8491200000      1.0000000000
 P 1 
   1       2.1384000000      1.0000000000
 P 1 
   1       1.1880000000      1.0000000000
 P 1 
   1       0.6600000000      1.0000000000
 D 1 
   1     130.9171316429      1.0000000000
 D 1 
   1      72.7317398016      1.0000000000
 D 1 
   1      40.4065221120      1.0000000000
 D 1 
   1      22.4480678400      1.0000000000
 D 1 
   1      12.4711488000      1.0000000000
 D 1 
   1       6.9284160000      1.0000000000
 D 1 
   1       3.8491200000      1.0000000000
 D 1 
   1       2.1384000000      1.0000000000
 D 1 
   1       1.1880000000      1.0000000000
 D 1 
   1       0.6600000000      1.0000000000
 F 1 
   1      33.4049056000      1.0000000000
 F 1 
   1      15.1840480000      1.0000000000
 F 1 
   1       6.9018400000      1.0000000000
 F 1 
   1       3.1372000000      1.0000000000
 F 1 
   1       1.4260000000      1.0000000000
 G 1 
   1      10.6092800000      1.0000000000
 G 1 
   1       4.8224000000      1.0000000000
 G 1 
   1       2.1920000000      1.0000000000
  end;

------------------------------------------------------------------------------
                           ORCA GTO INTEGRAL CALCULATION
                           -- RI-GTO INTEGRALS CHOSEN --
------------------------------------------------------------------------------

                         BASIS SET STATISTICS AND STARTUP INFO

Gaussian basis set:
 # of primitive gaussian shells          ...   26
 # of primitive gaussian functions       ...   50
 # of contracted shells                  ...   10
 # of contracted basis functions         ...   30
 Highest angular momentum                ...    3
 Maximum contraction depth               ...    8
Auxiliary gaussian basis set:
 # of primitive gaussian shells          ...   43
 # of primitive gaussian functions       ...  159
 # of contracted shells                  ...   43
 # of contracted aux-basis functions     ...  159
 Highest angular momentum                ...    4
 Maximum contraction depth               ...    1
Ratio of auxiliary to basis functions    ...  5.30
Integral package used                  ... LIBINT
 One Electron integrals                  ... done
 Ordering auxiliary basis shells         ... done
 Integral threshhold             Thresh  ...  2.500e-11
 Primitive cut-off               TCut    ...  2.500e-12
 Pre-screening matrix                    ... done
 Shell pair data                         ... 
 Ordering of the shell pairs             ... done (   0.000 sec) 55 of 55 pairs
 Determination of significant pairs      ... done (   0.000 sec)
 Creation of shell pair data             ... done (   0.000 sec)
 Storage of shell pair data              ... done (   0.000 sec)
 Shell pair data done in (   0.000 sec)
 Computing two index integrals           ... done
 Cholesky decomposition of the V-matrix  ... done


Timings:
 Total evaluation time                   ...   0.073 sec (  0.001 min)
 One electron matrix time                ...   0.002 sec (  0.000 min) =  3.1%
 Schwartz matrix evaluation time         ...   0.051 sec (  0.001 min) = 70.1%
 Two index repulsion integral time       ...   0.000 sec (  0.000 min) =  0.5%
 Cholesky decomposition of V             ...   0.001 sec (  0.000 min) =  1.0%
 Three index repulsion integral time     ...   0.000 sec (  0.000 min) =  0.0%

-------------------------------------------------------------------------------
                                 ORCA SCF
-------------------------------------------------------------------------------

------------
SCF SETTINGS
------------
Hamiltonian:
 Ab initio Hamiltonian  Method          .... Hartree-Fock(GTOs)
 RI-approximation to the Coulomb term is turned on
   Number of auxiliary basis functions  .... 159
   RIJ-COSX (HFX calculated with COS-X)).... on


General Settings:
 Integral files         IntName         .... neon
 Hartree-Fock type      HFTyp           .... RHF
 Total Charge           Charge          ....    0
 Multiplicity           Mult            ....    1
 Number of Electrons    NEL             ....   10
 Basis Dimension        Dim             ....   30
 Nuclear Repulsion      ENuc            ....      0.0000000000 Eh

Convergence Acceleration:
 DIIS                   CNVDIIS         .... on
   Start iteration      DIISMaxIt       ....    12
   Startup error        DIISStart       ....  0.200000
   # of expansion vecs  DIISMaxEq       ....     5
   Bias factor          DIISBfac        ....   1.050
   Max. coefficient     DIISMaxC        ....  10.000
 Newton-Raphson         CNVNR           .... off
 SOSCF                  CNVSOSCF        .... on
   Start iteration      SOSCFMaxIt      ....   150
   Startup grad/error   SOSCFStart      ....  0.003300
 Level Shifting         CNVShift        .... on
   Level shift para.    LevelShift      ....    0.2500
   Turn off err/grad.   ShiftErr        ....    0.0010
 Zerner damping         CNVZerner       .... off
 Static damping         CNVDamp         .... on
   Fraction old density DampFac         ....    0.7000
   Max. Damping (<1)    DampMax         ....    0.9800
   Min. Damping (>=0)   DampMin         ....    0.0000
   Turn off err/grad.   DampErr         ....    0.1000
 Fernandez-Rico         CNVRico         .... off

SCF Procedure:
 Maximum # iterations   MaxIter         ....   125
 SCF integral mode      SCFMode         .... Direct
   Integral package                     .... LIBINT
 Reset frequency        DirectResetFreq ....    20
 Integral Threshold     Thresh          ....  2.500e-11 Eh
 Primitive CutOff       TCut            ....  2.500e-12 Eh

Convergence Tolerance:
 Convergence Check Mode ConvCheckMode   .... Total+1el-Energy
 Convergence forced     ConvForced      .... 1
 Energy Change          TolE            ....  1.000e-08 Eh
 1-El. energy change                    ....  1.000e-05 Eh
 Orbital Gradient       TolG            ....  1.000e-05
 Orbital Rotation angle TolX            ....  1.000e-05
 DIIS Error             TolErr          ....  5.000e-07


Diagonalization of the overlap matrix:
Smallest eigenvalue                        ... 4.266e-02
Time for diagonalization                   ...    0.000 sec
Threshold for overlap eigenvalues          ... 1.000e-08
Number of eigenvalues below threshold      ... 0
Time for construction of square roots      ...    0.000 sec
Total time needed                          ...    0.000 sec

-------------------
DFT GRID GENERATION
-------------------

General Integration Accuracy     IntAcc      ...  4.670
Radial Grid Type                 RadialGrid  ... Gauss-Chebyshev
Angular Grid (max. acc.)         AngularGrid ... Lebedev-302
Angular grid pruning method      GridPruning ... 3 (G Style)
Weight generation scheme         WeightScheme... Becke
Basis function cutoff            BFCut       ...    1.0000e-11
Integration weight cutoff        WCut        ...    1.0000e-14
Grids for H and He will be reduced by one unit

# of grid points (after initial pruning)     ...   6272 (   0.0 sec)
# of grid points (after weights+screening)   ...   6272 (   0.0 sec)
Grid point division into batches done        ...    0.0 sec
Reduced shell lists constructed in    0.0 sec

Total number of grid points                  ...     6272
Total number of batches                      ...       99
Average number of points per batch           ...       63
Average number of grid points per atom       ...     6272
Average number of shells per batch           ...     7.70 (77.00%)
Average number of basis functions per batch  ...    22.86 (76.20%)
Average number of large shells per batch     ...     7.28 (94.55%)
Average number of large basis fcns per batch ...    21.68 (94.84%)
Maximum spatial batch extension              ...  21.92, 16.88, 15.22 au
Average spatial batch extension              ...   4.38,  4.21,  4.00 au

Time for grid setup =    0.039 sec

------------------------------
INITIAL GUESS: MODEL POTENTIAL
------------------------------
Loading Hartree-Fock densities                     ... done
Calculating cut-offs                               ... done
Setting up the integral package                    ... done
Initializing the effective Hamiltonian             ... done
Starting the Coulomb interaction                   ... done (   0.0 sec)
Reading the grid                                   ... done
Mapping shells                                     ... done
Starting the XC term evaluation                    ... done (   0.0 sec)
Transforming the Hamiltonian                       ... done (   0.0 sec)
Diagonalizing the Hamiltonian                      ... done (   0.0 sec)
Back transforming the eigenvectors                 ... done (   0.0 sec)
Now organizing SCF variables                       ... done
                      ------------------
                      INITIAL GUESS DONE (   0.1 sec)
                      ------------------
--------------------
COSX GRID GENERATION
--------------------

General Integration Accuracy     IntAcc      ...  3.340
Radial Grid Type                 RadialGrid  ... Gauss-Chebyshev
Angular Grid (max. acc.)         AngularGrid ... Lebedev-50
Angular grid pruning method      GridPruning ... 3 (G Style)
Weight generation scheme         WeightScheme... Becke
Basis function cutoff            BFCut       ...    1.0000e-11
Integration weight cutoff        WCut        ...    1.0000e-14
Grids for H and He will be reduced by one unit

# of grid points (after initial pruning)     ...    556 (   0.0 sec)
# of grid points (after weights+screening)   ...    556 (   0.0 sec)
Grid point division into batches done        ...    0.0 sec
Reduced shell lists constructed in    0.0 sec

Total number of grid points                  ...      556
Total number of batches                      ...        9
Average number of points per batch           ...       61
Average number of grid points per atom       ...      556
Average number of shells per batch           ...     9.00 (90.00%)
Average number of basis functions per batch  ...    27.00 (90.00%)
Average number of large shells per batch     ...     9.00 (100.00%)
Average number of large basis fcns per batch ...    27.00 (100.00%)
Maximum spatial batch extension              ...  16.92, 20.72, 20.72 au
Average spatial batch extension              ...   7.61,  8.48, 12.59 au

Overlap Fitting                  UseSFitting ... on
Constructing numerical overlap ... done (      0.0 sec)
Inverting numerical overlap    ... done (      0.0 sec)
Obtaining analytic overlap     ... done (      0.0 sec)
Final contraction and storage  ... done (      0.0 sec)


General Integration Accuracy     IntAcc      ...  3.670
Radial Grid Type                 RadialGrid  ... Gauss-Chebyshev
Angular Grid (max. acc.)         AngularGrid ... Lebedev-50
Angular grid pruning method      GridPruning ... 3 (G Style)
Weight generation scheme         WeightScheme... Becke
Basis function cutoff            BFCut       ...    1.0000e-11
Integration weight cutoff        WCut        ...    1.0000e-14
Grids for H and He will be reduced by one unit

# of grid points (after initial pruning)     ...    720 (   0.0 sec)
# of grid points (after weights+screening)   ...    720 (   0.0 sec)
Grid point division into batches done        ...    0.0 sec
Reduced shell lists constructed in    0.0 sec

Total number of grid points                  ...      720
Total number of batches                      ...       12
Average number of points per batch           ...       60
Average number of grid points per atom       ...      720
Average number of shells per batch           ...     9.23 (92.31%)
Average number of basis functions per batch  ...    27.69 (92.31%)
Average number of large shells per batch     ...     8.77 (95.00%)
Average number of large basis fcns per batch ...    26.31 (95.00%)
Maximum spatial batch extension              ...  18.51, 22.67, 22.67 au
Average spatial batch extension              ...   6.69,  9.94, 10.67 au

Overlap Fitting                  UseSFitting ... on
Constructing numerical overlap ... done (      0.0 sec)
Inverting numerical overlap    ... done (      0.0 sec)
Obtaining analytic overlap     ... done (      0.0 sec)
Final contraction and storage  ... done (      0.0 sec)


General Integration Accuracy     IntAcc      ...  4.010
Radial Grid Type                 RadialGrid  ... Gauss-Chebyshev
Angular Grid (max. acc.)         AngularGrid ... Lebedev-110
Angular grid pruning method      GridPruning ... 3 (G Style)
Weight generation scheme         WeightScheme... Becke
Basis function cutoff            BFCut       ...    1.0000e-11
Integration weight cutoff        WCut        ...    1.0000e-14
Grids for H and He will be reduced by one unit

# of grid points (after initial pruning)     ...   1446 (   0.0 sec)
# of grid points (after weights+screening)   ...   1446 (   0.0 sec)
Grid point division into batches done        ...    0.0 sec
Reduced shell lists constructed in    0.0 sec

Total number of grid points                  ...     1446
Total number of batches                      ...       23
Average number of points per batch           ...       62
Average number of grid points per atom       ...     1446
Average number of shells per batch           ...     8.75 (87.50%)
Average number of basis functions per batch  ...    25.92 (86.39%)
Average number of large shells per batch     ...     8.25 (94.29%)
Average number of large basis fcns per batch ...    24.42 (94.21%)
Maximum spatial batch extension              ...  14.65, 24.28, 24.28 au
Average spatial batch extension              ...   7.57,  8.66,  9.52 au

Overlap Fitting                  UseSFitting ... on
Constructing numerical overlap ... done (      0.0 sec)
Inverting numerical overlap    ... done (      0.0 sec)
Obtaining analytic overlap     ... done (      0.0 sec)
Final contraction and storage  ... done (      0.0 sec)

Time for X-Grid setup             =    0.083 sec
--------------
SCF ITERATIONS
--------------
ITER       Energy         Delta-E        Max-DP      RMS-DP      [F,P]     Damp
               ***  Starting incremental Fock matrix formation  ***
  0   -128.5173248901   0.000000000000 0.01751246  0.00155053  0.2469840 0.7000
  1   -128.5217812173  -0.004456327215 0.01354331  0.00118984  0.1756799 0.7000
                               ***Turning on DIIS***
  2   -128.5249366141  -0.003155396706 0.00968809  0.00084256  0.1248364 0.7000
  3   -128.4739969167   0.050939697337 0.02384266  0.00202007  0.0889399 0.0000
                      *** Initiating the SOSCF procedure ***
                           *** Shutting down DIIS ***
                      *** Re-Reading the Fockian *** 
                      *** Removing any level shift *** 
ITER      Energy       Delta-E        Grad      Rot      Max-DP    RMS-DP
  4   -128.53069377  -0.0566968521  0.002661  0.002661  0.001396  0.000081
               *** Restarting incremental Fock matrix formation ***
  5   -128.53257575  -0.0018819844  0.000304  0.000091  0.000254  0.000012
  6   -128.53257584  -0.0000000845  0.000072  0.000028  0.000069  0.000003
  7   -128.53257584  -0.0000000025  0.000008  0.000003  0.000004  0.000000
                  ***Gradient check signals convergence***
              ***Rediagonalizing the Fockian in SOSCF/NRSCF***

               *****************************************************
               *                     SUCCESS                       *
               *           SCF CONVERGED AFTER   8 CYCLES          *
               *****************************************************

Old exchange energy                            =    -12.114270507 Eh
New exchange energy                            =    -12.113512019 Eh
Exchange energy change after final integration =      0.000758488 Eh
Total energy after final integration           =   -128.531817352 Eh
Final COS-X integration done in                =     0.057 sec

----------------
TOTAL SCF ENERGY
----------------

Total Energy       :         -128.53181735 Eh           -3497.52856 eV

Components:
Nuclear Repulsion  :            0.00000000 Eh               0.00000 eV
Electronic Energy  :         -128.53181735 Eh           -3497.52856 eV
One Electron Energy:         -182.59874232 Eh           -4968.76439 eV
Two Electron Energy:           54.06692497 Eh            1471.23582 eV

Virial components:
Potential Energy   :         -257.06557497 Eh           -6995.10992 eV
Kinetic Energy     :          128.53375762 Eh            3497.58136 eV
Virial Ratio       :            1.99998490


---------------
SCF CONVERGENCE
---------------

  Last Energy change         ...   -5.3660e-11  Tolerance :   1.0000e-08
  Last MAX-Density change    ...    1.1102e-15  Tolerance :   1.0000e-07
  Last RMS-Density change    ...    6.3841e-17  Tolerance :   5.0000e-09
  Last Orbital Gradient      ...    2.3400e-06  Tolerance :   1.0000e-05
  Last Orbital Rotation      ...    7.6219e-07  Tolerance :   1.0000e-05

             **** THE GBW FILE WAS UPDATED (neon.gbw) ****
             **** DENSITY FILE WAS UPDATED (neon.scfp) ****
             **** ENERGY FILE WAS UPDATED (neon.en.tmp) ****
             **** THE GBW FILE WAS UPDATED (neon.gbw) ****
             **** DENSITY FILE WAS UPDATED (neon.scfp) ****
----------------
ORBITAL ENERGIES
----------------

  NO   OCC          E(Eh)            E(eV) 
   0   2.0000     -32.769735      -891.7098 
   1   2.0000      -1.927167       -52.4409 
   2   2.0000      -0.845439       -23.0056 
   3   2.0000      -0.845439       -23.0056 
   4   2.0000      -0.845439       -23.0056 
   5   0.0000       1.098751        29.8985 
   6   0.0000       1.098751        29.8985 
   7   0.0000       1.098751        29.8985 
   8   0.0000       1.417637        38.5759 
   9   0.0000       3.104552        84.4791 
  10   0.0000       3.104552        84.4791 
  11   0.0000       3.104552        84.4791 
  12   0.0000       3.104552        84.4791 
  13   0.0000       3.104552        84.4791 
  14   0.0000       6.155826       167.5085 
  15   0.0000       6.155826       167.5085 
  16   0.0000       6.155826       167.5085 
  17   0.0000       9.647386       262.5187 
  18   0.0000       9.647386       262.5187 
  19   0.0000       9.647386       262.5187 
  20   0.0000       9.647386       262.5187 
  21   0.0000       9.647387       262.5187 
  22   0.0000       9.647387       262.5187 
  23   0.0000       9.647387       262.5187 
  24   0.0000      11.577589       315.0422 
  25   0.0000      11.577589       315.0422 
  26   0.0000      11.577589       315.0422 
  27   0.0000      11.577589       315.0422 
  28   0.0000      11.577589       315.0422 
  29   0.0000      11.744243       319.5771 
------------------
MOLECULAR ORBITALS
------------------
                      0         1         2         3         4         5   
                 -32.76973  -1.92717  -0.84544  -0.84544  -0.84544   1.09875
                   2.00000   2.00000   2.00000   2.00000   2.00000   0.00000
                  --------  --------  --------  --------  --------  --------
  0Ne  1s         0.975720  0.000012  0.000000 -0.000000 -0.000000  0.000000
  0Ne  2s         0.000026 -0.587977 -0.000000 -0.000000 -0.000000  0.000000
  0Ne  3s         0.043878 -0.177386 -0.000000 -0.000000 -0.000000 -0.000000
  0Ne  4s         0.002365 -0.365093 -0.000000  0.000000 -0.000000 -0.000000
  0Ne  1pz        0.000000  0.000000 -0.066380  0.291325 -0.273128  0.041501
  0Ne  1px       -0.000000 -0.000000  0.341234  0.185201  0.114609 -0.215302
  0Ne  1py        0.000000 -0.000000 -0.207433  0.211436  0.275937  0.129890
  0Ne  2pz        0.000000  0.000000 -0.079564  0.349190 -0.327378  0.114517
  0Ne  2px       -0.000000 -0.000000  0.409012  0.221987  0.137374 -0.594106
  0Ne  2py        0.000000 -0.000000 -0.248635  0.253433  0.330746  0.358419
  0Ne  3pz        0.000000 -0.000000 -0.054538  0.239356 -0.224405 -0.192839
  0Ne  3px       -0.000000 -0.000000  0.280362  0.152164  0.094164  1.000435
  0Ne  3py        0.000000 -0.000000 -0.170430  0.173719  0.226713 -0.603554
  0Ne  1dz2      -0.000000  0.000000  0.000000 -0.000000  0.000000 -0.000000
  0Ne  1dxz       0.000000  0.000000 -0.000000  0.000000 -0.000000  0.000000
  0Ne  1dyz      -0.000000 -0.000000 -0.000000 -0.000000 -0.000000  0.000000
  0Ne  1dx2y2    -0.000000 -0.000000 -0.000000  0.000000 -0.000000 -0.000000
  0Ne  1dxy      -0.000000 -0.000000  0.000000 -0.000000  0.000000  0.000000
  0Ne  2dz2      -0.000000  0.000000  0.000000  0.000000 -0.000000 -0.000000
  0Ne  2dxz      -0.000000  0.000000  0.000000 -0.000000  0.000000 -0.000000
  0Ne  2dyz      -0.000000  0.000000  0.000000 -0.000000 -0.000000  0.000000
  0Ne  2dx2y2     0.000000  0.000000  0.000000  0.000000 -0.000000  0.000000
  0Ne  2dxy       0.000000  0.000000  0.000000 -0.000000 -0.000000  0.000000
  0Ne  1f0        0.000000 -0.000000  0.000000 -0.000000  0.000000 -0.000000
  0Ne  1f+1      -0.000000 -0.000000  0.000000  0.000000  0.000000 -0.000000
  0Ne  1f-1      -0.000000  0.000000 -0.000000  0.000000  0.000000  0.000000
  0Ne  1f+2       0.000000  0.000000  0.000000  0.000000  0.000000  0.000000
  0Ne  1f-2      -0.000000 -0.000000  0.000000  0.000000  0.000000 -0.000000
  0Ne  1f+3       0.000000  0.000000  0.000000  0.000000  0.000000 -0.000000
  0Ne  1f-3       0.000000 -0.000000  0.000000 -0.000000 -0.000000 -0.000000
                      6         7         8         9        10        11   
                   1.09875   1.09875   1.41764   3.10455   3.10455   3.10455
                   0.00000   0.00000   0.00000   0.00000   0.00000   0.00000
                  --------  --------  --------  --------  --------  --------
  0Ne  1s         0.000000 -0.000000  0.509806 -0.000000  0.000000  0.000000
  0Ne  2s         0.000000 -0.000000  1.396915 -0.000000  0.000000 -0.000000
  0Ne  3s        -0.000000  0.000000  0.245656  0.000000 -0.000000 -0.000000
  0Ne  4s        -0.000000  0.000000 -1.653173 -0.000000  0.000000  0.000000
  0Ne  1pz        0.162810  0.191623 -0.000000  0.000000  0.000000 -0.000000
  0Ne  1px        0.123334 -0.058160 -0.000000 -0.000000 -0.000000  0.000000
  0Ne  1py        0.152416 -0.157629 -0.000000 -0.000000  0.000000  0.000000
  0Ne  2pz        0.449259  0.528765 -0.000000 -0.000000 -0.000000  0.000000
  0Ne  2px        0.340327 -0.160487  0.000000  0.000000 -0.000000 -0.000000
  0Ne  2py        0.420576 -0.434962 -0.000000  0.000000  0.000000 -0.000000
  0Ne  3pz       -0.756522 -0.890405  0.000000 -0.000000  0.000000 -0.000000
  0Ne  3px       -0.573088  0.270248  0.000000 -0.000000  0.000000  0.000000
  0Ne  3py       -0.708222  0.732447  0.000000  0.000000 -0.000000  0.000000
  0Ne  1dz2      -0.000000  0.000000 -0.000000  0.000000  0.000000 -0.000000
  0Ne  1dxz      -0.000000 -0.000000 -0.000000 -0.017353 -0.007644 -0.022936
  0Ne  1dyz      -0.000000  0.000000  0.000000  0.018458  0.014044 -0.018645
  0Ne  1dx2y2    -0.000000  0.000000  0.000000  0.000003 -0.000004 -0.000001
  0Ne  1dxy       0.000000  0.000000 -0.000000 -0.015613  0.025099  0.003448
  0Ne  2dz2      -0.000000  0.000000 -0.000000 -0.000017 -0.000013  0.000011
  0Ne  2dxz      -0.000000  0.000000 -0.000000  0.591610  0.260600  0.781964
  0Ne  2dyz       0.000000 -0.000000  0.000000 -0.629314 -0.478801  0.635687
  0Ne  2dx2y2     0.000000 -0.000000  0.000000 -0.000098  0.000142  0.000031
  0Ne  2dxy      -0.000000  0.000000 -0.000000  0.532302 -0.855699 -0.117550
  0Ne  1f0       -0.000000 -0.000000  0.000000  0.000000 -0.000000  0.000000
  0Ne  1f+1       0.000000 -0.000000  0.000000  0.000000 -0.000000  0.000000
  0Ne  1f-1       0.000000 -0.000000  0.000000  0.000000  0.000000 -0.000000
  0Ne  1f+2       0.000000 -0.000000 -0.000000  0.000000  0.000000  0.000000
  0Ne  1f-2      -0.000000 -0.000000  0.000000  0.000000 -0.000000  0.000000
  0Ne  1f+3       0.000000 -0.000000  0.000000  0.000000 -0.000000 -0.000000
  0Ne  1f-3      -0.000000  0.000000  0.000000 -0.000000  0.000000  0.000000
                     12        13        14        15        16        17   
                   3.10455   3.10455   6.15583   6.15583   6.15583   9.64739
                   0.00000   0.00000   0.00000   0.00000   0.00000   0.00000
                  --------  --------  --------  --------  --------  --------
  0Ne  1s         0.000000  0.000000 -0.000000  0.000000 -0.000000 -0.000000
  0Ne  2s        -0.000000  0.000000 -0.000000  0.000000 -0.000000 -0.000000
  0Ne  3s        -0.000000 -0.000000  0.000000 -0.000000  0.000000  0.000000
  0Ne  4s         0.000000 -0.000000  0.000000 -0.000000  0.000000 -0.000000
  0Ne  1pz        0.000000 -0.000000 -0.196367  0.903987  0.777430 -0.000000
  0Ne  1px       -0.000000 -0.000000  1.018310  0.536992 -0.367199  0.000000
  0Ne  1py        0.000000  0.000000 -0.620190  0.595481 -0.849069 -0.000000
  0Ne  2pz        0.000000 -0.000000  0.229483 -1.056438 -0.908538  0.000000
  0Ne  2px        0.000000  0.000000 -1.190040 -0.627552  0.429125 -0.000000
  0Ne  2py       -0.000000 -0.000000  0.724781 -0.695904  0.992258  0.000000
  0Ne  3pz       -0.000000  0.000000 -0.092167  0.424294  0.364894 -0.000000
  0Ne  3px       -0.000000  0.000000  0.477952  0.252042 -0.172348  0.000000
  0Ne  3py        0.000000  0.000000 -0.291092  0.279494 -0.398518 -0.000000
  0Ne  1dz2       0.018389  0.023398  0.000000 -0.000000  0.000000 -0.000000
  0Ne  1dxz       0.000000  0.000000 -0.000000 -0.000000 -0.000000 -0.000000
  0Ne  1dyz      -0.000000 -0.000001  0.000000  0.000000  0.000000 -0.000000
  0Ne  1dx2y2    -0.023398  0.018389 -0.000000  0.000000  0.000000  0.000000
  0Ne  1dxy      -0.000004  0.000003 -0.000000  0.000000  0.000000 -0.000000
  0Ne  2dz2      -0.626929 -0.797711 -0.000000 -0.000000 -0.000000  0.000000
  0Ne  2dxz      -0.000005 -0.000002  0.000000  0.000000  0.000000  0.000000
  0Ne  2dyz       0.000004  0.000027 -0.000000 -0.000000  0.000000  0.000000
  0Ne  2dx2y2     0.797711 -0.626929  0.000000 -0.000000  0.000000  0.000000
  0Ne  2dxy       0.000138 -0.000107  0.000000 -0.000000 -0.000000  0.000000
  0Ne  1f0        0.000000  0.000000  0.000000 -0.000001 -0.000001 -0.000026
  0Ne  1f+1      -0.000000 -0.000000  0.000001  0.000000 -0.000000 -0.007988
  0Ne  1f-1      -0.000000 -0.000000 -0.000000  0.000000 -0.000000  0.001575
  0Ne  1f+2      -0.000000  0.000000  0.000000 -0.000000  0.000000  0.043208
  0Ne  1f-2      -0.000000 -0.000000 -0.000000  0.000000  0.000000 -0.999013
  0Ne  1f+3      -0.000000  0.000000  0.000001  0.000000 -0.000000  0.006169
  0Ne  1f-3       0.000000  0.000000  0.000000 -0.000000  0.000001  0.001214
                     18        19        20        21        22        23   
                   9.64739   9.64739   9.64739   9.64739   9.64739   9.64739
                   0.00000   0.00000   0.00000   0.00000   0.00000   0.00000
                  --------  --------  --------  --------  --------  --------
  0Ne  1s        -0.000000 -0.000000 -0.000000 -0.000000  0.000000  0.000000
  0Ne  2s        -0.000000 -0.000000 -0.000000 -0.000000  0.000000  0.000000
  0Ne  3s         0.000000  0.000000  0.000000  0.000000 -0.000000 -0.000000
  0Ne  4s         0.000000  0.000000  0.000000  0.000000 -0.000000 -0.000000
  0Ne  1pz       -0.000000 -0.000000 -0.000000 -0.000000  0.000000  0.000001
  0Ne  1px       -0.000000  0.000000 -0.000000  0.000001  0.000000  0.000000
  0Ne  1py        0.000000  0.000000  0.000000 -0.000000  0.000001 -0.000000
  0Ne  2pz        0.000000  0.000000  0.000000  0.000000 -0.000000 -0.000001
  0Ne  2px        0.000000 -0.000000  0.000000 -0.000001 -0.000000 -0.000000
  0Ne  2py       -0.000000 -0.000000 -0.000000  0.000000 -0.000001  0.000000
  0Ne  3pz       -0.000000 -0.000000 -0.000000 -0.000000  0.000000  0.000001
  0Ne  3px       -0.000000  0.000000 -0.000000  0.000001  0.000000  0.000000
  0Ne  3py        0.000000  0.000000  0.000000 -0.000000  0.000001 -0.000000
  0Ne  1dz2      -0.000000 -0.000000  0.000000 -0.000000 -0.000000  0.000000
  0Ne  1dxz       0.000000 -0.000000 -0.000000 -0.000000  0.000000  0.000000
  0Ne  1dyz      -0.000000  0.000000  0.000000  0.000000 -0.000000 -0.000000
  0Ne  1dx2y2     0.000000 -0.000000 -0.000000 -0.000000  0.000000 -0.000000
  0Ne  1dxy       0.000000  0.000000  0.000000 -0.000000 -0.000000  0.000000
  0Ne  2dz2       0.000000  0.000000 -0.000000  0.000000  0.000000  0.000000
  0Ne  2dxz      -0.000000  0.000000  0.000000  0.000000 -0.000000 -0.000000
  0Ne  2dyz       0.000000 -0.000000 -0.000000 -0.000000  0.000000  0.000000
  0Ne  2dx2y2    -0.000000 -0.000000  0.000000  0.000000 -0.000000 -0.000000
  0Ne  2dxy      -0.000000 -0.000000 -0.000000  0.000000  0.000000 -0.000000
  0Ne  1f0       -0.000017 -0.000003 -0.000008 -0.008126  0.010472  0.999912
  0Ne  1f+1       0.336252 -0.715770  0.002360 -0.582329 -0.188214 -0.002758
  0Ne  1f-1      -0.715784 -0.336236  0.006906  0.188151 -0.582314  0.007615
  0Ne  1f+2       0.006897  0.006052  0.999024  0.000002 -0.000006  0.000009
  0Ne  1f-2      -0.005798  0.008560  0.043196  0.000011 -0.000001 -0.000025
  0Ne  1f+3      -0.260108  0.553933 -0.001827 -0.752494 -0.243312 -0.003570
  0Ne  1f-3      -0.553941 -0.260130  0.005352 -0.243267  0.752447 -0.009867
                     24        25        26        27        28        29   
                  11.57759  11.57759  11.57759  11.57759  11.57759  11.74424
                   0.00000   0.00000   0.00000   0.00000   0.00000   0.00000
                  --------  --------  --------  --------  --------  --------
  0Ne  1s        -0.000000  0.000000 -0.000000  0.000000 -0.000000 -2.322062
  0Ne  2s        -0.000000  0.000000 -0.000000  0.000000 -0.000000 -2.875151
  0Ne  3s         0.000000 -0.000000  0.000000 -0.000000  0.000000  2.407724
  0Ne  4s         0.000000 -0.000000  0.000000 -0.000000  0.000000  1.173530
  0Ne  1pz       -0.000000 -0.000000  0.000000 -0.000000 -0.000000 -0.000000
  0Ne  1px       -0.000000  0.000000  0.000000  0.000000  0.000000 -0.000000
  0Ne  1py        0.000000 -0.000000 -0.000000 -0.000000  0.000000  0.000000
  0Ne  2pz        0.000000  0.000000 -0.000000  0.000000 -0.000000  0.000000
  0Ne  2px        0.000000 -0.000000  0.000000 -0.000000 -0.000000  0.000000
  0Ne  2py       -0.000000  0.000000  0.000000  0.000000 -0.000000 -0.000000
  0Ne  3pz       -0.000000 -0.000000  0.000000 -0.000000  0.000000 -0.000000
  0Ne  3px       -0.000000 -0.000000 -0.000000  0.000000  0.000000 -0.000000
  0Ne  3py        0.000000 -0.000000  0.000000 -0.000000  0.000000  0.000000
  0Ne  1dz2       0.000021  0.000018  0.000014 -0.714565  0.907792 -0.000000
  0Ne  1dxz      -0.688206 -0.300857  0.877808 -0.000006  0.000003  0.000000
  0Ne  1dyz       0.707703  0.536693  0.738787  0.000006 -0.000033 -0.000000
  0Ne  1dx2y2     0.000119 -0.000175  0.000037  0.907792  0.714565 -0.000000
  0Ne  1dxy      -0.600182  0.977822 -0.135410  0.000170  0.000131  0.000000
  0Ne  2dz2      -0.000010 -0.000009 -0.000007  0.342254 -0.434804  0.000000
  0Ne  2dxz       0.329629  0.144101 -0.420442  0.000003 -0.000002 -0.000000
  0Ne  2dyz      -0.338967 -0.257059 -0.353856 -0.000003  0.000016  0.000000
  0Ne  2dx2y2    -0.000057  0.000084 -0.000018 -0.434804 -0.342254  0.000000
  0Ne  2dxy       0.287468 -0.468345  0.064857 -0.000081 -0.000063 -0.000000
  0Ne  1f0        0.000000  0.000000  0.000000  0.000000 -0.000000  0.000000
  0Ne  1f+1       0.000000 -0.000000  0.000000 -0.000000 -0.000000  0.000000
  0Ne  1f-1      -0.000000  0.000000 -0.000000  0.000000  0.000000 -0.000000
  0Ne  1f+2      -0.000000 -0.000000  0.000000  0.000000  0.000000 -0.000000
  0Ne  1f-2      -0.000000 -0.000000 -0.000000  0.000000 -0.000000  0.000000
  0Ne  1f+3       0.000000 -0.000000 -0.000000 -0.000000 -0.000000  0.000000
  0Ne  1f-3       0.000000  0.000000  0.000000 -0.000000 -0.000000  0.000000



                    ********************************
                    * MULLIKEN POPULATION ANALYSIS *
                    ********************************

-----------------------
MULLIKEN ATOMIC CHARGES
-----------------------
   0 Ne:   -0.000000
Sum of atomic charges:   -0.0000000

--------------------------------
MULLIKEN REDUCED ORBITAL CHARGES
--------------------------------
  0 Nes       :     4.000000  s :     4.000000
      pz      :     2.000000  p :     6.000000
      px      :     2.000000
      py      :     2.000000
      dz2     :     0.000000  d :     0.000000
      dxz     :     0.000000
      dyz     :     0.000000
      dx2y2   :     0.000000
      dxy     :     0.000000
      f0      :     0.000000  f :     0.000000
      f+1     :     0.000000
      f-1     :     0.000000
      f+2     :     0.000000
      f-2     :     0.000000
      f+3     :     0.000000
      f-3     :     0.000000


                     *******************************
                     * LOEWDIN POPULATION ANALYSIS *
                     *******************************

----------------------
LOEWDIN ATOMIC CHARGES
----------------------
   0 Ne:    0.000000

-------------------------------
LOEWDIN REDUCED ORBITAL CHARGES
-------------------------------
  0 Nes       :     4.000000  s :     4.000000
      pz      :     2.000000  p :     6.000000
      px      :     2.000000
      py      :     2.000000
      dz2     :     0.000000  d :     0.000000
      dxz     :     0.000000
      dyz     :     0.000000
      dx2y2   :     0.000000
      dxy     :     0.000000
      f0      :     0.000000  f :     0.000000
      f+1     :     0.000000
      f-1     :     0.000000
      f+2     :     0.000000
      f-2     :     0.000000
      f+3     :     0.000000
      f-3     :     0.000000


                      *****************************
                      * MAYER POPULATION ANALYSIS *
                      *****************************

  NA   - Mulliken gross atomic population
  ZA   - Total nuclear charge
  QA   - Mulliken gross atomic charge
  VA   - Mayer's total valence
  BVA  - Mayer's bonded valence
  FA   - Mayer's free valence

  ATOM       NA         ZA         QA         VA         BVA        FA
  0 Ne    10.0000    10.0000    -0.0000    -0.0000     0.0000    -0.0000

  Mayer bond orders larger than 0.100000


--------------------------
ATOM BASIS FOR ELEMENT Ne
--------------------------
 NewGTO Ne
 S 18
    1      24350.000000000000         0.000502013605
    2       3650.000000000000         0.003881105178
    3        829.600000000000         0.019997541934
    4        234.000000000000         0.078420125188
    5         75.610000000000         0.229682224397
    6         26.730000000000         0.432733727100
    7          9.927000000000         0.350651502668
    8          1.102000000000        -0.007645207185
    9      24350.000000000000        -0.000000005179
   10       3650.000000000000        -0.000000040158
   11        829.600000000000        -0.000000207897
   12        234.000000000000        -0.000000844098
   13         75.610000000000        -0.000002649475
   14         26.730000000000        -0.000006254392
   15          9.927000000000        -0.000007799338
   16          1.102000000000         0.000026588935
   17          2.836000000000         0.043878328069
   18          0.378200000000         0.002364898564
 S 17
    1      24350.000000000000         0.000000006349
    2       3650.000000000000         0.000000049084
    3        829.600000000000         0.000000252905
    4        234.000000000000         0.000000991764
    5         75.610000000000         0.000002904746
    6         26.730000000000         0.000005472698
    7          9.927000000000         0.000004434620
    8      24350.000000000000         0.000117998199
    9       3650.000000000000         0.000914986032
   10        829.600000000000         0.004736927684
   11        234.000000000000         0.019232706387
   12         75.610000000000         0.060368078400
   13         26.730000000000         0.142505824458
   14          9.927000000000         0.177707287060
   15          1.102000000000        -0.605826751243
   16          2.836000000000        -0.177385988441
   17          0.378200000000        -0.365093319894
 S 18
    1      24350.000000000000        -0.000262297970
    2       3650.000000000000        -0.002027845463
    3        829.600000000000        -0.010448550817
    4        234.000000000000        -0.040973868979
    5         75.610000000000        -0.120007068934
    6         26.730000000000        -0.226099805304
    7          9.927000000000        -0.183212519658
    8          1.102000000000         0.003994557733
    9      24350.000000000000         0.000280339705
   10       3650.000000000000         0.002173820596
   11        829.600000000000         0.011253976135
   12        234.000000000000         0.045692996201
   13         75.610000000000         0.143422268375
   14         26.730000000000         0.338564836614
   15          9.927000000000         0.422196347677
   16          1.102000000000        -1.439321065169
   17          2.836000000000        -0.245655923777
   18          0.378200000000         1.653172870526
 S 18
    1      24350.000000000000         0.001194714726
    2       3650.000000000000         0.009236429985
    3        829.600000000000         0.047591056534
    4        234.000000000000         0.186627767731
    5         75.610000000000         0.546608166255
    6         26.730000000000         1.029839334184
    7          9.927000000000         0.834496336717
    8          1.102000000000        -0.018194410522
    9      24350.000000000000        -0.000576999400
   10       3650.000000000000        -0.004474190261
   11        829.600000000000        -0.023163103025
   12        234.000000000000        -0.094046012346
   13         75.610000000000        -0.295193870915
   14         26.730000000000        -0.696839241272
   15          9.927000000000        -0.868970875786
   16          1.102000000000         2.962432274507
   17          2.836000000000        -2.407724236018
   18          0.378200000000        -1.173530091957
 P 5
    1         54.700000000000         0.017150812998
    2         12.430000000000         0.107654826197
    3          3.679000000000         0.321677492624
    4          1.143000000000         0.485222423594
    5          0.330000000000         0.332600972104
 P 5
    1         54.700000000000         0.010797259281
    2         12.430000000000         0.067773875877
    3          3.679000000000         0.202511408246
    4          1.143000000000         0.703235985083
    5          0.330000000000        -1.184201776099
 P 5
    1         54.700000000000         0.051194915555
    2         12.430000000000         0.321348016385
    3          3.679000000000         0.960202415647
    4          1.143000000000        -1.412149172233
    5          0.330000000000         0.567157377627
 D 2
    1          4.014000000000        -0.029758927832
    2          1.096000000000         1.014585284176
 D 2
    1          4.014000000000         1.155287621218
    2          1.096000000000        -0.553345988203
 F 1
    1          2.544000000000         1.000000000000
 end
  // -----------------------------------------------
  // The basis set
  // -----------------------------------------------
  BAS[ATNO] = new BFNGauss[NSH];
  // Basis function   1 L = s
  InitBFNGauss(BAS[ATNO][  0]);
  BAS[ATNO][  0].l  = 0;
  BAS[ATNO][  0].ng = 18;
  BAS[ATNO][  0].a[  0] =     24350.000000000000;     BAS[ATNO][  0].d[  0] =         0.000502013605;
  BAS[ATNO][  0].a[  1] =      3650.000000000000;     BAS[ATNO][  0].d[  1] =         0.003881105178;
  BAS[ATNO][  0].a[  2] =       829.600000000000;     BAS[ATNO][  0].d[  2] =         0.019997541934;
  BAS[ATNO][  0].a[  3] =       234.000000000000;     BAS[ATNO][  0].d[  3] =         0.078420125188;
  BAS[ATNO][  0].a[  4] =        75.610000000000;     BAS[ATNO][  0].d[  4] =         0.229682224397;
  BAS[ATNO][  0].a[  5] =        26.730000000000;     BAS[ATNO][  0].d[  5] =         0.432733727100;
  BAS[ATNO][  0].a[  6] =         9.927000000000;     BAS[ATNO][  0].d[  6] =         0.350651502668;
  BAS[ATNO][  0].a[  7] =         1.102000000000;     BAS[ATNO][  0].d[  7] =        -0.007645207185;
  BAS[ATNO][  0].a[  8] =     24350.000000000000;     BAS[ATNO][  0].d[  8] =        -0.000000005179;
  BAS[ATNO][  0].a[  9] =      3650.000000000000;     BAS[ATNO][  0].d[  9] =        -0.000000040158;
  BAS[ATNO][  0].a[ 10] =       829.600000000000;     BAS[ATNO][  0].d[ 10] =        -0.000000207897;
  BAS[ATNO][  0].a[ 11] =       234.000000000000;     BAS[ATNO][  0].d[ 11] =        -0.000000844098;
  BAS[ATNO][  0].a[ 12] =        75.610000000000;     BAS[ATNO][  0].d[ 12] =        -0.000002649475;
  BAS[ATNO][  0].a[ 13] =        26.730000000000;     BAS[ATNO][  0].d[ 13] =        -0.000006254392;
  BAS[ATNO][  0].a[ 14] =         9.927000000000;     BAS[ATNO][  0].d[ 14] =        -0.000007799338;
  BAS[ATNO][  0].a[ 15] =         1.102000000000;     BAS[ATNO][  0].d[ 15] =         0.000026588935;
  BAS[ATNO][  0].a[ 16] =         2.836000000000;     BAS[ATNO][  0].d[ 16] =         0.043878328069;
  BAS[ATNO][  0].a[ 17] =         0.378200000000;     BAS[ATNO][  0].d[ 17] =         0.002364898564;

  // Basis function   2 L = s
  InitBFNGauss(BAS[ATNO][  1]);
  BAS[ATNO][  1].l  = 0;
  BAS[ATNO][  1].ng = 17;
  BAS[ATNO][  1].a[  0] =     24350.000000000000;     BAS[ATNO][  1].d[  0] =        -0.000000006349;
  BAS[ATNO][  1].a[  1] =      3650.000000000000;     BAS[ATNO][  1].d[  1] =        -0.000000049084;
  BAS[ATNO][  1].a[  2] =       829.600000000000;     BAS[ATNO][  1].d[  2] =        -0.000000252905;
  BAS[ATNO][  1].a[  3] =       234.000000000000;     BAS[ATNO][  1].d[  3] =        -0.000000991764;
  BAS[ATNO][  1].a[  4] =        75.610000000000;     BAS[ATNO][  1].d[  4] =        -0.000002904746;
  BAS[ATNO][  1].a[  5] =        26.730000000000;     BAS[ATNO][  1].d[  5] =        -0.000005472698;
  BAS[ATNO][  1].a[  6] =         9.927000000000;     BAS[ATNO][  1].d[  6] =        -0.000004434620;
  BAS[ATNO][  1].a[  7] =     24350.000000000000;     BAS[ATNO][  1].d[  7] =        -0.000117998199;
  BAS[ATNO][  1].a[  8] =      3650.000000000000;     BAS[ATNO][  1].d[  8] =        -0.000914986032;
  BAS[ATNO][  1].a[  9] =       829.600000000000;     BAS[ATNO][  1].d[  9] =        -0.004736927684;
  BAS[ATNO][  1].a[ 10] =       234.000000000000;     BAS[ATNO][  1].d[ 10] =        -0.019232706387;
  BAS[ATNO][  1].a[ 11] =        75.610000000000;     BAS[ATNO][  1].d[ 11] =        -0.060368078400;
  BAS[ATNO][  1].a[ 12] =        26.730000000000;     BAS[ATNO][  1].d[ 12] =        -0.142505824458;
  BAS[ATNO][  1].a[ 13] =         9.927000000000;     BAS[ATNO][  1].d[ 13] =        -0.177707287060;
  BAS[ATNO][  1].a[ 14] =         1.102000000000;     BAS[ATNO][  1].d[ 14] =         0.605826751243;
  BAS[ATNO][  1].a[ 15] =         2.836000000000;     BAS[ATNO][  1].d[ 15] =         0.177385988441;
  BAS[ATNO][  1].a[ 16] =         0.378200000000;     BAS[ATNO][  1].d[ 16] =         0.365093319894;

  // Basis function   3 L = s
  InitBFNGauss(BAS[ATNO][  2]);
  BAS[ATNO][  2].l  = 0;
  BAS[ATNO][  2].ng = 18;
  BAS[ATNO][  2].a[  0] =     24350.000000000000;     BAS[ATNO][  2].d[  0] =        -0.000262297970;
  BAS[ATNO][  2].a[  1] =      3650.000000000000;     BAS[ATNO][  2].d[  1] =        -0.002027845463;
  BAS[ATNO][  2].a[  2] =       829.600000000000;     BAS[ATNO][  2].d[  2] =        -0.010448550817;
  BAS[ATNO][  2].a[  3] =       234.000000000000;     BAS[ATNO][  2].d[  3] =        -0.040973868979;
  BAS[ATNO][  2].a[  4] =        75.610000000000;     BAS[ATNO][  2].d[  4] =        -0.120007068934;
  BAS[ATNO][  2].a[  5] =        26.730000000000;     BAS[ATNO][  2].d[  5] =        -0.226099805304;
  BAS[ATNO][  2].a[  6] =         9.927000000000;     BAS[ATNO][  2].d[  6] =        -0.183212519658;
  BAS[ATNO][  2].a[  7] =         1.102000000000;     BAS[ATNO][  2].d[  7] =         0.003994557733;
  BAS[ATNO][  2].a[  8] =     24350.000000000000;     BAS[ATNO][  2].d[  8] =         0.000280339705;
  BAS[ATNO][  2].a[  9] =      3650.000000000000;     BAS[ATNO][  2].d[  9] =         0.002173820596;
  BAS[ATNO][  2].a[ 10] =       829.600000000000;     BAS[ATNO][  2].d[ 10] =         0.011253976135;
  BAS[ATNO][  2].a[ 11] =       234.000000000000;     BAS[ATNO][  2].d[ 11] =         0.045692996201;
  BAS[ATNO][  2].a[ 12] =        75.610000000000;     BAS[ATNO][  2].d[ 12] =         0.143422268375;
  BAS[ATNO][  2].a[ 13] =        26.730000000000;     BAS[ATNO][  2].d[ 13] =         0.338564836614;
  BAS[ATNO][  2].a[ 14] =         9.927000000000;     BAS[ATNO][  2].d[ 14] =         0.422196347677;
  BAS[ATNO][  2].a[ 15] =         1.102000000000;     BAS[ATNO][  2].d[ 15] =        -1.439321065169;
  BAS[ATNO][  2].a[ 16] =         2.836000000000;     BAS[ATNO][  2].d[ 16] =        -0.245655923777;
  BAS[ATNO][  2].a[ 17] =         0.378200000000;     BAS[ATNO][  2].d[ 17] =         1.653172870526;

  // Basis function   4 L = s
  InitBFNGauss(BAS[ATNO][  3]);
  BAS[ATNO][  3].l  = 0;
  BAS[ATNO][  3].ng = 18;
  BAS[ATNO][  3].a[  0] =     24350.000000000000;     BAS[ATNO][  3].d[  0] =         0.001194714726;
  BAS[ATNO][  3].a[  1] =      3650.000000000000;     BAS[ATNO][  3].d[  1] =         0.009236429985;
  BAS[ATNO][  3].a[  2] =       829.600000000000;     BAS[ATNO][  3].d[  2] =         0.047591056534;
  BAS[ATNO][  3].a[  3] =       234.000000000000;     BAS[ATNO][  3].d[  3] =         0.186627767731;
  BAS[ATNO][  3].a[  4] =        75.610000000000;     BAS[ATNO][  3].d[  4] =         0.546608166255;
  BAS[ATNO][  3].a[  5] =        26.730000000000;     BAS[ATNO][  3].d[  5] =         1.029839334184;
  BAS[ATNO][  3].a[  6] =         9.927000000000;     BAS[ATNO][  3].d[  6] =         0.834496336717;
  BAS[ATNO][  3].a[  7] =         1.102000000000;     BAS[ATNO][  3].d[  7] =        -0.018194410522;
  BAS[ATNO][  3].a[  8] =     24350.000000000000;     BAS[ATNO][  3].d[  8] =        -0.000576999400;
  BAS[ATNO][  3].a[  9] =      3650.000000000000;     BAS[ATNO][  3].d[  9] =        -0.004474190261;
  BAS[ATNO][  3].a[ 10] =       829.600000000000;     BAS[ATNO][  3].d[ 10] =        -0.023163103025;
  BAS[ATNO][  3].a[ 11] =       234.000000000000;     BAS[ATNO][  3].d[ 11] =        -0.094046012346;
  BAS[ATNO][  3].a[ 12] =        75.610000000000;     BAS[ATNO][  3].d[ 12] =        -0.295193870915;
  BAS[ATNO][  3].a[ 13] =        26.730000000000;     BAS[ATNO][  3].d[ 13] =        -0.696839241272;
  BAS[ATNO][  3].a[ 14] =         9.927000000000;     BAS[ATNO][  3].d[ 14] =        -0.868970875786;
  BAS[ATNO][  3].a[ 15] =         1.102000000000;     BAS[ATNO][  3].d[ 15] =         2.962432274507;
  BAS[ATNO][  3].a[ 16] =         2.836000000000;     BAS[ATNO][  3].d[ 16] =        -2.407724236018;
  BAS[ATNO][  3].a[ 17] =         0.378200000000;     BAS[ATNO][  3].d[ 17] =        -1.173530091957;

  // Basis function   5 L = p
  InitBFNGauss(BAS[ATNO][  4]);
  BAS[ATNO][  4].l  = 1;
  BAS[ATNO][  4].ng = 5;
  BAS[ATNO][  4].a[  0] =        54.700000000000;     BAS[ATNO][  4].d[  0] =         0.017150812998;
  BAS[ATNO][  4].a[  1] =        12.430000000000;     BAS[ATNO][  4].d[  1] =         0.107654826197;
  BAS[ATNO][  4].a[  2] =         3.679000000000;     BAS[ATNO][  4].d[  2] =         0.321677492624;
  BAS[ATNO][  4].a[  3] =         1.143000000000;     BAS[ATNO][  4].d[  3] =         0.485222423594;
  BAS[ATNO][  4].a[  4] =         0.330000000000;     BAS[ATNO][  4].d[  4] =         0.332600972104;

  // Basis function   6 L = p
  InitBFNGauss(BAS[ATNO][  5]);
  BAS[ATNO][  5].l  = 1;
  BAS[ATNO][  5].ng = 5;
  BAS[ATNO][  5].a[  0] =        54.700000000000;     BAS[ATNO][  5].d[  0] =        -0.010797259281;
  BAS[ATNO][  5].a[  1] =        12.430000000000;     BAS[ATNO][  5].d[  1] =        -0.067773875877;
  BAS[ATNO][  5].a[  2] =         3.679000000000;     BAS[ATNO][  5].d[  2] =        -0.202511408246;
  BAS[ATNO][  5].a[  3] =         1.143000000000;     BAS[ATNO][  5].d[  3] =        -0.703235985083;
  BAS[ATNO][  5].a[  4] =         0.330000000000;     BAS[ATNO][  5].d[  4] =         1.184201776099;

  // Basis function   7 L = p
  InitBFNGauss(BAS[ATNO][  6]);
  BAS[ATNO][  6].l  = 1;
  BAS[ATNO][  6].ng = 5;
  BAS[ATNO][  6].a[  0] =        54.700000000000;     BAS[ATNO][  6].d[  0] =        -0.051194915555;
  BAS[ATNO][  6].a[  1] =        12.430000000000;     BAS[ATNO][  6].d[  1] =        -0.321348016385;
  BAS[ATNO][  6].a[  2] =         3.679000000000;     BAS[ATNO][  6].d[  2] =        -0.960202415647;
  BAS[ATNO][  6].a[  3] =         1.143000000000;     BAS[ATNO][  6].d[  3] =         1.412149172233;
  BAS[ATNO][  6].a[  4] =         0.330000000000;     BAS[ATNO][  6].d[  4] =        -0.567157377627;

  // Basis function   8 L = d
  InitBFNGauss(BAS[ATNO][  7]);
  BAS[ATNO][  7].l  = 2;
  BAS[ATNO][  7].ng = 2;
  BAS[ATNO][  7].a[  0] =         4.014000000000;     BAS[ATNO][  7].d[  0] =        -0.029758927832;
  BAS[ATNO][  7].a[  1] =         1.096000000000;     BAS[ATNO][  7].d[  1] =         1.014585284176;

  // Basis function   9 L = d
  InitBFNGauss(BAS[ATNO][  8]);
  BAS[ATNO][  8].l  = 2;
  BAS[ATNO][  8].ng = 2;
  BAS[ATNO][  8].a[  0] =         4.014000000000;     BAS[ATNO][  8].d[  0] =         1.155287621218;
  BAS[ATNO][  8].a[  1] =         1.096000000000;     BAS[ATNO][  8].d[  1] =        -0.553345988203;

  // Basis function  10 L = f
  InitBFNGauss(BAS[ATNO][  9]);
  BAS[ATNO][  9].l  = 3;
  BAS[ATNO][  9].ng = 1;
  BAS[ATNO][  9].a[  0] =         2.544000000000;     BAS[ATNO][  9].d[  0] =         1.000000000000;

-------------------------------------------
RADIAL EXPECTATION VALUES <R**-3> TO <R**3>
-------------------------------------------
   0 :     0.000000   187.035335     9.617959     0.157627     0.033470     0.008983
   1 :     0.000000    11.062232     1.632569     0.891885     0.965763     1.235977
   2 :     0.000000     3.881957     0.983581     1.571232     2.928352     5.959680
   3 :     0.000000    91.514991     3.979680     0.849277     1.220021     2.276282
   4 :    10.665007     3.048812     1.435366     0.962034     1.210916     1.901408
   5 :    10.665007     3.048812     1.435366     0.962034     1.210916     1.901408
   6 :    10.665007     3.048812     1.435366     0.962034     1.210916     1.901408
   7 :     4.506080     1.331001     0.808809     1.863797     4.108710     9.812591
   8 :     4.506080     1.331001     0.808809     1.863797     4.108710     9.812591
   9 :     4.506080     1.331001     0.808809     1.863797     4.108710     9.812591
  10 :    39.886752     7.215178     2.054226     0.884009     1.239384     2.333411
  11 :    39.886752     7.215178     2.054226     0.884009     1.239384     2.333411
  12 :    39.886752     7.215178     2.054226     0.884009     1.239384     2.333411
  13 :     0.906074     0.843537     0.877505     1.231644     1.623286    11.359843
  14 :     0.906074     0.843537     0.877505     1.231644     1.623286    11.359843
  15 :     0.906074     0.843537     0.877505     1.231644     1.623286    11.359843
  16 :     0.906074     0.843537     0.877505     1.231644     1.623286    11.359843
  17 :     0.906074     0.843537     0.877505     1.231644     1.623286    11.359843
  18 :     7.206565     3.244463     1.676783     0.711984     0.631831     3.522129
  19 :     7.206565     3.244463     1.676783     0.711984     0.631831     3.522129
  20 :     7.206565     3.244463     1.676783     0.711984     0.631831     3.522129
  21 :     7.206565     3.244463     1.676783     0.711984     0.631831     3.522129
  22 :     7.206565     3.244463     1.676783     0.711984     0.631831     3.522129
  23 :     1.973360     1.453714     1.163538     0.914731     0.884434     6.292372
  24 :     1.973360     1.453714     1.163538     0.914731     0.884434     6.292372
  25 :     1.973360     1.453714     1.163538     0.914731     0.884434     6.292372
  26 :     1.973360     1.453714     1.163538     0.914731     0.884434     6.292372
  27 :     1.973360     1.453714     1.163538     0.914731     0.884434     6.292372
  28 :     1.973360     1.453714     1.163538     0.914731     0.884434     6.292372
  29 :     1.973360     1.453714     1.163538     0.914731     0.884434     6.292372
-------
TIMINGS
-------

Total SCF time: 0 days 0 hours 0 min 1 sec 

Total time                  ....       1.301 sec
Sum of individual times     ....       1.224 sec  ( 94.1%)

Fock matrix formation       ....       1.009 sec  ( 77.6%)
  Split-RI-J                ....       0.593 sec  ( 58.8% of F)
  Chain of spheres X        ....       0.385 sec  ( 38.2% of F)
  COS-X 1 center corr.      ....       0.000 sec  (  0.0% of F)
Diagonalization             ....       0.001 sec  (  0.1%)
Density matrix formation    ....       0.000 sec  (  0.0%)
Population analysis         ....       0.000 sec  (  0.0%)
Initial guess               ....       0.070 sec  (  5.3%)
Orbital Transformation      ....       0.000 sec  (  0.0%)
Orbital Orthonormalization  ....       0.000 sec  (  0.0%)
DIIS solution               ....       0.000 sec  (  0.0%)
SOSCF solution              ....       0.022 sec  (  1.7%)


------------------------------------------------------------------------------- 
                              ORCA-MATRIX DRIVEN CI                            
------------------------------------------------------------------------------- 


Wavefunction type
-----------------
Correlation treatment                      ...      CCSD     
Single excitations                         ... ON
Orbital optimization                       ... OFF
Calculation of Z vector                    ... OFF
Calculation of Brueckner orbitals          ... OFF
Perturbative triple excitations            ... ON
Calculation of F12 correction              ... OFF
Frozen core treatment                      ... chemical core (2 el)
Reference Wavefunction                     ... RHF
  Internal Orbitals:     1 ...    4 (  4 MO's/  8 electrons)
  Virtual  Orbitals:     5 ...   29 ( 25 MO's              )
Number of AO's                             ...     30
Number of electrons                        ...     10
Number of correlated electrons             ...      8

Algorithmic settings
--------------------
Integral transformation                    ... All integrals via the RI transformation
K(C) Formation                             ... RI-DLPNO
   PNO-Integral Storage                    ... ON DISK
   PNO occupation number cut-off           ... 3.330e-07
   Singles PNO occupation number cut-off   ... 9.990e-09
   PNO Mulliken prescreening cut-off       ... 1.000e-03
   Domain cut-off (Mulliken population)    ... 1.000e-03
   PNO Normalization                       ...    1
Maximum number of iterations               ...        50
Convergence tolerance (max. residuum)      ... 1.000e-05
Level shift for amplitude update           ... 2.000e-01
Maximum number of DIIS vectors             ...         7
DIIS turned on at iteration                ...         0
Damping before turning on DIIS             ...     0.500
Damping after turning on DIIS              ...     0.000
Pair specific amplitude update             ... OFF
Natural orbital iterations                 ... OFF
Perturbative natural orbital generation    ... OFF
Printlevel                                 ... 2

Singles Fock matrix elements calculated using PNOs.

Memory handling:
----------------
Maximum memory for working arrays          ...   1150 MB
Data storage in matrix containers          ... UNCOMPRESSED
Data type for integral storage             ... DOUBLE
In-Core Storage of quantities:
   Amplitudes+Sigma Vector      ... NO
   J+K operators                ... NO
   DIIS vectors                 ... NO
   3-external integrals         ... NO
   4-external integrals         ... NO

Localization treatment:
-----------------------
Localization option                        ...    6
Localization threshhold                    ... -1.0e+00
Using relative localization threshhold     ... 1.0e-08
Neglect threshold for strong pairs         ... 1.000e-04 Eh
Prescreening threshold for very weak pairs ... 1.000e-06 Eh

Initializing the integral package          ... done
Localizing the valence orbitals
------------------------------------------------------------------------------
                           ORCA ORBITAL LOCALIZATION
------------------------------------------------------------------------------

Input orbitals are from                  ... neon.gbw
Output orbitals are to                   ... neon.loc
Max. number of iterations                ... 128
Localizations seeded randomly            ... off
Convergence tolerance                    ... 1.000e-06
Using relative localization threshhold   ... 1.000e-08
Treshold for strong local MOs            ... 9.500e-01
Treshold for bond MOs                    ... 8.500e-01
Operator                                 ... 0
Orbital range for localization           ... 1 to 4
Localization criterion                   ... FOSTER-BOYS (AUGMENTED HESSIAN)
Doing the dipole integrals     ... o.k.
Initial value of the localization sum :     0.000000
ITERATION   0 : L=    0.7888061035 DL=  7.89e-01 (AVERGE_DL)=    0.3625847265 
ITERATION   1 : L=    0.8126611268 DL=  2.39e-02 (AVERGE_DL)=    0.0630542403 
ITERATION   2 : L=    0.8141520657 DL=  1.49e-03 (AVERGE_DL)=    0.0157635601 
ITERATION   3 : L=    0.8142452494 DL=  9.32e-05 (AVERGE_DL)=    0.0039408900 
ITERATION   4 : L=    0.8142510734 DL=  5.82e-06 (AVERGE_DL)=    0.0009852225 
ITERATION   5 : L=    0.8142514374 DL=  3.64e-07 (AVERGE_DL)=    0.0002463056 
LOCALIZATION SUM CONVERGED

------------------------------------------------------
AUGMENTED HESSIAN OPTIMIZATION OF FOSTER-BOYS ORBITALS
------------------------------------------------------

Spin operator:           0
Orbital window:          1 to 4
Number of iterations:    128
Gradient tolerance:      1.000e-06
Number of pairs:         6
Davidson threshold:      2000
Diagonalization method:  LAPACK
Iter:    0   L: 0.8142514374   Grad. norm: 3.246654e-04
   *** Detected a saddle point. ***
       Augmented Hessian eigenvalues:  4.85e-08  1.21e-08  1.21e-08 -1.73e-15 ... 
Iter:    1   L: 0.8142514616   Grad. norm: 7.273612e-08
   *** Likely close to a maximum now. ***
       Augmented Hessian eigenvalues:  2.53e-15  1.09e-15  6.07e-16 -1.40e-15 ... 
Iter:    2   L: 0.8142514616   Grad. norm: 7.659660e-09
LOCALIZATION HAS CONVERGED.

Eigenvalues of the Hessian:
  0 -1.041e-16
  1 -4.437e-16
  2 -1.340e-15
  3 -2.171e+00
  4 -2.171e+00
  5 -2.171e+00


------------------------------------------------------------------------------- 
                    LOCALIZED MOLECULAR ORBITAL COMPOSITIONS                   
------------------------------------------------------------------------------- 

The Mulliken populations for each LMO on each atom are computed
The LMO`s will be ordered according to atom index and type
  (A) Strongly localized MO`s have populations of >=0.950 on one atom
  (B) Two center bond orbitals have populations of >=0.850 on two atoms
  (C) Other MO`s are considered to be `delocalized`

FOUND  -   4 strongly local MO`s
       -   0 two center bond MO`s
       -   0 significantly delocalized MO`s

Rather strongly localized orbitals:
MO   4:   0Ne -   1.000000
MO   3:   0Ne -   1.000000
MO   2:   0Ne -   1.000000
MO   1:   0Ne -   1.000000
Localized MO's were stored in: neon.loc

Localizing the core orbitals
------------------------------------------------------------------------------
                           ORCA ORBITAL LOCALIZATION
------------------------------------------------------------------------------

Input orbitals are from                  ... neon.loc
Output orbitals are to                   ... neon.loc
Max. number of iterations                ... 128
Localizations seeded randomly            ... off
Convergence tolerance                    ... 1.000e-06
Using relative localization threshhold   ... 1.000e-08
Treshold for strong local MOs            ... 9.500e-01
Treshold for bond MOs                    ... 8.500e-01
Operator                                 ... 0
Orbital range for localization           ... 0 to 0
Localization criterion                   ... FOSTER-BOYS (AUGMENTED HESSIAN)
Doing the dipole integrals     ... o.k.

ORCA_LOC: ONLY ONE ORBITAL - SKIPPING LOCALIZATION


------------------------------------------------------------------------------- 
                    LOCALIZED MOLECULAR ORBITAL COMPOSITIONS                   
------------------------------------------------------------------------------- 

The Mulliken populations for each LMO on each atom are computed
The LMO`s will be ordered according to atom index and type
  (A) Strongly localized MO`s have populations of >=0.950 on one atom
  (B) Two center bond orbitals have populations of >=0.850 on two atoms
  (C) Other MO`s are considered to be `delocalized`

FOUND  -   1 strongly local MO`s
       -   0 two center bond MO`s
       -   0 significantly delocalized MO`s

Rather strongly localized orbitals:
MO   0:   0Ne -   1.000000
Localized MO's were stored in: neon.loc

Warning: reference  - re-canonicalizations have been set to INT 1 VIRT 1
Warning: internal orbitals are localized - no re-canonicalization of internal orbitals
Warning: UsePNO is turned on - no re-canonicalization of internal and virtual orbitals

--------------------------
CLOSED-SHELL FOCK OPERATOR
--------------------------

Entering RIJCOSX section for the Fock matrix
Trying to retrieve the full J-matrix              ... done
Updating the Fock matrix                          ... done
Making the frozen core Coulomb matrix             ... done
Retrieving the full K-matrix                      ... done
Calculating the frozen core K-matrix              ... done
Updating the Fock matrix                          ... done
[...]
   TCutMKN                    ...     1.0e-02
   TCutDO                     ...     2.0e-02
   TCutPairs                  ...     1.0e-04
   TCutPNO_CrudeMP2           ...     3.3e-07
   TCutPNOSingles_CrudeMP2    ...     1.0e-08
--------------------------------
LOCAL RI TRANSFORMATION (IAVPAO)
--------------------------------

Orbital window:       1 to 4
Number of PAOs:      30
Basis functions:     30 (10 shells)
Aux. functions:     159 (43 shells)

Processing maps (0.0 sec)
Average map sizes:
   Aux shells -> MOs               4.0
   Aux shells -> PAOs             30.0
   MOs        -> AO shells        10.0
   PAOs       -> AO shells        10.0

Calculating integrals (0.1 sec, 0.147 MB)
Sorting integrals (0.0 sec, 0.146 MB)
Total time for the integral transformation: 0.1 sec
--------------------------------
INITIAL GUESS AND PNO GENERATION
--------------------------------

PNO truncation parameters                   .... 
    PAOOverlapThresh   =        1.000e-08

    TCutPairs          =        1.000e-04
    TCutPNO            =        3.330e-07
    TCutPNOSingles     =        9.990e-09
    TCutMP2Pairs       =        1.000e-05
    TCutMKN            =        1.000e-02
    TCutDO             =        2.000e-02

Pair selection                          .... not used
Type of local MP2 treatment                 .... semi-local MP2
Strategy for PNO selection                  .... occupation number selection
Pair density normalization                  .... MP2 norm
Spin component scaling                      .... not used

   .... Finished loop over pairs
Making pair pair interaction lists          ... done

                       ===========================
                         10 OF   10 PAIRS ARE KEPT CCSD PAIRS
                          0 OF   10 PAIRS ARE KEPT MP2 PAIRS FOR (T)
                          0 OF   10 PAIRS ARE SKIPPED
                       ===========================

Total time spent in the initial guess                 ...     0.011 sec
SL-MP2 correlation energy (all non-screened pairs)    ...      -0.251038590832 Eh

Initial PNO correlation energy                        ...      -0.251012808003 Eh
sum of pair energies prescreened and skipped MP2 pairs...       0.000000000000 Eh
sum of pair energies of crude MP2 skipped pairs only  ...       0.000000000000 Eh
sum of MP2 pair energies for pairs that were not kept ...       0.000000000000 Eh
sum of PNO error estimates for the kept pairs         ...      -0.000025782829 Eh
                                                          --------------------
sum of all corrections                                         -0.000025782829
Initial total correlation energy                               -0.251038590832
Thresholds for map construction and integral transformation for fine MP2 and CCSD(T) calculation:
   TCutMKN   ...     1.0e-03
   TCutDO    ...     1.0e-02
   TCutPairs ...     1.0e-04
   TCutCMO   ...     1.0e-03
   TCutCPAO  ...     1.0e-03

Thresholds for map construction and integral transformation for strong Triples:
   TCutMKN   ...     1.0e-02
   TCutDO    ...     2.0e-02
   TCutCMO   ...     1.0e-03
   TCutCPAO  ...     1.0e-03

Thresholds for map construction and integral transformation for weak Triples:
   TCutMKN   ...     1.0e-01
   TCutDO    ...     4.0e-02
   TCutCMO   ...     1.0e-03
   TCutCPAO  ...     1.0e-03

--------------------------------
LOCAL RI TRANSFORMATION (IAVPAO)
--------------------------------

Orbital window:       1 to 4
Number of PAOs:      30
Basis functions:     30 (10 shells)
Aux. functions:     159 (43 shells)

Processing maps (0.0 sec)
Average map sizes:
   Aux shells -> MOs               4.0
   Aux shells -> PAOs             30.0
   MOs        -> AO shells        10.0
   PAOs       -> AO shells        10.0

Calculating integrals (0.1 sec, 0.147 MB)
Sorting integrals (0.0 sec, 0.146 MB)
Total time for the integral transformation: 0.1 sec
--------------------------------
INITIAL GUESS AND PNO GENERATION
--------------------------------

PNO truncation parameters                   .... 
    PAOOverlapThresh   =        1.000e-08

    TCutPairs          =        1.000e-04
    TCutPNO            =        3.330e-07
    TCutPNOSingles     =        9.990e-09
    TCutMP2Pairs       =        1.000e-05
    TCutMKN            =        1.000e-03
    TCutDO             =        1.000e-02

Pair selection                          .... not used
Type of local MP2 treatment                 .... semi-local MP2
Strategy for PNO selection                  .... occupation number selection
Pair density normalization                  .... MP2 norm
Spin component scaling                      .... not used

   .... Finished loop over pairs

 PNO Occupation Number Statistics: 
  | Av. % of trace(Dij) retained        ...  99.997217633978
  | sigma^2 in % of trace(Dij) retained ...   5.16e-06
  | Av. % of trace(Di) retained         ... 100.000000000000
  | sigma^2 in % of trace(Di) retained  ...   5.05e-28
 Distributions of % trace(Dij) recovered:
  |       >= 99.9  ...    10 (100.0 % of all pairs)
 Distributions of % trace(Di) recovered :
  |       >= 99.9  ...     4 (100.0 % of all I-pairs )

Making pair pair interaction lists          ... done

                       ===========================
                         10 OF   10 PAIRS ARE KEPT
                       ===========================

Total time spent in the initial guess                 ...     0.013 sec
SL-MP2 correlation energy (all non-screened pairs)    ...      -0.251038590832 Eh

Initial PNO correlation energy                        ...      -0.251012808003 Eh
sum of pair energies estimated for screened out pairs ...       0.000000000000 Eh
sum of MP2 pair energies for pairs that were not kept ...       0.000000000000 Eh
sum of PNO error estimates for the kept pairs         ...      -0.000025782829 Eh
                                                          --------------------
sum of all corrections                                         -0.000025782829
Initial total correlation energy                               -0.251038590832
Thresholds for map construction and integral transformation for fine MP2 and CCSD(T) calculation:
   TCutMKN   ...     1.0e-03
   TCutDO    ...     1.0e-02
   TCutPairs ...     1.0e-04
   TCutCMO   ...     1.0e-03
   TCutCPAO  ...     1.0e-03

Time for aux screen maps:            0.000
Time for maps after fine MP2:            0.000
-----------------------------
LOCAL RI TRANSFORMATION (IJV)
-----------------------------

Orbital window:       1 to 4
Basis functions:     30 (10 shells)
Aux. functions:     159 (43 shells)

Processing maps (0.0 sec)
Average map sizes:
   Aux shells -> MOs(i)            4.0
   Aux shells -> MOs(j)            4.0
   MOs        -> AO shells        10.0

Calculating integrals (0.1 sec, 0.021 MB)
Sorting integrals (0.0 sec, 0.019 MB)
Total time for the integral transformation: 0.1 sec
--------------------------------
LOCAL RI TRANSFORMATION (VABPAO)
--------------------------------

Number of PAOs:      30
Basis functions:     30 (10 shells)
Aux. functions:     159 (43 shells)

Processing maps (0.0 sec)
Average map sizes:
   Aux shells -> PAOs             30.0
   PAOs       -> AO shells        10.0

Calculating integrals (0.1 sec, 1.094 MB)
Finished


-------------------------------------
Pair Pair Term precalculation with     
RI-(ij|mn) and (im|jn) transformation  
ON THE FLY                             
-------------------------------------

   IBatch   1 (of   1)              ... done (    0.259 sec)
Total EXT                           ...           0.259 sec

---------------------
RI-PNO TRANSFORMATION
---------------------

Total Number of PNOs                   ...   244
Average number of PNOs per pair        ...    24
Maximal number of PNOs per pair        ...    25
   #pairs with  1 -  5 PNOs   :    0
   #pairs with  6 - 10 PNOs   :    0
   #pairs with 11 - 15 PNOs   :    0
   #pairs with 16 - 20 PNOs   :    0
   #pairs with 21 - 25 PNOs   :   10
   #pairs with 26 - 30 PNOs   :    0
   #pairs with 31 - 35 PNOs   :    0
   #pairs with 36 - 40 PNOs   :    0
   #pairs with 41 - 45 PNOs   :    0
   #pairs with 46 - 50 PNOs   :    0

Generation of (ij|ab)[P] integrals            ... on
Generation of (ia|bc)[P],(ja|bc)[P] integrals ... on
Storage of 3 and 4 external integrals         ... on
Generation of ALL (ka|bc)[P] integrals        ... on
Keep RI integrals in memory                   ... off

Ibatch:  1 (of  1)
Starting 2-4 index PNO integral generation ... done

Timings:
Total PNO integral transformation time     ...          0.131 sec
Size of the 3-external file                ...         1 MB
Size of the 4-external file                ...         3 MB
Size of the IKJL file                      ...         0 MB
Size of the all 3-external file            ...         2 MB
Size of the 1-external file                ...         0 MB

Making pair/pair overlap matrices          ... done (    0.003 sec)
Size of the pair overlap file              ... 0 MB
Redoing the guess amplitudes               ... done (    0.000 sec)

-------------------------
FINAL STARTUP INFORMATION
-------------------------

E(0)                                       ...   -128.531815423
E(SL-MP2)                                  ...     -0.251038591
E(SL-MP2) including corrections            ...     -0.251038591
Initial E(tot)                             ...   -128.782854014
<T|T>                                      ...      0.029758767
Number of pairs included                   ... 10
Total number of pairs                      ... 10

------------------------------------------------
                  RHF COUPLED CLUSTER ITERATIONS
------------------------------------------------

Number of PNO amplitudes to be optimized   ...         5956
Number of non-PNO amplitudes               ...         6250
Untruncated number of regular amplitudes   ...         6250

Iter       E(tot)           E(Corr)          Delta-E          Residual     Time
  0   -128.782853934     -0.251012728      0.000025862      0.018062893    0.08
                           *** Turning on DIIS ***
  1   -128.787118112     -0.255276906     -0.004264178      0.005301790    0.07
  2   -128.790232217     -0.258391012     -0.003114105      0.001256616    0.08
  3   -128.790537636     -0.258696430     -0.000305419      0.000427803    0.08
  4   -128.790621221     -0.258780015     -0.000083584      0.000053872    0.07
  5   -128.790626899     -0.258785694     -0.000005679      0.000014948    0.08
  6   -128.790626890     -0.258785684      0.000000009      0.000001684    0.08
               --- The Coupled-Cluster iterations have converged ---

----------------------
COUPLED CLUSTER ENERGY
----------------------

E(0)                                       ...   -128.531815423
E(CORR)(strong-pairs)                      ...     -0.258785684
E(CORR)(weak-pairs)                        ...     -0.000025783
E(CORR)(corrected)                         ...     -0.258811467
E(TOT)                                     ...   -128.790626890
Singles Norm <S|S>**1/2                    ...      0.013078724  
T1 diagnostic                              ...      0.004624027  

------------------
LARGEST AMPLITUDES
------------------
   1->  5   1->  5       0.023620
   3->  6   3->  6       0.022747
   3->  6   1->  5       0.019082
   2->  6   2->  6       0.018605
   2->  6   1->  5       0.018343
   4->  5   2->  6       0.017742
   4->  5   4->  5       0.017356
   4->  7   4->  7       0.015651
   4->  5   3->  6       0.015637
   4->  5   1->  5       0.014883
   2->  7   2->  7       0.014850
   2-> 12   2-> 12       0.014810
   3->  5   2->  5       0.014050
   1->  8   1->  8       0.013953
   4->  8   4->  8       0.013953
   3->  8   3->  8       0.013953


-------------------------------------------
DLPNO BASED TRIPLES CORRECTION
-------------------------------------------

Singles multiplier          ...  1.000000
TCutTNO                     ... 1.000e-09
TCutMP2Pairs                ... 1.000e-05
TCutDOStrong                ... 2.000e-02
TCutMKNStrong               ... 1.000e-02
TCutDOWeak                  ... 4.000e-02
TCutMKNWeak                 ... 1.000e-01

Fragment selection                          .... not used
Number of Triples that are to be computed   ...        16

 . . . . . . . . .
10% done  
20% done  
30% done  
40% done  
50% done  
60% done  
70% done  
80% done  
90% done               (      0.199 sec)
Triples timings:
Total time for T0               ...     0.208 sec
Total time for Iterative (T)    ...     0.000 sec
Total time of overall (T)       ...     0.208 sec

Triples List generation         ...     0.000 sec
TNO generation                  ...     0.008 sec
Pair density generation         ...     0.000 sec
Look up tables                  ...     0.000 sec
Generating 3-index integrals    ...     0.054 sec
  Make 4-ind.int. from 3-ind.int...     0.036 sec
  Projecting amplitudes (D + S) ...     0.004 sec
  Downprojecting integrals      ...     0.000 sec
  Energy contr. (sum over a,b,c)...     0.088 sec
Fitting ET(->0)                 ...     0.000 sec

Everything after 3-index        ...     0.145 sec

Timing details:
 TNO integrals                  ...     0.086 sec
   Reading 3-index integrals    ...     0.001 sec
   Sorting integrals            ...     0.006 sec
       Sorting integrals 1      ...     0.000 sec
       Sorting integrals 2      ...     0.003 sec
       Sorting integrals 3      ...     0.002 sec
       Sorting integrals 4      ...     0.000 sec
       Sorting integrals 5      ...     0.000 sec
       Sorting integrals 6      ...     0.001 sec
   Calculating local VM**-1/2   ...     0.005 sec
   Orthogonal. integrals        ...     0.009 sec
   Multipl. 3-index integrals   ...     0.065 sec
   All concerning IRIab (w/TNO) ...     0.019 sec

 Calculate W0/W1                ...     0.016 sec
 W 3-ext contribution           ...     0.011 sec
 W 3-int contribution           ...     0.003 sec
 Sorting W                      ...     0.001 sec

 V exchange contribution        ...     0.044 sec

 Timings for Triples without generation
     of 3-index integrals       ...     0.145 sec
       0 weak pairs             ...     0.145 sec
       1 weak pair              ...     0.000 sec
       2 weak pairs             ...     0.000 sec
       3 weak pairs             ...     0.000 sec
  Extra time for extrapolation  ...     0.000 sec

Number of Triples   (0, 1, 2, 3 weak pairs; overall):     16       0       0       0  (    16)
Number of Atoms     (0, 1, 2, 3 weak pairs; overall):    1.0     0.0     0.0     0.0  (     1)
Number of PAOs      (0, 1, 2, 3 weak pairs; overall):   30.0     0.0     0.0     0.0  (    30)
Number of AuxFcns   (0, 1, 2, 3 weak pairs; overall):  159.0     0.0     0.0     0.0  (   159)
Number of TNOs      (0, 1, 2, 3 weak pairs         ):   25.0     0.0     0.0     0.0
Aver. Number of NTNO, Atoms, PAOs, AuxFcns / Triples:     16    25.0     1.0    30.0   159.0

Triples Correction (T)                     ...     -0.003853552
Final correlation energy                   ...     -0.262665019
E(CCSD)                                    ...   -128.790626890
E(CCSD(T))                                 ...   -128.794480442


Maximum memory used throughout the entire calculation: 289.3 MB


------------------------------------------------------------------------------- 
                                     TIMINGS                                   
------------------------------------------------------------------------------- 


Total execution time                   ...        2.072 sec

Localization of occupied MO's          ...        0.184 sec (  8.9%)
Fock Matrix Formation                  ...        0.171 sec (  8.3%)
Global overlap, Fock, MKN matrices     ...        0.056 sec (  2.7%)
Differential overlap integrals         ...        0.041 sec (  2.0%)
Organizing maps                        ...        0.001 sec (  0.0%)
RI 3-index integral generations        ...        0.397 sec ( 19.2%)
RI-PNO integral transformation         ...        0.394 sec ( 19.0%)
Initial Guess                          ...        0.025 sec (  1.2%)
DIIS Solver                            ...        0.004 sec (  0.2%)
State Vector Update                    ...        0.000 sec (  0.0%)
Sigma-vector construction              ...        0.525 sec ( 25.3%)
  <D|H|D>(0-ext)                       ...        0.024 sec (  4.5% of sigma)
  <D|H|D>(2-ext Fock)                  ...        0.002 sec (  0.4% of sigma)
  <D|H|D>(2-ext)                       ...        0.073 sec ( 13.9% of sigma)
  <D|H|D>(4-ext)                       ...        0.085 sec ( 16.2% of sigma)
  <D|H|D>(4-ext-corr)                  ...        0.207 sec ( 39.4% of sigma)
  CCSD doubles correction              ...        0.003 sec (  0.6% of sigma)
  <S|H|S>                              ...        0.006 sec (  1.2% of sigma)
  <S|H|D>(1-ext)                       ...        0.006 sec (  1.2% of sigma)
  <S|H|D>(3-ext)                       ...        0.008 sec (  1.5% of sigma)
  Fock-dressing                        ...        0.053 sec ( 10.0% of sigma)
  (ik|jl)-dressing                     ...        0.015 sec (  2.8% of sigma)
  (ij|ab),(ia|jb)-dressing             ...        0.038 sec (  7.2% of sigma)
Total Time for computing (T)           ...        0.208 sec ( 10.0% of ALL)


-------------------------   --------------------
FINAL SINGLE POINT ENERGY      -128.794480442037
-------------------------   --------------------


                            ***************************************
                            *     ORCA property calculations      *
                            ***************************************

                                    ---------------------
                                    Active property flags
                                    ---------------------
   (+) Dipole Moment


------------------------------------------------------------------------------
                       ORCA ELECTRIC PROPERTIES CALCULATION
------------------------------------------------------------------------------

Dipole Moment Calculation                       ... on
Quadrupole Moment Calculation                   ... off
Polarizability Calculation                      ... off
GBWName                                         ... neon.gbw
Electron density file                           ... neon.scfp
The origin for moment calculation is the CENTER OF MASS  = ( 0.000000,  0.000000  0.000000)

-------------
DIPOLE MOMENT
-------------
                                X             Y             Z
Electronic contribution:     -0.00000      -0.00000      -0.00000
Nuclear contribution   :      0.00000       0.00000       0.00000
                        -----------------------------------------
Total Dipole Moment    :     -0.00000      -0.00000      -0.00000
                        -----------------------------------------
Magnitude (a.u.)       :      0.00000
Magnitude (Debye)      :      0.00000



--------------------
Rotational spectrum 
--------------------
 
Rotational constants in cm-1:     0.000000     0.000000     0.000000 
Rotational constants in MHz :     0.000000     0.000000     0.000000 

 Dipole components along the rotational axes: 
x,y,z [a.u.] :    -0.000000    -0.000000    -0.000000 
x,y,z [Debye]:    -0.000000    -0.000000    -0.000000 

 

Timings for individual modules:

Sum of individual times         ...        3.496 sec (=   0.058 min)
GTO integral calculation        ...        0.089 sec (=   0.001 min)   2.6 %
SCF iterations                  ...        1.313 sec (=   0.022 min)  37.6 %
MDCI module                     ...        2.093 sec (=   0.035 min)  59.9 %
                             ****ORCA TERMINATED NORMALLY****
TOTAL RUN TIME: 0 days 0 hours 0 minutes 3 seconds 634 msec
