
                                 *****************
                                 * O   R   C   A *
                                 *****************

           --- An Ab Initio, DFT and Semiempirical electronic structure package ---

                  #######################################################
                  #                        -***-                        #
                  #          Department of theory and spectroscopy      #
                  #               Directorship: Frank Neese             #
                  #        Max Planck Institute fuer Kohlenforschung    #
                  #                Kaiser Wilhelm Platz 1               #
                  #                 D-45470 Muelheim/Ruhr               #
                  #                      Germany                        #
                  #                                                     #
                  #                  All rights reserved                #
                  #                        -***-                        #
                  #######################################################


                         Program Version 4.2.1 -  RELEASE  -


 With contributions from (in alphabetic order):
   Daniel Aravena         : Magnetic Suceptibility
   Michael Atanasov       : Ab Initio Ligand Field Theory (pilot matlab implementation)
   Alexander A. Auer      : GIAO ZORA, VPT2
   Ute Becker             : Parallelization
   Giovanni Bistoni       : ED, misc. LED, open-shell LED, HFLD
   Martin Brehm           : Molecular dynamics
   Dmytro Bykov           : SCF Hessian
   Vijay G. Chilkuri      : MRCI spin determinant printing, contributions to CSF-ICE
   Dipayan Datta          : RHF DLPNO-CCSD density
   Achintya Kumar Dutta   : EOM-CC, STEOM-CC
   Dmitry Ganyushin       : Spin-Orbit,Spin-Spin,Magnetic field MRCI
   Miquel Garcia          : C-PCM Hessian, Gaussian charge scheme
   Yang Guo               : DLPNO-NEVPT2, CIM, IAO-localization
   Andreas Hansen         : Spin unrestricted coupled pair/coupled cluster methods
   Benjamin Helmich-Paris : CASSCF linear response (MC-RPA)
   Lee Huntington         : MR-EOM, pCC
   Robert Izsak           : Overlap fitted RIJCOSX, COSX-SCS-MP3, EOM
   Christian Kollmar      : KDIIS, OOCD, Brueckner-CCSD(T), CCSD density
   Simone Kossmann        : Meta GGA functionals, TD-DFT gradient, OOMP2, MP2 Hessian
   Martin Krupicka        : AUTO-CI
   Lucas Lang             : DCDCAS
   Dagmar Lenk            : GEPOL surface, SMD
   Dimitrios Liakos       : Extrapolation schemes; Compound Job, initial MDCI parallelization
   Dimitrios Manganas     : Further ROCIS development; embedding schemes
   Dimitrios Pantazis     : SARC Basis sets
   Taras Petrenko         : DFT Hessian,TD-DFT gradient, ASA, ECA, R-Raman, ABS, FL, XAS/XES, NRVS
   Peter Pinski           : DLPNO-MP2, DLPNO-MP2 Gradient
   Christoph Reimann      : Effective Core Potentials
   Marius Retegan         : Local ZFS, SOC
   Christoph Riplinger    : Optimizer, TS searches, QM/MM, DLPNO-CCSD(T), (RO)-DLPNO pert. Triples
   Tobias Risthaus        : Range-separated hybrids, TD-DFT gradient, RPA, STAB
   Michael Roemelt        : Original ROCIS implementation
   Masaaki Saitow         : Open-shell DLPNO-CCSD energy and density
   Barbara Sandhoefer     : DKH picture change effects
   Avijit Sen             : IP-ROCIS
   Kantharuban Sivalingam : CASSCF convergence, NEVPT2, FIC-MRCI
   Bernardo de Souza      : ESD, SOC TD-DFT
   Georgi Stoychev        : AutoAux, RI-MP2 NMR
   Willem Van den Heuvel  : Paramagnetic NMR
   Boris Wezisla          : Elementary symmetry handling
   Frank Wennmohs         : Technical directorship


 We gratefully acknowledge several colleagues who have allowed us to
 interface, adapt or use parts of their codes:
   Stefan Grimme, W. Hujo, H. Kruse,             : VdW corrections, initial TS optimization,
                  C. Bannwarth                     DFT functionals, gCP, sTDA/sTD-DF
   Ed Valeev, F. Pavosevic, A. Kumar             : LibInt (2-el integral package), F12 methods
   Garnet Chan, S. Sharma, J. Yang, R. Olivares  : DMRG
   Ulf Ekstrom                                   : XCFun DFT Library
   Mihaly Kallay                                 : mrcc  (arbitrary order and MRCC methods)
   Andreas Klamt, Michael Diedenhofen            : otool_cosmo (COSMO solvation model)
   Jiri Pittner, Ondrej Demel                    : Mk-CCSD
   Frank Weinhold                                : gennbo (NPA and NBO analysis)
   Christopher J. Cramer and Donald G. Truhlar   : smd solvation model
   Lars Goerigk                                  : TD-DFT with DH, B97 family of functionals
   V. Asgeirsson, H. Jonsson                     : NEB implementation
   FAccTs GmbH                                   : IRC, NEB, NEB-TS, Multilevel, MM, QM/MM, CI optimization
   S Lehtola, MJT Oliveira, MAL Marques          : LibXC Library


 Your calculation uses the libint2 library for the computation of 2-el integrals
 For citations please refer to: http://libint.valeyev.net

 Your ORCA version has been built with support for libXC version: 4.2.3
 For citations please refer to: https://tddft.org/programs/libxc/

 This ORCA versions uses:
   CBLAS   interface :  Fast vector & matrix operations
   LAPACKE interface :  Fast linear algebra routines
   SCALAPACK package :  Parallel linear algebra routines




***************************************
The coordinates will be read from file: init.xyz
***************************************


Your calculation utilizes the SMD solvation module
Please cite in your paper:
A.V. Marenich, C.J. Cramer, D.G. Truhlar J. Phys. Chem. B, 113, (2009), 6378 

----- Orbital basis set information -----
Your calculation utilizes the basis: cc-pVTZ 
       H, B-Ne : Obtained from the ccRepo (grant-hill.group.shef.ac.uk/ccrepo) Feb. 2017
                 T. H. Dunning, Jr., J. Chem. Phys. 90, 1007 (1989)
            He : Obtained from the ccRepo (grant-hill.group.shef.ac.uk/ccrepo) Feb. 2017
                 D. E. Woon, T. H. Dunning, Jr., J. Chem. Phys. 100, 2975 (1994)
  Li-Be, Na-Mg : Obtained from the ccRepo (grant-hill.group.shef.ac.uk/ccrepo) Feb. 2017
                 B. P. Prascher, D. E. Woon, K. A. Peterson, T. H. Dunning, Jr., A. K. Wilson, Theor. Chem. Acc. 128, 69 (2011)
         Al-Ar : Obtained from the ccRepo (grant-hill.group.shef.ac.uk/ccrepo) Feb. 2017
                 D. E. Woon, T. H. Dunning, Jr., J. Chem. Phys. 98, 1358 (1993)
            Ca : Obtained from the Peterson Research Group Website (tyr0.chem.wsu.edu/~kipeters) Feb. 2017
                 J. Koput, K. A. Peterson, J. Phys. Chem. 106, 9595 (2002)
         Sc-Zn : Obtained from the ccRepo (grant-hill.group.shef.ac.uk/ccrepo) Feb. 2017
                 N. B. Balabanov, K. A. Peterson, J. Chem. Phys. 123, 064107 (2005)
                 N. B. Balabanov, K. A. Peterson, J. Chem. Phys. 125, 074110 (2006)
         Ga-Kr : Obtained from the ccRepo (grant-hill.group.shef.ac.uk/ccrepo) Feb. 2017
                 A. K. Wilson, D. E. Woon, K. A. Peterson, T. H. Dunning, Jr., J. Chem. Phys. 110, 7667 (1999)
             Y : Obtained from the ccRepo (grant-hill.group.shef.ac.uk/ccrepo) Feb. 2017
                 K. A. Peterson, D. Figgen, M. Dolg, H. Stoll, J. Chem. Phys. 126, 124101 (2007)
        Ag, Au : Obtained from the Peterson Research Group Website (tyr0.chem.wsu.edu/~kipeters) Feb. 2017
                 K. A. Peterson, C. Puzzarini, Theor. Chem. Acc. 114, 283 (2005)

----- AuxJ basis set information -----
Your calculation utilizes the AutoAux generation procedure.
  G. L. Stoychev, A. A. Auer, F. Neese, J. Chem. Theory Comput. 13, 554 (2017)

----- AuxC basis set information -----
Your calculation utilizes the AutoAux generation procedure.
  G. L. Stoychev, A. A. Auer, F. Neese, J. Chem. Theory Comput. 13, 554 (2017)

----- AuxJK basis set information -----
Your calculation utilizes the AutoAux generation procedure.
  G. L. Stoychev, A. A. Auer, F. Neese, J. Chem. Theory Comput. 13, 554 (2017)

================================================================================
                                        WARNINGS
                       Please study these warnings very carefully!
================================================================================


WARNING: MDCI localization with Augmented Hessian Foster-Boys
  ===> : Switching off randomization!

WARNING: Post HF methods need fully converged wavefunctions
  ===> : Setting SCFConvForced true
         You can overwrite this default with %scf ConvForced false 


INFO   : the flag for use of LIBINT has been found!

================================================================================
                                       INPUT FILE
================================================================================
NAME = neon@water.inp
|  1> ! DLPNO-CCSD(T) cc-pVTZ RIJCOSX AutoAux TightSCF Grid4 FinalGrid5 PrintBasis PrintMOs
|  2> %maxcore 1150
|  3> 
|  4> * xyzfile 0 1 init.xyz
|  5> 
|  6> %cpcm
|  7>  smd true
|  8>  smdsolvent "water"
|  9> end
| 10> 
| 11>                          ****END OF INPUT****
================================================================================

                       ****************************
                       * Single Point Calculation *
                       ****************************

---------------------------------
CARTESIAN COORDINATES (ANGSTROEM)
---------------------------------
  Ne     0.000000    0.000000    0.000000

----------------------------
CARTESIAN COORDINATES (A.U.)
----------------------------
  NO LB      ZA    FRAG     MASS         X           Y           Z
   0 Ne   10.0000    0    20.179    0.000000    0.000000    0.000000

--------------------------------
INTERNAL COORDINATES (ANGSTROEM)
--------------------------------
 Ne     0   0   0     0.000000000000     0.00000000     0.00000000

---------------------------
INTERNAL COORDINATES (A.U.)
---------------------------
 Ne     0   0   0     0.000000000000     0.00000000     0.00000000

---------------------
BASIS SET INFORMATION
---------------------
There are 1 groups of distinct atoms

 Group   1 Type Ne  : 18s5p2d1f contracted to 4s3p2d1f pattern {8811/311/11/1}

Atom   0Ne   basis set group =>   1

-------------------------
BASIS SET IN INPUT FORMAT
-------------------------

 # Basis set for element : Ne
 NewGTO Ne
 S 8 
   1   24350.0000000000      0.0005145060
   2    3650.0000000000      0.0039776845
   3     829.6000000000      0.0204951706
   4     234.0000000000      0.0803715702
   5      75.6100000000      0.2353977500
   6      26.7300000000      0.4435020864
   7       9.9270000000      0.3593772874
   8       1.1020000000     -0.0078354543
 S 8 
   1   24350.0000000000     -0.0002006849
   2    3650.0000000000     -0.0015561583
   3     829.6000000000     -0.0080563080
   4     234.0000000000     -0.0327099371
   5      75.6100000000     -0.1026707322
   6      26.7300000000     -0.2423661267
   7       9.9270000000     -0.3022348526
   8       1.1020000000      1.0303570659
 S 1 
   1       2.8360000000      1.0000000000
 S 1 
   1       0.3782000000      1.0000000000
 P 3 
   1      54.7000000000      0.0423670170
   2      12.4300000000      0.2659357231
   3       3.6790000000      0.7946279757
 P 1 
   1       1.1430000000      1.0000000000
 P 1 
   1       0.3300000000      1.0000000000
 D 1 
   1       4.0140000000      1.0000000000
 D 1 
   1       1.0960000000      1.0000000000
 F 1 
   1       2.5440000000      1.0000000000
  end;

---------------------------------
AUXILIARY/J BASIS SET INFORMATION
---------------------------------
There are 1 groups of distinct atoms

 Group   1 Type Ne  : 14s11p10d5f3g contracted to 14s11p10d5f3g pattern {11111111111111/11111111111/1111111111/11111/111}

Atom   0Ne   basis set group =>   1

-------------------------------------
AUXILIARY/J BASIS SET IN INPUT FORMAT
-------------------------------------

 # Auxiliary/J basis set for element : Ne
 NewAuxJGTO Ne
 S 1 
   1    1374.3156811343      1.0000000000
 S 1 
   1     763.5087117413      1.0000000000
 S 1 
   1     424.1715065229      1.0000000000
 S 1 
   1     235.6508369572      1.0000000000
 S 1 
   1     130.9171316429      1.0000000000
 S 1 
   1      72.7317398016      1.0000000000
 S 1 
   1      40.4065221120      1.0000000000
 S 1 
   1      22.4480678400      1.0000000000
 S 1 
   1      12.4711488000      1.0000000000
 S 1 
   1       6.9284160000      1.0000000000
 S 1 
   1       3.8491200000      1.0000000000
 S 1 
   1       2.1384000000      1.0000000000
 S 1 
   1       1.1880000000      1.0000000000
 S 1 
   1       0.6600000000      1.0000000000
 P 1 
   1     235.6508369572      1.0000000000
 P 1 
   1     130.9171316429      1.0000000000
 P 1 
   1      72.7317398016      1.0000000000
 P 1 
   1      40.4065221120      1.0000000000
 P 1 
   1      22.4480678400      1.0000000000
 P 1 
   1      12.4711488000      1.0000000000
 P 1 
   1       6.9284160000      1.0000000000
 P 1 
   1       3.8491200000      1.0000000000
 P 1 
   1       2.1384000000      1.0000000000
 P 1 
   1       1.1880000000      1.0000000000
 P 1 
   1       0.6600000000      1.0000000000
 D 1 
   1     130.9171316429      1.0000000000
 D 1 
   1      72.7317398016      1.0000000000
 D 1 
   1      40.4065221120      1.0000000000
 D 1 
   1      22.4480678400      1.0000000000
 D 1 
   1      12.4711488000      1.0000000000
 D 1 
   1       6.9284160000      1.0000000000
 D 1 
   1       3.8491200000      1.0000000000
 D 1 
   1       2.1384000000      1.0000000000
 D 1 
   1       1.1880000000      1.0000000000
 D 1 
   1       0.6600000000      1.0000000000
 F 1 
   1      33.4049056000      1.0000000000
 F 1 
   1      15.1840480000      1.0000000000
 F 1 
   1       6.9018400000      1.0000000000
 F 1 
   1       3.1372000000      1.0000000000
 F 1 
   1       1.4260000000      1.0000000000
 G 1 
   1      10.6092800000      1.0000000000
 G 1 
   1       4.8224000000      1.0000000000
 G 1 
   1       2.1920000000      1.0000000000
  end;

---------------------------------
AUXILIARY/C BASIS SET INFORMATION
---------------------------------
There are 1 groups of distinct atoms

 Group   1 Type Ne  : 14s11p10d5f3g contracted to 14s11p10d5f3g pattern {11111111111111/11111111111/1111111111/11111/111}

Atom   0Ne   basis set group =>   1

-------------------------------------
AUXILIARY/C BASIS SET IN INPUT FORMAT
-------------------------------------

 # Auxiliary/C basis set for element : Ne
 NewAuxCGTO Ne
 S 1 
   1    1374.3156811343      1.0000000000
 S 1 
   1     763.5087117413      1.0000000000
 S 1 
   1     424.1715065229      1.0000000000
 S 1 
   1     235.6508369572      1.0000000000
 S 1 
   1     130.9171316429      1.0000000000
 S 1 
   1      72.7317398016      1.0000000000
 S 1 
   1      40.4065221120      1.0000000000
 S 1 
   1      22.4480678400      1.0000000000
 S 1 
   1      12.4711488000      1.0000000000
 S 1 
   1       6.9284160000      1.0000000000
 S 1 
   1       3.8491200000      1.0000000000
 S 1 
   1       2.1384000000      1.0000000000
 S 1 
   1       1.1880000000      1.0000000000
 S 1 
   1       0.6600000000      1.0000000000
 P 1 
   1     235.6508369572      1.0000000000
 P 1 
   1     130.9171316429      1.0000000000
 P 1 
   1      72.7317398016      1.0000000000
 P 1 
   1      40.4065221120      1.0000000000
 P 1 
   1      22.4480678400      1.0000000000
 P 1 
   1      12.4711488000      1.0000000000
 P 1 
   1       6.9284160000      1.0000000000
 P 1 
   1       3.8491200000      1.0000000000
 P 1 
   1       2.1384000000      1.0000000000
 P 1 
   1       1.1880000000      1.0000000000
 P 1 
   1       0.6600000000      1.0000000000
 D 1 
   1     130.9171316429      1.0000000000
 D 1 
   1      72.7317398016      1.0000000000
 D 1 
   1      40.4065221120      1.0000000000
 D 1 
   1      22.4480678400      1.0000000000
 D 1 
   1      12.4711488000      1.0000000000
 D 1 
   1       6.9284160000      1.0000000000
 D 1 
   1       3.8491200000      1.0000000000
 D 1 
   1       2.1384000000      1.0000000000
 D 1 
   1       1.1880000000      1.0000000000
 D 1 
   1       0.6600000000      1.0000000000
 F 1 
   1      33.4049056000      1.0000000000
 F 1 
   1      15.1840480000      1.0000000000
 F 1 
   1       6.9018400000      1.0000000000
 F 1 
   1       3.1372000000      1.0000000000
 F 1 
   1       1.4260000000      1.0000000000
 G 1 
   1      10.6092800000      1.0000000000
 G 1 
   1       4.8224000000      1.0000000000
 G 1 
   1       2.1920000000      1.0000000000
  end;

----------------------------------
AUXILIARY/JK BASIS SET INFORMATION
----------------------------------
There are 1 groups of distinct atoms

 Group   1 Type Ne  : 14s11p10d5f3g contracted to 14s11p10d5f3g pattern {11111111111111/11111111111/1111111111/11111/111}

Atom   0Ne   basis set group =>   1

--------------------------------------
AUXILIARY/JK BASIS SET IN INPUT FORMAT
--------------------------------------

 # Auxiliary/JK basis set for element : Ne
 NewAuxJKGTO Ne
 S 1 
   1    1374.3156811343      1.0000000000
 S 1 
   1     763.5087117413      1.0000000000
 S 1 
   1     424.1715065229      1.0000000000
 S 1 
   1     235.6508369572      1.0000000000
 S 1 
   1     130.9171316429      1.0000000000
 S 1 
   1      72.7317398016      1.0000000000
 S 1 
   1      40.4065221120      1.0000000000
 S 1 
   1      22.4480678400      1.0000000000
 S 1 
   1      12.4711488000      1.0000000000
 S 1 
   1       6.9284160000      1.0000000000
 S 1 
   1       3.8491200000      1.0000000000
 S 1 
   1       2.1384000000      1.0000000000
 S 1 
   1       1.1880000000      1.0000000000
 S 1 
   1       0.6600000000      1.0000000000
 P 1 
   1     235.6508369572      1.0000000000
 P 1 
   1     130.9171316429      1.0000000000
 P 1 
   1      72.7317398016      1.0000000000
 P 1 
   1      40.4065221120      1.0000000000
 P 1 
   1      22.4480678400      1.0000000000
 P 1 
   1      12.4711488000      1.0000000000
 P 1 
   1       6.9284160000      1.0000000000
 P 1 
   1       3.8491200000      1.0000000000
 P 1 
   1       2.1384000000      1.0000000000
 P 1 
   1       1.1880000000      1.0000000000
 P 1 
   1       0.6600000000      1.0000000000
 D 1 
   1     130.9171316429      1.0000000000
 D 1 
   1      72.7317398016      1.0000000000
 D 1 
   1      40.4065221120      1.0000000000
 D 1 
   1      22.4480678400      1.0000000000
 D 1 
   1      12.4711488000      1.0000000000
 D 1 
   1       6.9284160000      1.0000000000
 D 1 
   1       3.8491200000      1.0000000000
 D 1 
   1       2.1384000000      1.0000000000
 D 1 
   1       1.1880000000      1.0000000000
 D 1 
   1       0.6600000000      1.0000000000
 F 1 
   1      33.4049056000      1.0000000000
 F 1 
   1      15.1840480000      1.0000000000
 F 1 
   1       6.9018400000      1.0000000000
 F 1 
   1       3.1372000000      1.0000000000
 F 1 
   1       1.4260000000      1.0000000000
 G 1 
   1      10.6092800000      1.0000000000
 G 1 
   1       4.8224000000      1.0000000000
 G 1 
   1       2.1920000000      1.0000000000
  end;

------------------------------------------------------------------------------
                           ORCA GTO INTEGRAL CALCULATION
                           -- RI-GTO INTEGRALS CHOSEN --
------------------------------------------------------------------------------

                         BASIS SET STATISTICS AND STARTUP INFO

Gaussian basis set:
 # of primitive gaussian shells          ...   26
 # of primitive gaussian functions       ...   50
 # of contracted shells                  ...   10
 # of contracted basis functions         ...   30
 Highest angular momentum                ...    3
 Maximum contraction depth               ...    8
Auxiliary gaussian basis set:
 # of primitive gaussian shells          ...   43
 # of primitive gaussian functions       ...  159
 # of contracted shells                  ...   43
 # of contracted aux-basis functions     ...  159
 Highest angular momentum                ...    4
 Maximum contraction depth               ...    1
Ratio of auxiliary to basis functions    ...  5.30
Integral package used                  ... LIBINT
 One Electron integrals                  ... done
 Ordering auxiliary basis shells         ... done
 Integral threshhold             Thresh  ...  2.500e-11
 Primitive cut-off               TCut    ...  2.500e-12
 Pre-screening matrix                    ... done
 Shell pair data                         ... 
 Ordering of the shell pairs             ... done (   0.000 sec) 55 of 55 pairs
 Determination of significant pairs      ... done (   0.000 sec)
 Creation of shell pair data             ... done (   0.000 sec)
 Storage of shell pair data              ... done (   0.000 sec)
 Shell pair data done in (   0.000 sec)
 Computing two index integrals           ... done
 Cholesky decomposition of the V-matrix  ... done


Timings:
 Total evaluation time                   ...   0.071 sec (  0.001 min)
 One electron matrix time                ...   0.002 sec (  0.000 min) =  3.1%
 Schwartz matrix evaluation time         ...   0.051 sec (  0.001 min) = 72.5%
 Two index repulsion integral time       ...   0.000 sec (  0.000 min) =  0.5%
 Cholesky decomposition of V             ...   0.001 sec (  0.000 min) =  0.9%
 Three index repulsion integral time     ...   0.000 sec (  0.000 min) =  0.0%

-------------------------------------------------------------------------------
                                 ORCA SCF
-------------------------------------------------------------------------------

------------
SCF SETTINGS
------------
Hamiltonian:
 Ab initio Hamiltonian  Method          .... Hartree-Fock(GTOs)
 RI-approximation to the Coulomb term is turned on
   Number of auxiliary basis functions  .... 159
   RIJ-COSX (HFX calculated with COS-X)).... on


General Settings:
 Integral files         IntName         .... neon@water
 Hartree-Fock type      HFTyp           .... RHF
 Total Charge           Charge          ....    0
 Multiplicity           Mult            ....    1
 Number of Electrons    NEL             ....   10
 Basis Dimension        Dim             ....   30
 Nuclear Repulsion      ENuc            ....      0.0000000000 Eh

Convergence Acceleration:
 DIIS                   CNVDIIS         .... on
   Start iteration      DIISMaxIt       ....    12
   Startup error        DIISStart       ....  0.200000
   # of expansion vecs  DIISMaxEq       ....     5
   Bias factor          DIISBfac        ....   1.050
   Max. coefficient     DIISMaxC        ....  10.000
 Newton-Raphson         CNVNR           .... off
 SOSCF                  CNVSOSCF        .... on
   Start iteration      SOSCFMaxIt      ....   150
   Startup grad/error   SOSCFStart      ....  0.003300
 Level Shifting         CNVShift        .... on
   Level shift para.    LevelShift      ....    0.2500
   Turn off err/grad.   ShiftErr        ....    0.0010
 Zerner damping         CNVZerner       .... off
 Static damping         CNVDamp         .... on
   Fraction old density DampFac         ....    0.7000
   Max. Damping (<1)    DampMax         ....    0.9800
   Min. Damping (>=0)   DampMin         ....    0.0000
   Turn off err/grad.   DampErr         ....    0.1000
 Fernandez-Rico         CNVRico         .... off

SCF Procedure:
 Maximum # iterations   MaxIter         ....   125
 SCF integral mode      SCFMode         .... Direct
   Integral package                     .... LIBINT
 Reset frequency        DirectResetFreq ....    20
 Integral Threshold     Thresh          ....  2.500e-11 Eh
 Primitive CutOff       TCut            ....  2.500e-12 Eh

Convergence Tolerance:
 Convergence Check Mode ConvCheckMode   .... Total+1el-Energy
 Convergence forced     ConvForced      .... 1
 Energy Change          TolE            ....  1.000e-08 Eh
 1-El. energy change                    ....  1.000e-05 Eh
 Orbital Gradient       TolG            ....  1.000e-05
 Orbital Rotation angle TolX            ....  1.000e-05
 DIIS Error             TolErr          ....  5.000e-07


Diagonalization of the overlap matrix:
Smallest eigenvalue                        ... 4.266e-02
Time for diagonalization                   ...    0.001 sec
Threshold for overlap eigenvalues          ... 1.000e-08
Number of eigenvalues below threshold      ... 0
Time for construction of square roots      ...    0.000 sec
Total time needed                          ...    0.001 sec

-------------------
DFT GRID GENERATION
-------------------

General Integration Accuracy     IntAcc      ...  4.670
Radial Grid Type                 RadialGrid  ... Gauss-Chebyshev
Angular Grid (max. acc.)         AngularGrid ... Lebedev-302
Angular grid pruning method      GridPruning ... 3 (G Style)
Weight generation scheme         WeightScheme... Becke
Basis function cutoff            BFCut       ...    1.0000e-11
Integration weight cutoff        WCut        ...    1.0000e-14
Grids for H and He will be reduced by one unit

# of grid points (after initial pruning)     ...   6272 (   0.0 sec)
# of grid points (after weights+screening)   ...   6272 (   0.0 sec)
Grid point division into batches done        ...    0.0 sec
Reduced shell lists constructed in    0.0 sec

Total number of grid points                  ...     6272
Total number of batches                      ...       99
Average number of points per batch           ...       63
Average number of grid points per atom       ...     6272
Average number of shells per batch           ...     7.70 (77.00%)
Average number of basis functions per batch  ...    22.86 (76.20%)
Average number of large shells per batch     ...     7.28 (94.55%)
Average number of large basis fcns per batch ...    21.68 (94.84%)
Maximum spatial batch extension              ...  21.92, 16.88, 15.22 au
Average spatial batch extension              ...   4.38,  4.21,  4.00 au

Time for grid setup =    0.043 sec

------------------------------
INITIAL GUESS: MODEL POTENTIAL
------------------------------
Loading Hartree-Fock densities                     ... done
Calculating cut-offs                               ... done
Setting up the integral package                    ... done
Initializing the effective Hamiltonian             ... done
Starting the Coulomb interaction                   ... done (   0.0 sec)
Reading the grid                                   ... done
Mapping shells                                     ... done
Starting the XC term evaluation                    ... done (   0.0 sec)
Transforming the Hamiltonian                       ... done (   0.0 sec)
Diagonalizing the Hamiltonian                      ... done (   0.0 sec)
Back transforming the eigenvectors                 ... done (   0.0 sec)
Now organizing SCF variables                       ... done
                      ------------------
                      INITIAL GUESS DONE (   0.1 sec)
                      ------------------
--------------------
COSX GRID GENERATION
--------------------

General Integration Accuracy     IntAcc      ...  3.340
Radial Grid Type                 RadialGrid  ... Gauss-Chebyshev
Angular Grid (max. acc.)         AngularGrid ... Lebedev-50
Angular grid pruning method      GridPruning ... 3 (G Style)
Weight generation scheme         WeightScheme... Becke
Basis function cutoff            BFCut       ...    1.0000e-11
Integration weight cutoff        WCut        ...    1.0000e-14
Grids for H and He will be reduced by one unit

# of grid points (after initial pruning)     ...    556 (   0.0 sec)
# of grid points (after weights+screening)   ...    556 (   0.0 sec)
Grid point division into batches done        ...    0.0 sec
Reduced shell lists constructed in    0.0 sec

Total number of grid points                  ...      556
Total number of batches                      ...        9
Average number of points per batch           ...       61
Average number of grid points per atom       ...      556
Average number of shells per batch           ...     9.00 (90.00%)
Average number of basis functions per batch  ...    27.00 (90.00%)
Average number of large shells per batch     ...     9.00 (100.00%)
Average number of large basis fcns per batch ...    27.00 (100.00%)
Maximum spatial batch extension              ...  16.92, 20.72, 20.72 au
Average spatial batch extension              ...   7.61,  8.48, 12.59 au

Overlap Fitting                  UseSFitting ... on
Constructing numerical overlap ... done (      0.0 sec)
Inverting numerical overlap    ... done (      0.0 sec)
Obtaining analytic overlap     ... done (      0.0 sec)
Final contraction and storage  ... done (      0.0 sec)


General Integration Accuracy     IntAcc      ...  3.670
Radial Grid Type                 RadialGrid  ... Gauss-Chebyshev
Angular Grid (max. acc.)         AngularGrid ... Lebedev-50
Angular grid pruning method      GridPruning ... 3 (G Style)
Weight generation scheme         WeightScheme... Becke
Basis function cutoff            BFCut       ...    1.0000e-11
Integration weight cutoff        WCut        ...    1.0000e-14
Grids for H and He will be reduced by one unit

# of grid points (after initial pruning)     ...    720 (   0.0 sec)
# of grid points (after weights+screening)   ...    720 (   0.0 sec)
Grid point division into batches done        ...    0.0 sec
Reduced shell lists constructed in    0.0 sec

Total number of grid points                  ...      720
Total number of batches                      ...       12
Average number of points per batch           ...       60
Average number of grid points per atom       ...      720
Average number of shells per batch           ...     9.23 (92.31%)
Average number of basis functions per batch  ...    27.69 (92.31%)
Average number of large shells per batch     ...     8.77 (95.00%)
Average number of large basis fcns per batch ...    26.31 (95.00%)
Maximum spatial batch extension              ...  18.51, 22.67, 22.67 au
Average spatial batch extension              ...   6.69,  9.94, 10.67 au

Overlap Fitting                  UseSFitting ... on
Constructing numerical overlap ... done (      0.0 sec)
Inverting numerical overlap    ... done (      0.0 sec)
Obtaining analytic overlap     ... done (      0.0 sec)
Final contraction and storage  ... done (      0.0 sec)


General Integration Accuracy     IntAcc      ...  4.010
Radial Grid Type                 RadialGrid  ... Gauss-Chebyshev
Angular Grid (max. acc.)         AngularGrid ... Lebedev-110
Angular grid pruning method      GridPruning ... 3 (G Style)
Weight generation scheme         WeightScheme... Becke
Basis function cutoff            BFCut       ...    1.0000e-11
Integration weight cutoff        WCut        ...    1.0000e-14
Grids for H and He will be reduced by one unit

# of grid points (after initial pruning)     ...   1446 (   0.0 sec)
# of grid points (after weights+screening)   ...   1446 (   0.0 sec)
Grid point division into batches done        ...    0.0 sec
Reduced shell lists constructed in    0.0 sec

Total number of grid points                  ...     1446
Total number of batches                      ...       23
Average number of points per batch           ...       62
Average number of grid points per atom       ...     1446
Average number of shells per batch           ...     8.75 (87.50%)
Average number of basis functions per batch  ...    25.92 (86.39%)
Average number of large shells per batch     ...     8.25 (94.29%)
Average number of large basis fcns per batch ...    24.42 (94.21%)
Maximum spatial batch extension              ...  14.65, 24.28, 24.28 au
Average spatial batch extension              ...   7.57,  8.66,  9.52 au

Overlap Fitting                  UseSFitting ... on
Constructing numerical overlap ... done (      0.0 sec)
Inverting numerical overlap    ... done (      0.0 sec)
Obtaining analytic overlap     ... done (      0.0 sec)
Final contraction and storage  ... done (      0.0 sec)

Time for X-Grid setup             =    0.081 sec

--------------------
CPCM SOLVATION MODEL
--------------------
CPCM parameters:
  Epsilon                                         ...      78.3550
  Refrac                                          ...       1.0000
  Rsolv                                           ...       1.3000
  Surface type                                    ...    GEPOL SES
  Epsilon function type                           ...         CPCM
Solvent:                                     ... WATER
SMD-CDS solvent descriptors:
  Soln                                       ...    1.3328
  Soln25                                     ...    1.3323
  Sola                                       ...    0.0000
  Solb                                       ...    0.0000
  Solg                                       ...    0.0000
  Solc                                       ...    0.0000
  Solh                                       ...    0.0000
Radii:
 Radius for Ne used is    2.9102 Bohr (=   1.5400 Ang.)
Calculating surface                               ...        done! (  0.0s)
GEPOL surface points                              ...           60
GEPOL Volume                                      ...     103.2399
GEPOL Surface-area                                ...     106.4263
Calculating surface distance matrix               ...        done! (  0.0s)
Performing Cholesky decomposition & store         ...        done! (  0.0s)
Overall time for CPCM initialization              ...                 0.0s
--------------
SCF ITERATIONS
--------------
ITER       Energy         Delta-E        Max-DP      RMS-DP      [F,P]     Damp
               ***  Starting incremental Fock matrix formation  ***
  0   -128.5173268075   0.000000000000 0.01751237  0.00155050  0.2469840 0.7000
  1   -128.5217829583  -0.004456150868 0.01354328  0.00118982  0.1756799 0.7000
                               ***Turning on DIIS***
  2   -128.5249382414  -0.003155283091 0.00968809  0.00084254  0.1248365 0.7000
  3   -128.4742004028   0.050737838667 0.02384278  0.00202005  0.0889399 0.0000
                      *** Initiating the SOSCF procedure ***
                           *** Shutting down DIIS ***
                      *** Re-Reading the Fockian *** 
                      *** Removing any level shift *** 
ITER      Energy       Delta-E        Grad      Rot      Max-DP    RMS-DP
  4   -128.53070471  -0.0565043046  0.002661  0.002661  0.001396  0.000081
               *** Restarting incremental Fock matrix formation ***
  5   -128.53257713  -0.0018724268  0.000304  0.000091  0.000254  0.000012
  6   -128.53257722  -0.0000000845  0.000072  0.000028  0.000069  0.000003
  7   -128.53257722  -0.0000000025  0.000008  0.000003  0.000004  0.000000
                  ***Gradient check signals convergence***
              ***Rediagonalizing the Fockian in SOSCF/NRSCF***

               *****************************************************
               *                     SUCCESS                       *
               *           SCF CONVERGED AFTER   8 CYCLES          *
               *****************************************************

Old exchange energy                            =    -12.114267865 Eh
New exchange energy                            =    -12.113509377 Eh
Exchange energy change after final integration =      0.000758488 Eh
Total energy after final integration           =   -128.531818733 Eh
Final COS-X integration done in                =     0.055 sec

SMD CDS free energy correction energy :                 0.00000     Kcal/mol
Total Energy after SMD CDS correction =              -128.531818733 Eh

----------------
TOTAL SCF ENERGY
----------------

Total Energy       :         -128.53181873 Eh           -3497.52860 eV

Components:
Nuclear Repulsion  :            0.00000000 Eh               0.00000 eV
Electronic Energy  :         -128.53181873 Eh           -3497.52860 eV
One Electron Energy:         -182.59872629 Eh           -4968.76395 eV
Two Electron Energy:           54.06690755 Eh            1471.23535 eV
CPCM Dielectric    :           -0.00000138 Eh              -0.00004 eV

Virial components:
Potential Energy   :         -257.06556614 Eh           -6995.10968 eV
Kinetic Energy     :          128.53374740 Eh            3497.58108 eV
Virial Ratio       :            1.99998499

CPCM Solvation Model Properties:
Surface-charge          :           -0.00285303
Charge-correction       :            0.00000138 Eh               0.00004 eV
Free-energy (cav+disp)  :            0.00242639 Eh               0.06603 eV
Corrected G(solv)       :         -128.52939096 Eh           -3497.46254 eV

---------------
SCF CONVERGENCE
---------------

  Last Energy change         ...   -5.3859e-11  Tolerance :   1.0000e-08
  Last MAX-Density change    ...    4.4409e-16  Tolerance :   1.0000e-07
  Last RMS-Density change    ...    3.1642e-17  Tolerance :   5.0000e-09
  Last Orbital Gradient      ...    2.3426e-06  Tolerance :   1.0000e-05
  Last Orbital Rotation      ...    7.6251e-07  Tolerance :   1.0000e-05

             **** THE GBW FILE WAS UPDATED (neon@water.gbw) ****
             **** DENSITY FILE WAS UPDATED (neon@water.scfp) ****
             **** ENERGY FILE WAS UPDATED (neon@water.en.tmp) ****
             **** THE GBW FILE WAS UPDATED (neon@water.gbw) ****
             **** DENSITY FILE WAS UPDATED (neon@water.scfp) ****
----------------
ORBITAL ENERGIES
----------------

  NO   OCC          E(Eh)            E(eV) 
   0   2.0000     -32.768770      -891.6836 
   1   2.0000      -1.926201       -52.4146 
   2   2.0000      -0.844473       -22.9793 
   3   2.0000      -0.844473       -22.9793 
   4   2.0000      -0.844473       -22.9793 
   5   0.0000       1.099713        29.9247 
   6   0.0000       1.099713        29.9247 
   7   0.0000       1.099713        29.9247 
   8   0.0000       1.418603        38.6021 
   9   0.0000       3.105519        84.5055 
  10   0.0000       3.105519        84.5055 
  11   0.0000       3.105519        84.5055 
  12   0.0000       3.105519        84.5055 
  13   0.0000       3.105519        84.5055 
  14   0.0000       6.156791       167.5348 
  15   0.0000       6.156791       167.5348 
  16   0.0000       6.156791       167.5348 
  17   0.0000       9.648353       262.5450 
  18   0.0000       9.648353       262.5450 
  19   0.0000       9.648353       262.5450 
  20   0.0000       9.648353       262.5450 
  21   0.0000       9.648353       262.5450 
  22   0.0000       9.648353       262.5450 
  23   0.0000       9.648353       262.5450 
  24   0.0000      11.578554       315.0685 
  25   0.0000      11.578554       315.0685 
  26   0.0000      11.578554       315.0685 
  27   0.0000      11.578554       315.0685 
  28   0.0000      11.578554       315.0685 
  29   0.0000      11.745209       319.6034 
------------------
MOLECULAR ORBITALS
------------------
                      0         1         2         3         4         5   
                 -32.76877  -1.92620  -0.84447  -0.84447  -0.84447   1.09971
                   2.00000   2.00000   2.00000   2.00000   2.00000   0.00000
                  --------  --------  --------  --------  --------  --------
  0Ne  1s        -0.975720 -0.000012  0.000000  0.000000  0.000000  0.000000
  0Ne  2s        -0.000026  0.587977  0.000000  0.000000  0.000000  0.000000
  0Ne  3s        -0.043878  0.177386  0.000000  0.000000  0.000000 -0.000000
  0Ne  4s        -0.002365  0.365093 -0.000000 -0.000000  0.000000 -0.000000
  0Ne  1pz       -0.000000 -0.000000 -0.264593 -0.055472  0.301312  0.084856
  0Ne  1px       -0.000000  0.000000  0.041992 -0.400933 -0.036938 -0.175318
  0Ne  1py       -0.000000  0.000000 -0.303484 -0.007113 -0.267810  0.164353
  0Ne  2pz       -0.000000 -0.000000 -0.317148 -0.066490  0.361160  0.234153
  0Ne  2px        0.000000  0.000000  0.050333 -0.480569 -0.044275 -0.483774
  0Ne  2py       -0.000000  0.000000 -0.363763 -0.008525 -0.321004  0.453516
  0Ne  3pz       -0.000000  0.000000 -0.217394 -0.045577  0.247562 -0.394298
  0Ne  3px       -0.000000  0.000000  0.034501 -0.329413 -0.030349  0.814641
  0Ne  3py       -0.000000  0.000000 -0.249347 -0.005844 -0.220037 -0.763690
  0Ne  1dz2       0.000000  0.000000 -0.000000 -0.000000  0.000000 -0.000000
  0Ne  1dxz       0.000000  0.000000  0.000000  0.000000 -0.000000 -0.000000
  0Ne  1dyz      -0.000000 -0.000000  0.000000  0.000000  0.000000 -0.000000
  0Ne  1dx2y2    -0.000000 -0.000000  0.000000 -0.000000 -0.000000 -0.000000
  0Ne  1dxy      -0.000000 -0.000000 -0.000000  0.000000  0.000000  0.000000
  0Ne  2dz2       0.000000 -0.000000  0.000000  0.000000 -0.000000 -0.000000
  0Ne  2dxz       0.000000 -0.000000 -0.000000 -0.000000  0.000000 -0.000000
  0Ne  2dyz       0.000000 -0.000000 -0.000000 -0.000000 -0.000000  0.000000
  0Ne  2dx2y2     0.000000 -0.000000  0.000000 -0.000000 -0.000000 -0.000000
  0Ne  2dxy       0.000000 -0.000000  0.000000 -0.000000 -0.000000  0.000000
  0Ne  1f0       -0.000000  0.000000  0.000000  0.000000 -0.000000 -0.000000
  0Ne  1f+1       0.000000 -0.000000  0.000000 -0.000000 -0.000000 -0.000000
  0Ne  1f-1       0.000000 -0.000000 -0.000000 -0.000000 -0.000000  0.000000
  0Ne  1f+2      -0.000000 -0.000000  0.000000  0.000000  0.000000 -0.000000
  0Ne  1f-2       0.000000  0.000000 -0.000000 -0.000000 -0.000000 -0.000000
  0Ne  1f+3      -0.000000 -0.000000  0.000000 -0.000000 -0.000000 -0.000000
  0Ne  1f-3      -0.000000  0.000000  0.000000  0.000000  0.000000 -0.000000
                      6         7         8         9        10        11   
                   1.09971   1.09971   1.41860   3.10552   3.10552   3.10552
                   0.00000   0.00000   0.00000   0.00000   0.00000   0.00000
                  --------  --------  --------  --------  --------  --------
  0Ne  1s         0.000000  0.000000  0.509806  0.000000  0.000000 -0.000000
  0Ne  2s         0.000000  0.000000  1.396915  0.000000 -0.000000 -0.000000
  0Ne  3s        -0.000000 -0.000000  0.245656 -0.000000 -0.000000 -0.000000
  0Ne  4s        -0.000000 -0.000000 -1.653173 -0.000000  0.000000  0.000000
  0Ne  1pz        0.005506 -0.240245 -0.000000 -0.000000 -0.000000 -0.000000
  0Ne  1px        0.175671 -0.057897 -0.000000  0.000000  0.000000 -0.000000
  0Ne  1py        0.184548  0.062280 -0.000000  0.000000  0.000000  0.000000
  0Ne  2pz        0.015194 -0.662936 -0.000000  0.000000  0.000000  0.000000
  0Ne  2px        0.484748 -0.159763 -0.000000 -0.000000  0.000000 -0.000000
  0Ne  2py        0.509245  0.171856 -0.000000  0.000000 -0.000000 -0.000000
  0Ne  3pz       -0.025585  1.116337  0.000000  0.000000 -0.000000  0.000000
  0Ne  3px       -0.816282  0.269029  0.000000  0.000000 -0.000000  0.000000
  0Ne  3py       -0.857533 -0.289394  0.000000 -0.000000  0.000000  0.000000
  0Ne  1dz2      -0.000000 -0.000000 -0.000000  0.000001  0.000003  0.000001
  0Ne  1dxz      -0.000000  0.000000 -0.000000  0.016622  0.002387 -0.024568
  0Ne  1dyz      -0.000000 -0.000000  0.000000 -0.010259 -0.026272 -0.009494
  0Ne  1dx2y2     0.000000 -0.000000  0.000000 -0.000001  0.000006  0.000001
  0Ne  1dxy       0.000000 -0.000000 -0.000000  0.022451 -0.013773  0.013852
  0Ne  2dz2       0.000000 -0.000000  0.000000 -0.000034 -0.000118 -0.000043
  0Ne  2dxz       0.000000 -0.000000  0.000000 -0.566715 -0.081370  0.837614
  0Ne  2dyz       0.000000  0.000000  0.000000  0.349779  0.895699  0.323667
  0Ne  2dx2y2     0.000000 -0.000000  0.000000  0.000033 -0.000219 -0.000049
  0Ne  2dxy      -0.000000  0.000000 -0.000000 -0.765423  0.469558 -0.472256
  0Ne  1f0       -0.000000  0.000000  0.000000  0.000000  0.000000  0.000000
  0Ne  1f+1       0.000000 -0.000000  0.000000 -0.000000  0.000000 -0.000000
  0Ne  1f-1       0.000000  0.000000  0.000000  0.000000  0.000000  0.000000
  0Ne  1f+2      -0.000000 -0.000000 -0.000000 -0.000000  0.000000 -0.000000
  0Ne  1f-2       0.000000  0.000000  0.000000 -0.000000 -0.000000  0.000000
  0Ne  1f+3       0.000000 -0.000000  0.000000 -0.000000  0.000000 -0.000000
  0Ne  1f-3      -0.000000 -0.000000  0.000000 -0.000000  0.000000 -0.000000
                     12        13        14        15        16        17   
                   3.10552   3.10552   6.15679   6.15679   6.15679   9.64835
                   0.00000   0.00000   0.00000   0.00000   0.00000   0.00000
                  --------  --------  --------  --------  --------  --------
  0Ne  1s        -0.000000  0.000000  0.000000  0.000000  0.000000 -0.000000
  0Ne  2s        -0.000000  0.000000  0.000000  0.000000  0.000000 -0.000000
  0Ne  3s        -0.000000  0.000000 -0.000000 -0.000000 -0.000000  0.000000
  0Ne  4s         0.000000 -0.000000 -0.000000 -0.000000 -0.000000  0.000000
  0Ne  1pz        0.000000  0.000000  0.684461  0.158230 -0.983173  0.000000
  0Ne  1px       -0.000000 -0.000000 -0.280710  1.175293 -0.006273 -0.000000
  0Ne  1py        0.000000  0.000000  0.955441  0.231949  0.702484  0.000000
  0Ne  2pz       -0.000000 -0.000000 -0.799890 -0.184915  1.148977 -0.000000
  0Ne  2px        0.000000  0.000000  0.328049 -1.373497  0.007331  0.000000
  0Ne  2py       -0.000000 -0.000000 -1.116568 -0.271065 -0.820952 -0.000000
  0Ne  3pz       -0.000000  0.000000  0.321257  0.074267 -0.461460  0.000000
  0Ne  3px        0.000000 -0.000000 -0.131753  0.551633 -0.002944 -0.000000
  0Ne  3py        0.000000  0.000000  0.448444  0.108867  0.329716  0.000000
  0Ne  1dz2       0.000170  0.029758  0.000000  0.000000 -0.000000  0.000000
  0Ne  1dxz      -0.000001  0.000000 -0.000000 -0.000000  0.000000 -0.000000
  0Ne  1dyz      -0.000006  0.000004  0.000000  0.000000 -0.000000  0.000000
  0Ne  1dx2y2    -0.029758  0.000170  0.000000 -0.000000 -0.000000 -0.000000
  0Ne  1dxy      -0.000003  0.000000  0.000000  0.000000  0.000000  0.000000
  0Ne  2dz2      -0.005780 -1.014569  0.000000 -0.000000 -0.000000 -0.000000
  0Ne  2dxz       0.000042 -0.000008 -0.000000  0.000000 -0.000000  0.000000
  0Ne  2dyz       0.000197 -0.000131 -0.000000 -0.000000 -0.000000 -0.000000
  0Ne  2dx2y2     1.014569 -0.005780 -0.000000  0.000000  0.000000  0.000000
  0Ne  2dxy       0.000104 -0.000010 -0.000000  0.000000 -0.000000 -0.000000
  0Ne  1f0        0.000000  0.000000 -0.000001 -0.000000  0.000001  0.000046
  0Ne  1f+1       0.000000 -0.000000 -0.000000  0.000001 -0.000000 -0.117331
  0Ne  1f-1      -0.000000 -0.000000  0.000001  0.000000  0.000000 -0.695959
  0Ne  1f+2       0.000000 -0.000000 -0.000000  0.000000 -0.000000  0.074438
  0Ne  1f-2      -0.000000 -0.000000  0.000000 -0.000000 -0.000000  0.444429
  0Ne  1f+3       0.000000  0.000000 -0.000000  0.000001 -0.000000  0.090967
  0Ne  1f-3       0.000000  0.000000 -0.000001 -0.000000 -0.000001 -0.539019
                     18        19        20        21        22        23   
                   9.64835   9.64835   9.64835   9.64835   9.64835   9.64835
                   0.00000   0.00000   0.00000   0.00000   0.00000   0.00000
                  --------  --------  --------  --------  --------  --------
  0Ne  1s         0.000000  0.000000  0.000000  0.000000 -0.000000  0.000000
  0Ne  2s         0.000000  0.000000  0.000000  0.000000 -0.000000  0.000000
  0Ne  3s        -0.000000 -0.000000 -0.000000 -0.000000  0.000000 -0.000000
  0Ne  4s        -0.000000 -0.000000  0.000000 -0.000000  0.000000 -0.000000
  0Ne  1pz       -0.000000  0.000000 -0.000000 -0.000000  0.000000  0.000001
  0Ne  1px        0.000000  0.000000 -0.000000 -0.000001 -0.000001 -0.000000
  0Ne  1py       -0.000000 -0.000000 -0.000000  0.000001 -0.000001  0.000000
  0Ne  2pz        0.000000 -0.000000 -0.000000  0.000000 -0.000000 -0.000001
  0Ne  2px       -0.000000 -0.000000  0.000000  0.000001  0.000001  0.000000
  0Ne  2py        0.000000  0.000000  0.000000 -0.000001  0.000001 -0.000000
  0Ne  3pz       -0.000000  0.000000 -0.000000 -0.000000  0.000000  0.000001
  0Ne  3px        0.000000  0.000000 -0.000000 -0.000000 -0.000000 -0.000000
  0Ne  3py       -0.000000 -0.000000 -0.000000  0.000000 -0.000000  0.000000
  0Ne  1dz2       0.000000  0.000000  0.000000 -0.000000 -0.000000  0.000000
  0Ne  1dxz      -0.000000  0.000000 -0.000000  0.000000 -0.000000  0.000000
  0Ne  1dyz      -0.000000  0.000000  0.000000 -0.000000  0.000000 -0.000000
  0Ne  1dx2y2    -0.000000  0.000000 -0.000000  0.000000  0.000000 -0.000000
  0Ne  1dxy      -0.000000  0.000000 -0.000000  0.000000  0.000000 -0.000000
  0Ne  2dz2       0.000000 -0.000000 -0.000000  0.000000  0.000000 -0.000000
  0Ne  2dxz       0.000000 -0.000000  0.000000 -0.000000  0.000000 -0.000000
  0Ne  2dyz       0.000000 -0.000000 -0.000000  0.000000 -0.000000  0.000000
  0Ne  2dx2y2     0.000000  0.000000  0.000000 -0.000000 -0.000000  0.000000
  0Ne  2dxy       0.000000 -0.000000  0.000000 -0.000000 -0.000000  0.000000
  0Ne  1f0       -0.000005  0.000010 -0.000002 -0.000104  0.000063  1.000000
  0Ne  1f+1      -0.698380 -0.027978  0.410375  0.376088  0.433434  0.000015
  0Ne  1f-1       0.117372  0.414357  0.029026 -0.433457  0.376094 -0.000040
  0Ne  1f+2       0.439128 -0.061421  0.888787 -0.058182 -0.067277 -0.000000
  0Ne  1f-2      -0.074550  0.886202  0.060824  0.066914 -0.058257 -0.000019
  0Ne  1f+3       0.540231  0.013156 -0.192151  0.533501  0.614946  0.000015
  0Ne  1f-3       0.090822  0.195516  0.013657  0.614969 -0.533489  0.000121
                     24        25        26        27        28        29   
                  11.57855  11.57855  11.57855  11.57855  11.57855  11.74521
                   0.00000   0.00000   0.00000   0.00000   0.00000   0.00000
                  --------  --------  --------  --------  --------  --------
  0Ne  1s        -0.000000  0.000000 -0.000000 -0.000000 -0.000000 -2.322062
  0Ne  2s        -0.000000  0.000000 -0.000000 -0.000000 -0.000000 -2.875151
  0Ne  3s         0.000000 -0.000000  0.000000  0.000000  0.000000  2.407724
  0Ne  4s         0.000000 -0.000000  0.000000  0.000000  0.000000  1.173530
  0Ne  1pz       -0.000000  0.000000  0.000000  0.000000 -0.000000 -0.000000
  0Ne  1px       -0.000000  0.000000  0.000000 -0.000000 -0.000000 -0.000000
  0Ne  1py        0.000000 -0.000000  0.000000 -0.000000 -0.000000  0.000000
  0Ne  2pz        0.000000 -0.000000 -0.000000  0.000000  0.000000  0.000000
  0Ne  2px        0.000000 -0.000000 -0.000000  0.000000  0.000000  0.000000
  0Ne  2py       -0.000000  0.000000 -0.000000  0.000000  0.000000 -0.000000
  0Ne  3pz       -0.000000  0.000000  0.000000  0.000000  0.000000 -0.000000
  0Ne  3px       -0.000000  0.000000  0.000000 -0.000000 -0.000000 -0.000000
  0Ne  3py        0.000000 -0.000000  0.000000 -0.000000 -0.000000  0.000000
  0Ne  1dz2      -0.000039  0.000146 -0.000048  0.017913  1.155149 -0.000000
  0Ne  1dxz      -0.734627  0.028145  0.891190 -0.000024  0.000009 -0.000000
  0Ne  1dyz       0.382974 -1.032812  0.348311 -0.000248  0.000162 -0.000000
  0Ne  1dx2y2     0.000022  0.000280 -0.000023 -1.155149  0.017913  0.000000
  0Ne  1dxy      -0.805198 -0.516911 -0.647417 -0.000128  0.000013  0.000000
  0Ne  2dz2       0.000019 -0.000070  0.000023 -0.008580 -0.553280  0.000000
  0Ne  2dxz       0.351863 -0.013481 -0.426852  0.000012 -0.000004  0.000000
  0Ne  2dyz      -0.183432  0.494684 -0.166830  0.000119 -0.000078  0.000000
  0Ne  2dx2y2    -0.000010 -0.000134  0.000011  0.553280 -0.008580 -0.000000
  0Ne  2dxy       0.385664  0.247584  0.310092  0.000061 -0.000006 -0.000000
  0Ne  1f0        0.000000 -0.000000 -0.000000 -0.000000 -0.000000  0.000000
  0Ne  1f+1       0.000000  0.000000  0.000000  0.000000  0.000000  0.000000
  0Ne  1f-1       0.000000  0.000000 -0.000000  0.000000  0.000000 -0.000000
  0Ne  1f+2      -0.000000 -0.000000  0.000000 -0.000000 -0.000000 -0.000000
  0Ne  1f-2       0.000000  0.000000 -0.000000 -0.000000 -0.000000  0.000000
  0Ne  1f+3       0.000000  0.000000  0.000000  0.000000  0.000000  0.000000
  0Ne  1f-3       0.000000 -0.000000 -0.000000  0.000000  0.000000  0.000000



                    ********************************
                    * MULLIKEN POPULATION ANALYSIS *
                    ********************************

-----------------------
MULLIKEN ATOMIC CHARGES
-----------------------
   0 Ne:    0.000000
Sum of atomic charges:    0.0000000

--------------------------------
MULLIKEN REDUCED ORBITAL CHARGES
--------------------------------
  0 Nes       :     4.000000  s :     4.000000
      pz      :     2.000000  p :     6.000000
      px      :     2.000000
      py      :     2.000000
      dz2     :     0.000000  d :     0.000000
      dxz     :     0.000000
      dyz     :     0.000000
      dx2y2   :     0.000000
      dxy     :     0.000000
      f0      :     0.000000  f :     0.000000
      f+1     :     0.000000
      f-1     :     0.000000
      f+2     :     0.000000
      f-2     :     0.000000
      f+3     :     0.000000
      f-3     :     0.000000


                     *******************************
                     * LOEWDIN POPULATION ANALYSIS *
                     *******************************

----------------------
LOEWDIN ATOMIC CHARGES
----------------------
   0 Ne:    0.000000

-------------------------------
LOEWDIN REDUCED ORBITAL CHARGES
-------------------------------
  0 Nes       :     4.000000  s :     4.000000
      pz      :     2.000000  p :     6.000000
      px      :     2.000000
      py      :     2.000000
      dz2     :     0.000000  d :     0.000000
      dxz     :     0.000000
      dyz     :     0.000000
      dx2y2   :     0.000000
      dxy     :     0.000000
      f0      :     0.000000  f :     0.000000
      f+1     :     0.000000
      f-1     :     0.000000
      f+2     :     0.000000
      f-2     :     0.000000
      f+3     :     0.000000
      f-3     :     0.000000


                      *****************************
                      * MAYER POPULATION ANALYSIS *
                      *****************************

  NA   - Mulliken gross atomic population
  ZA   - Total nuclear charge
  QA   - Mulliken gross atomic charge
  VA   - Mayer's total valence
  BVA  - Mayer's bonded valence
  FA   - Mayer's free valence

  ATOM       NA         ZA         QA         VA         BVA        FA
  0 Ne    10.0000    10.0000     0.0000     0.0000     0.0000     0.0000

  Mayer bond orders larger than 0.100000


--------------------------
ATOM BASIS FOR ELEMENT Ne
--------------------------
 NewGTO Ne
 S 18
    1      24350.000000000000         0.000502013605
    2       3650.000000000000         0.003881105182
    3        829.600000000000         0.019997541954
    4        234.000000000000         0.078420125268
    5         75.610000000000         0.229682224629
    6         26.730000000000         0.432733727538
    7          9.927000000000         0.350651503023
    8          1.102000000000        -0.007645207193
    9      24350.000000000000        -0.000000005178
   10       3650.000000000000        -0.000000040154
   11        829.600000000000        -0.000000207878
   12        234.000000000000        -0.000000844020
   13         75.610000000000        -0.000002649230
   14         26.730000000000        -0.000006253812
   15          9.927000000000        -0.000007798615
   16          1.102000000000         0.000026586470
   17          2.836000000000         0.043878324799
   18          0.378200000000         0.002364899797
 S 17
    1      24350.000000000000         0.000000006372
    2       3650.000000000000         0.000000049261
    3        829.600000000000         0.000000253819
    4        234.000000000000         0.000000995350
    5         75.610000000000         0.000002915249
    6         26.730000000000         0.000005492488
    7          9.927000000000         0.000004450656
    8      24350.000000000000         0.000117998200
    9       3650.000000000000         0.000914986046
   10        829.600000000000         0.004736927759
   11        234.000000000000         0.019232706691
   12         75.610000000000         0.060368079354
   13         26.730000000000         0.142505826708
   14          9.927000000000         0.177707289866
   15          1.102000000000        -0.605826760808
   16          2.836000000000        -0.177386107668
   17          0.378200000000        -0.365093219055
 S 18
    1      24350.000000000000        -0.000262297982
    2       3650.000000000000        -0.002027845554
    3        829.600000000000        -0.010448551285
    4        234.000000000000        -0.040973870815
    5         75.610000000000        -0.120007074309
    6         26.730000000000        -0.226099815433
    7          9.927000000000        -0.183212527865
    8          1.102000000000         0.003994557912
    9      24350.000000000000         0.000280339700
   10       3650.000000000000         0.002173820554
   11        829.600000000000         0.011253975918
   12        234.000000000000         0.045692995318
   13         75.610000000000         0.143422265604
   14         26.730000000000         0.338564830074
   15          9.927000000000         0.422196339521
   16          1.102000000000        -1.439321037363
   17          2.836000000000        -0.245655886445
   18          0.378200000000         1.653172913733
 S 18
    1      24350.000000000000         0.001194714723
    2       3650.000000000000         0.009236429963
    3        829.600000000000         0.047591056423
    4        234.000000000000         0.186627767295
    5         75.610000000000         0.546608164977
    6         26.730000000000         1.029839331776
    7          9.927000000000         0.834496334766
    8          1.102000000000        -0.018194410479
    9      24350.000000000000        -0.000576999402
   10       3650.000000000000        -0.004474190279
   11        829.600000000000        -0.023163103115
   12        234.000000000000        -0.094046012713
   13         75.610000000000        -0.295193872066
   14         26.730000000000        -0.696839243990
   15          9.927000000000        -0.868970879175
   16          1.102000000000         2.962432286061
   17          2.836000000000        -2.407724231103
   18          0.378200000000        -1.173530062460
 P 5
    1         54.700000000000         0.017150814123
    2         12.430000000000         0.107654833256
    3          3.679000000000         0.321677513718
    4          1.143000000000         0.485221679232
    5          0.330000000000         0.332601913638
 P 5
    1         54.700000000000         0.010797249209
    2         12.430000000000         0.067773812656
    3          3.679000000000         0.202511219336
    4          1.143000000000         0.703236945778
    5          0.330000000000        -1.184201786069
 P 5
    1         54.700000000000         0.051194917303
    2         12.430000000000         0.321348027354
    3          3.679000000000         0.960202448422
    4          1.143000000000        -1.412148949583
    5          0.330000000000         0.567156804661
 D 2
    1          4.014000000000        -0.029758864466
    2          1.096000000000         1.014585253825
 D 2
    1          4.014000000000         1.155287622850
    2          1.096000000000        -0.553346043851
 F 1
    1          2.544000000000         1.000000000000
 end
  // -----------------------------------------------
  // The basis set
  // -----------------------------------------------
  BAS[ATNO] = new BFNGauss[NSH];
  // Basis function   1 L = s
  InitBFNGauss(BAS[ATNO][  0]);
  BAS[ATNO][  0].l  = 0;
  BAS[ATNO][  0].ng = 18;
  BAS[ATNO][  0].a[  0] =     24350.000000000000;     BAS[ATNO][  0].d[  0] =         0.000502013605;
  BAS[ATNO][  0].a[  1] =      3650.000000000000;     BAS[ATNO][  0].d[  1] =         0.003881105182;
  BAS[ATNO][  0].a[  2] =       829.600000000000;     BAS[ATNO][  0].d[  2] =         0.019997541954;
  BAS[ATNO][  0].a[  3] =       234.000000000000;     BAS[ATNO][  0].d[  3] =         0.078420125268;
  BAS[ATNO][  0].a[  4] =        75.610000000000;     BAS[ATNO][  0].d[  4] =         0.229682224629;
  BAS[ATNO][  0].a[  5] =        26.730000000000;     BAS[ATNO][  0].d[  5] =         0.432733727538;
  BAS[ATNO][  0].a[  6] =         9.927000000000;     BAS[ATNO][  0].d[  6] =         0.350651503023;
  BAS[ATNO][  0].a[  7] =         1.102000000000;     BAS[ATNO][  0].d[  7] =        -0.007645207193;
  BAS[ATNO][  0].a[  8] =     24350.000000000000;     BAS[ATNO][  0].d[  8] =        -0.000000005178;
  BAS[ATNO][  0].a[  9] =      3650.000000000000;     BAS[ATNO][  0].d[  9] =        -0.000000040154;
  BAS[ATNO][  0].a[ 10] =       829.600000000000;     BAS[ATNO][  0].d[ 10] =        -0.000000207878;
  BAS[ATNO][  0].a[ 11] =       234.000000000000;     BAS[ATNO][  0].d[ 11] =        -0.000000844020;
  BAS[ATNO][  0].a[ 12] =        75.610000000000;     BAS[ATNO][  0].d[ 12] =        -0.000002649230;
  BAS[ATNO][  0].a[ 13] =        26.730000000000;     BAS[ATNO][  0].d[ 13] =        -0.000006253812;
  BAS[ATNO][  0].a[ 14] =         9.927000000000;     BAS[ATNO][  0].d[ 14] =        -0.000007798615;
  BAS[ATNO][  0].a[ 15] =         1.102000000000;     BAS[ATNO][  0].d[ 15] =         0.000026586470;
  BAS[ATNO][  0].a[ 16] =         2.836000000000;     BAS[ATNO][  0].d[ 16] =         0.043878324799;
  BAS[ATNO][  0].a[ 17] =         0.378200000000;     BAS[ATNO][  0].d[ 17] =         0.002364899797;

  // Basis function   2 L = s
  InitBFNGauss(BAS[ATNO][  1]);
  BAS[ATNO][  1].l  = 0;
  BAS[ATNO][  1].ng = 17;
  BAS[ATNO][  1].a[  0] =     24350.000000000000;     BAS[ATNO][  1].d[  0] =        -0.000000006372;
  BAS[ATNO][  1].a[  1] =      3650.000000000000;     BAS[ATNO][  1].d[  1] =        -0.000000049261;
  BAS[ATNO][  1].a[  2] =       829.600000000000;     BAS[ATNO][  1].d[  2] =        -0.000000253819;
  BAS[ATNO][  1].a[  3] =       234.000000000000;     BAS[ATNO][  1].d[  3] =        -0.000000995350;
  BAS[ATNO][  1].a[  4] =        75.610000000000;     BAS[ATNO][  1].d[  4] =        -0.000002915249;
  BAS[ATNO][  1].a[  5] =        26.730000000000;     BAS[ATNO][  1].d[  5] =        -0.000005492488;
  BAS[ATNO][  1].a[  6] =         9.927000000000;     BAS[ATNO][  1].d[  6] =        -0.000004450656;
  BAS[ATNO][  1].a[  7] =     24350.000000000000;     BAS[ATNO][  1].d[  7] =        -0.000117998200;
  BAS[ATNO][  1].a[  8] =      3650.000000000000;     BAS[ATNO][  1].d[  8] =        -0.000914986046;
  BAS[ATNO][  1].a[  9] =       829.600000000000;     BAS[ATNO][  1].d[  9] =        -0.004736927759;
  BAS[ATNO][  1].a[ 10] =       234.000000000000;     BAS[ATNO][  1].d[ 10] =        -0.019232706691;
  BAS[ATNO][  1].a[ 11] =        75.610000000000;     BAS[ATNO][  1].d[ 11] =        -0.060368079354;
  BAS[ATNO][  1].a[ 12] =        26.730000000000;     BAS[ATNO][  1].d[ 12] =        -0.142505826708;
  BAS[ATNO][  1].a[ 13] =         9.927000000000;     BAS[ATNO][  1].d[ 13] =        -0.177707289866;
  BAS[ATNO][  1].a[ 14] =         1.102000000000;     BAS[ATNO][  1].d[ 14] =         0.605826760808;
  BAS[ATNO][  1].a[ 15] =         2.836000000000;     BAS[ATNO][  1].d[ 15] =         0.177386107668;
  BAS[ATNO][  1].a[ 16] =         0.378200000000;     BAS[ATNO][  1].d[ 16] =         0.365093219055;

  // Basis function   3 L = s
  InitBFNGauss(BAS[ATNO][  2]);
  BAS[ATNO][  2].l  = 0;
  BAS[ATNO][  2].ng = 18;
  BAS[ATNO][  2].a[  0] =     24350.000000000000;     BAS[ATNO][  2].d[  0] =        -0.000262297982;
  BAS[ATNO][  2].a[  1] =      3650.000000000000;     BAS[ATNO][  2].d[  1] =        -0.002027845554;
  BAS[ATNO][  2].a[  2] =       829.600000000000;     BAS[ATNO][  2].d[  2] =        -0.010448551285;
  BAS[ATNO][  2].a[  3] =       234.000000000000;     BAS[ATNO][  2].d[  3] =        -0.040973870815;
  BAS[ATNO][  2].a[  4] =        75.610000000000;     BAS[ATNO][  2].d[  4] =        -0.120007074309;
  BAS[ATNO][  2].a[  5] =        26.730000000000;     BAS[ATNO][  2].d[  5] =        -0.226099815433;
  BAS[ATNO][  2].a[  6] =         9.927000000000;     BAS[ATNO][  2].d[  6] =        -0.183212527865;
  BAS[ATNO][  2].a[  7] =         1.102000000000;     BAS[ATNO][  2].d[  7] =         0.003994557912;
  BAS[ATNO][  2].a[  8] =     24350.000000000000;     BAS[ATNO][  2].d[  8] =         0.000280339700;
  BAS[ATNO][  2].a[  9] =      3650.000000000000;     BAS[ATNO][  2].d[  9] =         0.002173820554;
  BAS[ATNO][  2].a[ 10] =       829.600000000000;     BAS[ATNO][  2].d[ 10] =         0.011253975918;
  BAS[ATNO][  2].a[ 11] =       234.000000000000;     BAS[ATNO][  2].d[ 11] =         0.045692995318;
  BAS[ATNO][  2].a[ 12] =        75.610000000000;     BAS[ATNO][  2].d[ 12] =         0.143422265604;
  BAS[ATNO][  2].a[ 13] =        26.730000000000;     BAS[ATNO][  2].d[ 13] =         0.338564830074;
  BAS[ATNO][  2].a[ 14] =         9.927000000000;     BAS[ATNO][  2].d[ 14] =         0.422196339521;
  BAS[ATNO][  2].a[ 15] =         1.102000000000;     BAS[ATNO][  2].d[ 15] =        -1.439321037363;
  BAS[ATNO][  2].a[ 16] =         2.836000000000;     BAS[ATNO][  2].d[ 16] =        -0.245655886445;
  BAS[ATNO][  2].a[ 17] =         0.378200000000;     BAS[ATNO][  2].d[ 17] =         1.653172913733;

  // Basis function   4 L = s
  InitBFNGauss(BAS[ATNO][  3]);
  BAS[ATNO][  3].l  = 0;
  BAS[ATNO][  3].ng = 18;
  BAS[ATNO][  3].a[  0] =     24350.000000000000;     BAS[ATNO][  3].d[  0] =         0.001194714723;
  BAS[ATNO][  3].a[  1] =      3650.000000000000;     BAS[ATNO][  3].d[  1] =         0.009236429963;
  BAS[ATNO][  3].a[  2] =       829.600000000000;     BAS[ATNO][  3].d[  2] =         0.047591056423;
  BAS[ATNO][  3].a[  3] =       234.000000000000;     BAS[ATNO][  3].d[  3] =         0.186627767295;
  BAS[ATNO][  3].a[  4] =        75.610000000000;     BAS[ATNO][  3].d[  4] =         0.546608164977;
  BAS[ATNO][  3].a[  5] =        26.730000000000;     BAS[ATNO][  3].d[  5] =         1.029839331776;
  BAS[ATNO][  3].a[  6] =         9.927000000000;     BAS[ATNO][  3].d[  6] =         0.834496334766;
  BAS[ATNO][  3].a[  7] =         1.102000000000;     BAS[ATNO][  3].d[  7] =        -0.018194410479;
  BAS[ATNO][  3].a[  8] =     24350.000000000000;     BAS[ATNO][  3].d[  8] =        -0.000576999402;
  BAS[ATNO][  3].a[  9] =      3650.000000000000;     BAS[ATNO][  3].d[  9] =        -0.004474190279;
  BAS[ATNO][  3].a[ 10] =       829.600000000000;     BAS[ATNO][  3].d[ 10] =        -0.023163103115;
  BAS[ATNO][  3].a[ 11] =       234.000000000000;     BAS[ATNO][  3].d[ 11] =        -0.094046012713;
  BAS[ATNO][  3].a[ 12] =        75.610000000000;     BAS[ATNO][  3].d[ 12] =        -0.295193872066;
  BAS[ATNO][  3].a[ 13] =        26.730000000000;     BAS[ATNO][  3].d[ 13] =        -0.696839243990;
  BAS[ATNO][  3].a[ 14] =         9.927000000000;     BAS[ATNO][  3].d[ 14] =        -0.868970879175;
  BAS[ATNO][  3].a[ 15] =         1.102000000000;     BAS[ATNO][  3].d[ 15] =         2.962432286061;
  BAS[ATNO][  3].a[ 16] =         2.836000000000;     BAS[ATNO][  3].d[ 16] =        -2.407724231103;
  BAS[ATNO][  3].a[ 17] =         0.378200000000;     BAS[ATNO][  3].d[ 17] =        -1.173530062460;

  // Basis function   5 L = p
  InitBFNGauss(BAS[ATNO][  4]);
  BAS[ATNO][  4].l  = 1;
  BAS[ATNO][  4].ng = 5;
  BAS[ATNO][  4].a[  0] =        54.700000000000;     BAS[ATNO][  4].d[  0] =         0.017150814123;
  BAS[ATNO][  4].a[  1] =        12.430000000000;     BAS[ATNO][  4].d[  1] =         0.107654833256;
  BAS[ATNO][  4].a[  2] =         3.679000000000;     BAS[ATNO][  4].d[  2] =         0.321677513718;
  BAS[ATNO][  4].a[  3] =         1.143000000000;     BAS[ATNO][  4].d[  3] =         0.485221679232;
  BAS[ATNO][  4].a[  4] =         0.330000000000;     BAS[ATNO][  4].d[  4] =         0.332601913638;

  // Basis function   6 L = p
  InitBFNGauss(BAS[ATNO][  5]);
  BAS[ATNO][  5].l  = 1;
  BAS[ATNO][  5].ng = 5;
  BAS[ATNO][  5].a[  0] =        54.700000000000;     BAS[ATNO][  5].d[  0] =        -0.010797249209;
  BAS[ATNO][  5].a[  1] =        12.430000000000;     BAS[ATNO][  5].d[  1] =        -0.067773812656;
  BAS[ATNO][  5].a[  2] =         3.679000000000;     BAS[ATNO][  5].d[  2] =        -0.202511219336;
  BAS[ATNO][  5].a[  3] =         1.143000000000;     BAS[ATNO][  5].d[  3] =        -0.703236945778;
  BAS[ATNO][  5].a[  4] =         0.330000000000;     BAS[ATNO][  5].d[  4] =         1.184201786069;

  // Basis function   7 L = p
  InitBFNGauss(BAS[ATNO][  6]);
  BAS[ATNO][  6].l  = 1;
  BAS[ATNO][  6].ng = 5;
  BAS[ATNO][  6].a[  0] =        54.700000000000;     BAS[ATNO][  6].d[  0] =        -0.051194917303;
  BAS[ATNO][  6].a[  1] =        12.430000000000;     BAS[ATNO][  6].d[  1] =        -0.321348027354;
  BAS[ATNO][  6].a[  2] =         3.679000000000;     BAS[ATNO][  6].d[  2] =        -0.960202448422;
  BAS[ATNO][  6].a[  3] =         1.143000000000;     BAS[ATNO][  6].d[  3] =         1.412148949583;
  BAS[ATNO][  6].a[  4] =         0.330000000000;     BAS[ATNO][  6].d[  4] =        -0.567156804661;

  // Basis function   8 L = d
  InitBFNGauss(BAS[ATNO][  7]);
  BAS[ATNO][  7].l  = 2;
  BAS[ATNO][  7].ng = 2;
  BAS[ATNO][  7].a[  0] =         4.014000000000;     BAS[ATNO][  7].d[  0] =        -0.029758864466;
  BAS[ATNO][  7].a[  1] =         1.096000000000;     BAS[ATNO][  7].d[  1] =         1.014585253825;

  // Basis function   9 L = d
  InitBFNGauss(BAS[ATNO][  8]);
  BAS[ATNO][  8].l  = 2;
  BAS[ATNO][  8].ng = 2;
  BAS[ATNO][  8].a[  0] =         4.014000000000;     BAS[ATNO][  8].d[  0] =         1.155287622850;
  BAS[ATNO][  8].a[  1] =         1.096000000000;     BAS[ATNO][  8].d[  1] =        -0.553346043851;

  // Basis function  10 L = f
  InitBFNGauss(BAS[ATNO][  9]);
  BAS[ATNO][  9].l  = 3;
  BAS[ATNO][  9].ng = 1;
  BAS[ATNO][  9].a[  0] =         2.544000000000;     BAS[ATNO][  9].d[  0] =         1.000000000000;

-------------------------------------------
RADIAL EXPECTATION VALUES <R**-3> TO <R**3>
-------------------------------------------
   0 :     0.000000   187.035336     9.617959     0.157627     0.033470     0.008983
   1 :     0.000000    11.062235     1.632569     0.891885     0.965763     1.235977
   2 :     0.000000     3.881955     0.983581     1.571232     2.928352     5.959680
   3 :     0.000000    91.514988     3.979680     0.849277     1.220021     2.276282
   4 :    10.665004     3.048811     1.435365     0.962034     1.210918     1.901413
   5 :    10.665004     3.048811     1.435365     0.962034     1.210918     1.901413
   6 :    10.665004     3.048811     1.435365     0.962034     1.210918     1.901413
   7 :     4.506079     1.331001     0.808809     1.863796     4.108709     9.812590
   8 :     4.506079     1.331001     0.808809     1.863796     4.108709     9.812590
   9 :     4.506079     1.331001     0.808809     1.863796     4.108709     9.812590
  10 :    39.886757     7.215178     2.054226     0.884009     1.239382     2.333408
  11 :    39.886757     7.215178     2.054226     0.884009     1.239382     2.333408
  12 :    39.886757     7.215178     2.054226     0.884009     1.239382     2.333408
  13 :     0.906074     0.843538     0.877505     1.231644     1.623286    11.359843
  14 :     0.906074     0.843538     0.877505     1.231644     1.623286    11.359843
  15 :     0.906074     0.843538     0.877505     1.231644     1.623286    11.359843
  16 :     0.906074     0.843538     0.877505     1.231644     1.623286    11.359843
  17 :     0.906074     0.843538     0.877505     1.231644     1.623286    11.359843
  18 :     7.206565     3.244462     1.676783     0.711984     0.631831     3.522130
  19 :     7.206565     3.244462     1.676783     0.711984     0.631831     3.522130
  20 :     7.206565     3.244462     1.676783     0.711984     0.631831     3.522130
  21 :     7.206565     3.244462     1.676783     0.711984     0.631831     3.522130
  22 :     7.206565     3.244462     1.676783     0.711984     0.631831     3.522130
  23 :     1.973360     1.453714     1.163538     0.914731     0.884434     6.292372
  24 :     1.973360     1.453714     1.163538     0.914731     0.884434     6.292372
  25 :     1.973360     1.453714     1.163538     0.914731     0.884434     6.292372
  26 :     1.973360     1.453714     1.163538     0.914731     0.884434     6.292372
  27 :     1.973360     1.453714     1.163538     0.914731     0.884434     6.292372
  28 :     1.973360     1.453714     1.163538     0.914731     0.884434     6.292372
  29 :     1.973360     1.453714     1.163538     0.914731     0.884434     6.292372
-------
TIMINGS
-------

Total SCF time: 0 days 0 hours 0 min 2 sec 

Total time                  ....       2.297 sec
Sum of individual times     ....       2.229 sec  ( 97.0%)

Fock matrix formation       ....       2.011 sec  ( 87.5%)
  Split-RI-J                ....       0.583 sec  ( 29.0% of F)
  Chain of spheres X        ....       0.382 sec  ( 19.0% of F)
  COS-X 1 center corr.      ....       0.000 sec  (  0.0% of F)
Diagonalization             ....       0.001 sec  (  0.0%)
Density matrix formation    ....       0.000 sec  (  0.0%)
Population analysis         ....       0.000 sec  (  0.0%)
Initial guess               ....       0.072 sec  (  3.1%)
Orbital Transformation      ....       0.000 sec  (  0.0%)
Orbital Orthonormalization  ....       0.000 sec  (  0.0%)
DIIS solution               ....       0.000 sec  (  0.0%)
SOSCF solution              ....       0.021 sec  (  0.9%)


------------------------------------------------------------------------------- 
                              ORCA-MATRIX DRIVEN CI                            
------------------------------------------------------------------------------- 


Wavefunction type
-----------------
Correlation treatment                      ...      CCSD     
Single excitations                         ... ON
Orbital optimization                       ... OFF
Calculation of Z vector                    ... OFF
Calculation of Brueckner orbitals          ... OFF
Perturbative triple excitations            ... ON
Calculation of F12 correction              ... OFF
Frozen core treatment                      ... chemical core (2 el)
Reference Wavefunction                     ... RHF
  Internal Orbitals:     1 ...    4 (  4 MO's/  8 electrons)
  Virtual  Orbitals:     5 ...   29 ( 25 MO's              )
Number of AO's                             ...     30
Number of electrons                        ...     10
Number of correlated electrons             ...      8

Algorithmic settings
--------------------
Integral transformation                    ... All integrals via the RI transformation
K(C) Formation                             ... RI-DLPNO
   PNO-Integral Storage                    ... ON DISK
   PNO occupation number cut-off           ... 3.330e-07
   Singles PNO occupation number cut-off   ... 9.990e-09
   PNO Mulliken prescreening cut-off       ... 1.000e-03
   Domain cut-off (Mulliken population)    ... 1.000e-03
   PNO Normalization                       ...    1
Maximum number of iterations               ...        50
Convergence tolerance (max. residuum)      ... 1.000e-05
Level shift for amplitude update           ... 2.000e-01
Maximum number of DIIS vectors             ...         7
DIIS turned on at iteration                ...         0
Damping before turning on DIIS             ...     0.500
Damping after turning on DIIS              ...     0.000
Pair specific amplitude update             ... OFF
Natural orbital iterations                 ... OFF
Perturbative natural orbital generation    ... OFF
Printlevel                                 ... 2

Singles Fock matrix elements calculated using PNOs.

Memory handling:
----------------
Maximum memory for working arrays          ...   1150 MB
Data storage in matrix containers          ... UNCOMPRESSED
Data type for integral storage             ... DOUBLE
In-Core Storage of quantities:
   Amplitudes+Sigma Vector      ... NO
   J+K operators                ... NO
   DIIS vectors                 ... NO
   3-external integrals         ... NO
   4-external integrals         ... NO

Localization treatment:
-----------------------
Localization option                        ...    6
Localization threshhold                    ... -1.0e+00
Using relative localization threshhold     ... 1.0e-08
Neglect threshold for strong pairs         ... 1.000e-04 Eh
Prescreening threshold for very weak pairs ... 1.000e-06 Eh

Initializing the integral package          ... done
Localizing the valence orbitals
------------------------------------------------------------------------------
                           ORCA ORBITAL LOCALIZATION
------------------------------------------------------------------------------

Input orbitals are from                  ... neon@water.gbw
Output orbitals are to                   ... neon@water.loc
Max. number of iterations                ... 128
Localizations seeded randomly            ... off
Convergence tolerance                    ... 1.000e-06
Using relative localization threshhold   ... 1.000e-08
Treshold for strong local MOs            ... 9.500e-01
Treshold for bond MOs                    ... 8.500e-01
Operator                                 ... 0
Orbital range for localization           ... 1 to 4
Localization criterion                   ... FOSTER-BOYS (AUGMENTED HESSIAN)
Doing the dipole integrals     ... o.k.
Initial value of the localization sum :     0.000000
ITERATION   0 : L=    0.7888062612 DL=  7.89e-01 (AVERGE_DL)=    0.3625847628 
ITERATION   1 : L=    0.8126612893 DL=  2.39e-02 (AVERGE_DL)=    0.0630542466 
ITERATION   2 : L=    0.8141522285 DL=  1.49e-03 (AVERGE_DL)=    0.0157635616 
ITERATION   3 : L=    0.8142454122 DL=  9.32e-05 (AVERGE_DL)=    0.0039408904 
ITERATION   4 : L=    0.8142512362 DL=  5.82e-06 (AVERGE_DL)=    0.0009852226 
ITERATION   5 : L=    0.8142516002 DL=  3.64e-07 (AVERGE_DL)=    0.0002463057 
LOCALIZATION SUM CONVERGED

------------------------------------------------------
AUGMENTED HESSIAN OPTIMIZATION OF FOSTER-BOYS ORBITALS
------------------------------------------------------

Spin operator:           0
Orbital window:          1 to 4
Number of iterations:    128
Gradient tolerance:      1.000e-06
Number of pairs:         6
Davidson threshold:      2000
Diagonalization method:  LAPACK
Iter:    0   L: 0.8142516002   Grad. norm: 3.246654e-04
   *** Detected a saddle point. ***
       Augmented Hessian eigenvalues:  4.85e-08  1.21e-08  1.21e-08 -7.02e-16 ... 
Iter:    1   L: 0.8142516245   Grad. norm: 7.273613e-08
   *** Likely close to a maximum now. ***
       Augmented Hessian eigenvalues:  2.49e-15  1.15e-15 -2.72e-16 -1.12e-15 ... 
Iter:    2   L: 0.8142516245   Grad. norm: 7.107235e-10
LOCALIZATION HAS CONVERGED.

Eigenvalues of the Hessian:
  0  2.283e-16
  1 -9.434e-16
  2 -1.394e-15
  3 -2.171e+00
  4 -2.171e+00
  5 -2.171e+00


------------------------------------------------------------------------------- 
                    LOCALIZED MOLECULAR ORBITAL COMPOSITIONS                   
------------------------------------------------------------------------------- 

The Mulliken populations for each LMO on each atom are computed
The LMO`s will be ordered according to atom index and type
  (A) Strongly localized MO`s have populations of >=0.950 on one atom
  (B) Two center bond orbitals have populations of >=0.850 on two atoms
  (C) Other MO`s are considered to be `delocalized`

FOUND  -   4 strongly local MO`s
       -   0 two center bond MO`s
       -   0 significantly delocalized MO`s

Rather strongly localized orbitals:
MO   4:   0Ne -   1.000000
MO   3:   0Ne -   1.000000
MO   2:   0Ne -   1.000000
MO   1:   0Ne -   1.000000
Localized MO's were stored in: neon@water.loc

Localizing the core orbitals
------------------------------------------------------------------------------
[...]
   TCutMKN                    ...     1.0e-02
   TCutDO                     ...     2.0e-02
   TCutPairs                  ...     1.0e-04
   TCutPNO_CrudeMP2           ...     3.3e-07
   TCutPNOSingles_CrudeMP2    ...     1.0e-08
--------------------------------
LOCAL RI TRANSFORMATION (IAVPAO)
--------------------------------

Orbital window:       1 to 4
Number of PAOs:      30
Basis functions:     30 (10 shells)
Aux. functions:     159 (43 shells)

Processing maps (0.0 sec)
Average map sizes:
   Aux shells -> MOs               4.0
   Aux shells -> PAOs             30.0
   MOs        -> AO shells        10.0
   PAOs       -> AO shells        10.0

Calculating integrals (0.1 sec, 0.147 MB)
Sorting integrals (0.0 sec, 0.146 MB)
Total time for the integral transformation: 0.1 sec
--------------------------------
INITIAL GUESS AND PNO GENERATION
--------------------------------

PNO truncation parameters                   .... 
    PAOOverlapThresh   =        1.000e-08

    TCutPairs          =        1.000e-04
    TCutPNO            =        3.330e-07
    TCutPNOSingles     =        9.990e-09
    TCutMP2Pairs       =        1.000e-05
    TCutMKN            =        1.000e-02
    TCutDO             =        2.000e-02

Pair selection                          .... not used
Type of local MP2 treatment                 .... semi-local MP2
Strategy for PNO selection                  .... occupation number selection
Pair density normalization                  .... MP2 norm
Spin component scaling                      .... not used

   .... Finished loop over pairs
Making pair pair interaction lists          ... done

                       ===========================
                         10 OF   10 PAIRS ARE KEPT CCSD PAIRS
                          0 OF   10 PAIRS ARE KEPT MP2 PAIRS FOR (T)
                          0 OF   10 PAIRS ARE SKIPPED
                       ===========================

Total time spent in the initial guess                 ...     0.012 sec
SL-MP2 correlation energy (all non-screened pairs)    ...      -0.251038804366 Eh

Initial PNO correlation energy                        ...      -0.251013021590 Eh
sum of pair energies prescreened and skipped MP2 pairs...       0.000000000000 Eh
sum of pair energies of crude MP2 skipped pairs only  ...       0.000000000000 Eh
sum of MP2 pair energies for pairs that were not kept ...       0.000000000000 Eh
sum of PNO error estimates for the kept pairs         ...      -0.000025782776 Eh
                                                          --------------------
sum of all corrections                                         -0.000025782776
Initial total correlation energy                               -0.251038804366
Thresholds for map construction and integral transformation for fine MP2 and CCSD(T) calculation:
   TCutMKN   ...     1.0e-03
   TCutDO    ...     1.0e-02
   TCutPairs ...     1.0e-04
   TCutCMO   ...     1.0e-03
   TCutCPAO  ...     1.0e-03

Thresholds for map construction and integral transformation for strong Triples:
   TCutMKN   ...     1.0e-02
   TCutDO    ...     2.0e-02
   TCutCMO   ...     1.0e-03
   TCutCPAO  ...     1.0e-03

Thresholds for map construction and integral transformation for weak Triples:
   TCutMKN   ...     1.0e-01
   TCutDO    ...     4.0e-02
   TCutCMO   ...     1.0e-03
   TCutCPAO  ...     1.0e-03

--------------------------------
LOCAL RI TRANSFORMATION (IAVPAO)
--------------------------------

Orbital window:       1 to 4
Number of PAOs:      30
Basis functions:     30 (10 shells)
Aux. functions:     159 (43 shells)

Processing maps (0.0 sec)
Average map sizes:
   Aux shells -> MOs               4.0
   Aux shells -> PAOs             30.0
   MOs        -> AO shells        10.0
   PAOs       -> AO shells        10.0

Calculating integrals (0.1 sec, 0.147 MB)
Sorting integrals (0.0 sec, 0.146 MB)
Total time for the integral transformation: 0.1 sec
--------------------------------
INITIAL GUESS AND PNO GENERATION
--------------------------------

PNO truncation parameters                   .... 
    PAOOverlapThresh   =        1.000e-08

    TCutPairs          =        1.000e-04
    TCutPNO            =        3.330e-07
    TCutPNOSingles     =        9.990e-09
    TCutMP2Pairs       =        1.000e-05
    TCutMKN            =        1.000e-03
    TCutDO             =        1.000e-02

Pair selection                          .... not used
Type of local MP2 treatment                 .... semi-local MP2
Strategy for PNO selection                  .... occupation number selection
Pair density normalization                  .... MP2 norm
Spin component scaling                      .... not used

   .... Finished loop over pairs

 PNO Occupation Number Statistics: 
  | Av. % of trace(Dij) retained        ...  99.997217645922
  | sigma^2 in % of trace(Dij) retained ...   5.16e-06
  | Av. % of trace(Di) retained         ... 100.000000000000
  | sigma^2 in % of trace(Di) retained  ...   3.03e-28
 Distributions of % trace(Dij) recovered:
  |       >= 99.9  ...    10 (100.0 % of all pairs)
 Distributions of % trace(Di) recovered :
  |       >= 99.9  ...     4 (100.0 % of all I-pairs )

Making pair pair interaction lists          ... done

                       ===========================
                         10 OF   10 PAIRS ARE KEPT
                       ===========================

Total time spent in the initial guess                 ...     0.013 sec
SL-MP2 correlation energy (all non-screened pairs)    ...      -0.251038804366 Eh

Initial PNO correlation energy                        ...      -0.251013021590 Eh
sum of pair energies estimated for screened out pairs ...       0.000000000000 Eh
sum of MP2 pair energies for pairs that were not kept ...       0.000000000000 Eh
sum of PNO error estimates for the kept pairs         ...      -0.000025782776 Eh
                                                          --------------------
sum of all corrections                                         -0.000025782776
Initial total correlation energy                               -0.251038804366
Thresholds for map construction and integral transformation for fine MP2 and CCSD(T) calculation:
   TCutMKN   ...     1.0e-03
   TCutDO    ...     1.0e-02
   TCutPairs ...     1.0e-04
   TCutCMO   ...     1.0e-03
   TCutCPAO  ...     1.0e-03

Time for aux screen maps:            0.000
Time for maps after fine MP2:            0.000
-----------------------------
LOCAL RI TRANSFORMATION (IJV)
-----------------------------

Orbital window:       1 to 4
Basis functions:     30 (10 shells)
Aux. functions:     159 (43 shells)

Processing maps (0.0 sec)
Average map sizes:
   Aux shells -> MOs(i)            4.0
   Aux shells -> MOs(j)            4.0
   MOs        -> AO shells        10.0

Calculating integrals (0.1 sec, 0.021 MB)
Sorting integrals (0.0 sec, 0.019 MB)
Total time for the integral transformation: 0.1 sec
--------------------------------
LOCAL RI TRANSFORMATION (VABPAO)
--------------------------------

Number of PAOs:      30
Basis functions:     30 (10 shells)
Aux. functions:     159 (43 shells)

Processing maps (0.0 sec)
Average map sizes:
   Aux shells -> PAOs             30.0
   PAOs       -> AO shells        10.0

Calculating integrals (0.1 sec, 1.094 MB)
Finished


-------------------------------------
Pair Pair Term precalculation with     
RI-(ij|mn) and (im|jn) transformation  
ON THE FLY                             
-------------------------------------

   IBatch   1 (of   1)              ... done (    0.253 sec)
Total EXT                           ...           0.253 sec

---------------------
RI-PNO TRANSFORMATION
---------------------

Total Number of PNOs                   ...   244
Average number of PNOs per pair        ...    24
Maximal number of PNOs per pair        ...    25
   #pairs with  1 -  5 PNOs   :    0
   #pairs with  6 - 10 PNOs   :    0
   #pairs with 11 - 15 PNOs   :    0
   #pairs with 16 - 20 PNOs   :    0
   #pairs with 21 - 25 PNOs   :   10
   #pairs with 26 - 30 PNOs   :    0
   #pairs with 31 - 35 PNOs   :    0
   #pairs with 36 - 40 PNOs   :    0
   #pairs with 41 - 45 PNOs   :    0
   #pairs with 46 - 50 PNOs   :    0

Generation of (ij|ab)[P] integrals            ... on
Generation of (ia|bc)[P],(ja|bc)[P] integrals ... on
Storage of 3 and 4 external integrals         ... on
Generation of ALL (ka|bc)[P] integrals        ... on
Keep RI integrals in memory                   ... off

Ibatch:  1 (of  1)
Starting 2-4 index PNO integral generation ... done

Timings:
Total PNO integral transformation time     ...          0.132 sec
Size of the 3-external file                ...         1 MB
Size of the 4-external file                ...         3 MB
Size of the IKJL file                      ...         0 MB
Size of the all 3-external file            ...         2 MB
Size of the 1-external file                ...         0 MB

Making pair/pair overlap matrices          ... done (    0.004 sec)
Size of the pair overlap file              ... 0 MB
Redoing the guess amplitudes               ... done (    0.000 sec)

-------------------------
FINAL STARTUP INFORMATION
-------------------------

E(0)                                       ...   -128.531816804
E(SL-MP2)                                  ...     -0.251038804
E(SL-MP2) including corrections            ...     -0.251038804
Initial E(tot)                             ...   -128.782855608
<T|T>                                      ...      0.029758848
Number of pairs included                   ... 10
Total number of pairs                      ... 10

------------------------------------------------
                  RHF COUPLED CLUSTER ITERATIONS
------------------------------------------------

Number of PNO amplitudes to be optimized   ...         5956
Number of non-PNO amplitudes               ...         6250
Untruncated number of regular amplitudes   ...         6250

Iter       E(tot)           E(Corr)          Delta-E          Residual     Time
  0   -128.782855529     -0.251012942      0.000025862      0.018804358    0.08
                           *** Turning on DIIS ***
  1   -128.787119674     -0.255277088     -0.004264146      0.006129665    0.08
  2   -128.790233788     -0.258391202     -0.003114114      0.001510776    0.08
  3   -128.790539210     -0.258696623     -0.000305422      0.000527308    0.08
  4   -128.790622795     -0.258780208     -0.000083585      0.000053919    0.08
  5   -128.790628474     -0.258785887     -0.000005679      0.000014948    0.09
  6   -128.790628465     -0.258785878      0.000000009      0.000001684    0.09
               --- The Coupled-Cluster iterations have converged ---

----------------------
COUPLED CLUSTER ENERGY
----------------------

E(0)                                       ...   -128.531816804
E(CORR)(strong-pairs)                      ...     -0.258785878
E(CORR)(weak-pairs)                        ...     -0.000025783
E(CORR)(corrected)                         ...     -0.258811661
E(TOT)                                     ...   -128.790628465
Singles Norm <S|S>**1/2                    ...      0.013078786  
T1 diagnostic                              ...      0.004624049  

------------------
LARGEST AMPLITUDES
------------------
   4->  5   4->  5       0.028576
   2->  6   2->  6       0.025071
   3->  7   3->  7       0.023240
   3->  6   2->  5       0.019098
   2->  5   1->  6       0.019034
   4->  5   3->  6       0.018932
   1->  7   1->  7       0.018039
   4->  5   1->  6       0.017799
   4->  5   2->  6       0.017724
   3->  6   1->  6       0.015016
   4->  8   4->  8       0.013953
   1->  8   1->  8       0.013953
   3->  8   3->  8       0.013953
   2->  8   2->  8       0.013953
   4->  5   4->  8       0.013622
   4->  8   4->  5       0.013622


-------------------------------------------
DLPNO BASED TRIPLES CORRECTION
-------------------------------------------

Singles multiplier          ...  1.000000
TCutTNO                     ... 1.000e-09
TCutMP2Pairs                ... 1.000e-05
TCutDOStrong                ... 2.000e-02
TCutMKNStrong               ... 1.000e-02
TCutDOWeak                  ... 4.000e-02
TCutMKNWeak                 ... 1.000e-01

Fragment selection                          .... not used
Number of Triples that are to be computed   ...        16

 . . . . . . . . .
10% done  
20% done  
30% done  
40% done  
50% done  
60% done  
70% done  
80% done  
90% done               (      0.207 sec)
Triples timings:
Total time for T0               ...     0.214 sec
Total time for Iterative (T)    ...     0.000 sec
Total time of overall (T)       ...     0.214 sec

Triples List generation         ...     0.000 sec
TNO generation                  ...     0.007 sec
Pair density generation         ...     0.000 sec
Look up tables                  ...     0.000 sec
Generating 3-index integrals    ...     0.057 sec
  Make 4-ind.int. from 3-ind.int...     0.037 sec
  Projecting amplitudes (D + S) ...     0.005 sec
  Downprojecting integrals      ...     0.000 sec
  Energy contr. (sum over a,b,c)...     0.089 sec
Fitting ET(->0)                 ...     0.000 sec

Everything after 3-index        ...     0.149 sec

Timing details:
 TNO integrals                  ...     0.090 sec
   Reading 3-index integrals    ...     0.001 sec
   Sorting integrals            ...     0.007 sec
       Sorting integrals 1      ...     0.000 sec
       Sorting integrals 2      ...     0.003 sec
       Sorting integrals 3      ...     0.002 sec
       Sorting integrals 4      ...     0.000 sec
       Sorting integrals 5      ...     0.000 sec
       Sorting integrals 6      ...     0.001 sec
   Calculating local VM**-1/2   ...     0.005 sec
   Orthogonal. integrals        ...     0.009 sec
   Multipl. 3-index integrals   ...     0.068 sec
   All concerning IRIab (w/TNO) ...     0.019 sec

 Calculate W0/W1                ...     0.017 sec
 W 3-ext contribution           ...     0.012 sec
 W 3-int contribution           ...     0.003 sec
 Sorting W                      ...     0.001 sec

 V exchange contribution        ...     0.045 sec

 Timings for Triples without generation
     of 3-index integrals       ...     0.149 sec
       0 weak pairs             ...     0.149 sec
       1 weak pair              ...     0.000 sec
       2 weak pairs             ...     0.000 sec
       3 weak pairs             ...     0.000 sec
  Extra time for extrapolation  ...     0.000 sec

Number of Triples   (0, 1, 2, 3 weak pairs; overall):     16       0       0       0  (    16)
Number of Atoms     (0, 1, 2, 3 weak pairs; overall):    1.0     0.0     0.0     0.0  (     1)
Number of PAOs      (0, 1, 2, 3 weak pairs; overall):   30.0     0.0     0.0     0.0  (    30)
Number of AuxFcns   (0, 1, 2, 3 weak pairs; overall):  159.0     0.0     0.0     0.0  (   159)
Number of TNOs      (0, 1, 2, 3 weak pairs         ):   25.0     0.0     0.0     0.0
Aver. Number of NTNO, Atoms, PAOs, AuxFcns / Triples:     16    25.0     1.0    30.0   159.0

Triples Correction (T)                     ...     -0.003853567
Final correlation energy                   ...     -0.262665228
E(CCSD)                                    ...   -128.790628465
E(CCSD(T))                                 ...   -128.794482031


Maximum memory used throughout the entire calculation: 289.3 MB


------------------------------------------------------------------------------- 
                                     TIMINGS                                   
------------------------------------------------------------------------------- 


Total execution time                   ...        2.131 sec

Localization of occupied MO's          ...        0.186 sec (  8.7%)
Fock Matrix Formation                  ...        0.172 sec (  8.1%)
Global overlap, Fock, MKN matrices     ...        0.058 sec (  2.7%)
Differential overlap integrals         ...        0.050 sec (  2.3%)
Organizing maps                        ...        0.001 sec (  0.0%)
RI 3-index integral generations        ...        0.399 sec ( 18.7%)
RI-PNO integral transformation         ...        0.390 sec ( 18.3%)
Initial Guess                          ...        0.026 sec (  1.2%)
DIIS Solver                            ...        0.004 sec (  0.2%)
State Vector Update                    ...        0.000 sec (  0.0%)
Sigma-vector construction              ...        0.562 sec ( 26.4%)
  <D|H|D>(0-ext)                       ...        0.026 sec (  4.6% of sigma)
  <D|H|D>(2-ext Fock)                  ...        0.002 sec (  0.4% of sigma)
  <D|H|D>(2-ext)                       ...        0.076 sec ( 13.4% of sigma)
  <D|H|D>(4-ext)                       ...        0.094 sec ( 16.7% of sigma)
  <D|H|D>(4-ext-corr)                  ...        0.224 sec ( 39.9% of sigma)
  CCSD doubles correction              ...        0.003 sec (  0.6% of sigma)
  <S|H|S>                              ...        0.005 sec (  0.9% of sigma)
  <S|H|D>(1-ext)                       ...        0.005 sec (  1.0% of sigma)
  <S|H|D>(3-ext)                       ...        0.008 sec (  1.5% of sigma)
  Fock-dressing                        ...        0.056 sec ( 10.0% of sigma)
  (ik|jl)-dressing                     ...        0.016 sec (  2.8% of sigma)
  (ij|ab),(ia|jb)-dressing             ...        0.040 sec (  7.2% of sigma)
Total Time for computing (T)           ...        0.214 sec ( 10.0% of ALL)


-------------------------   --------------------
FINAL SINGLE POINT ENERGY      -128.794482031478
-------------------------   --------------------


                            ***************************************
                            *     ORCA property calculations      *
                            ***************************************

                                    ---------------------
                                    Active property flags
                                    ---------------------
   (+) Dipole Moment


------------------------------------------------------------------------------
                       ORCA ELECTRIC PROPERTIES CALCULATION
------------------------------------------------------------------------------

Dipole Moment Calculation                       ... on
Quadrupole Moment Calculation                   ... off
Polarizability Calculation                      ... off
GBWName                                         ... neon@water.gbw
Electron density file                           ... neon@water.scfp
The origin for moment calculation is the CENTER OF MASS  = ( 0.000000,  0.000000  0.000000)

-------------
DIPOLE MOMENT
-------------
                                X             Y             Z
Electronic contribution:     -0.00000      -0.00000      -0.00000
Nuclear contribution   :      0.00000       0.00000       0.00000
                        -----------------------------------------
Total Dipole Moment    :     -0.00000      -0.00000      -0.00000
                        -----------------------------------------
Magnitude (a.u.)       :      0.00000
Magnitude (Debye)      :      0.00000



--------------------
Rotational spectrum 
--------------------
 
Rotational constants in cm-1:     0.000000     0.000000     0.000000 
Rotational constants in MHz :     0.000000     0.000000     0.000000 

 Dipole components along the rotational axes: 
x,y,z [a.u.] :    -0.000000    -0.000000    -0.000000 
x,y,z [Debye]:    -0.000000    -0.000000    -0.000000 

 

Timings for individual modules:

Sum of individual times         ...        4.559 sec (=   0.076 min)
GTO integral calculation        ...        0.093 sec (=   0.002 min)   2.0 %
SCF iterations                  ...        2.313 sec (=   0.039 min)  50.7 %
MDCI module                     ...        2.153 sec (=   0.036 min)  47.2 %
                             ****ORCA TERMINATED NORMALLY****
TOTAL RUN TIME: 0 days 0 hours 0 minutes 4 seconds 701 msec
