(SLURM) JOB ID:         183

                                 *****************
                                 * O   R   C   A *
                                 *****************

           --- An Ab Initio, DFT and Semiempirical electronic structure package ---

                  #######################################################
                  #                        -***-                        #
                  #          Department of theory and spectroscopy      #
                  #               Directorship: Frank Neese             #
                  #        Max Planck Institute fuer Kohlenforschung    #
                  #                Kaiser Wilhelm Platz 1               #
                  #                 D-45470 Muelheim/Ruhr               #
                  #                      Germany                        #
                  #                                                     #
                  #                  All rights reserved                #
                  #                        -***-                        #
                  #######################################################


                         Program Version 4.2.1 -  RELEASE  -


 With contributions from (in alphabetic order):
   Daniel Aravena         : Magnetic Suceptibility
   Michael Atanasov       : Ab Initio Ligand Field Theory (pilot matlab implementation)
   Alexander A. Auer      : GIAO ZORA, VPT2
   Ute Becker             : Parallelization
   Giovanni Bistoni       : ED, misc. LED, open-shell LED, HFLD
   Martin Brehm           : Molecular dynamics
   Dmytro Bykov           : SCF Hessian
   Vijay G. Chilkuri      : MRCI spin determinant printing, contributions to CSF-ICE
   Dipayan Datta          : RHF DLPNO-CCSD density
   Achintya Kumar Dutta   : EOM-CC, STEOM-CC
   Dmitry Ganyushin       : Spin-Orbit,Spin-Spin,Magnetic field MRCI
   Miquel Garcia          : C-PCM Hessian, Gaussian charge scheme
   Yang Guo               : DLPNO-NEVPT2, CIM, IAO-localization
   Andreas Hansen         : Spin unrestricted coupled pair/coupled cluster methods
   Benjamin Helmich-Paris : CASSCF linear response (MC-RPA)
   Lee Huntington         : MR-EOM, pCC
   Robert Izsak           : Overlap fitted RIJCOSX, COSX-SCS-MP3, EOM
   Christian Kollmar      : KDIIS, OOCD, Brueckner-CCSD(T), CCSD density
   Simone Kossmann        : Meta GGA functionals, TD-DFT gradient, OOMP2, MP2 Hessian
   Martin Krupicka        : AUTO-CI
   Lucas Lang             : DCDCAS
   Dagmar Lenk            : GEPOL surface, SMD
   Dimitrios Liakos       : Extrapolation schemes; Compound Job, initial MDCI parallelization
   Dimitrios Manganas     : Further ROCIS development; embedding schemes
   Dimitrios Pantazis     : SARC Basis sets
   Taras Petrenko         : DFT Hessian,TD-DFT gradient, ASA, ECA, R-Raman, ABS, FL, XAS/XES, NRVS
   Peter Pinski           : DLPNO-MP2, DLPNO-MP2 Gradient
   Christoph Reimann      : Effective Core Potentials
   Marius Retegan         : Local ZFS, SOC
   Christoph Riplinger    : Optimizer, TS searches, QM/MM, DLPNO-CCSD(T), (RO)-DLPNO pert. Triples
   Tobias Risthaus        : Range-separated hybrids, TD-DFT gradient, RPA, STAB
   Michael Roemelt        : Original ROCIS implementation
   Masaaki Saitow         : Open-shell DLPNO-CCSD energy and density
   Barbara Sandhoefer     : DKH picture change effects
   Avijit Sen             : IP-ROCIS
   Kantharuban Sivalingam : CASSCF convergence, NEVPT2, FIC-MRCI
   Bernardo de Souza      : ESD, SOC TD-DFT
   Georgi Stoychev        : AutoAux, RI-MP2 NMR
   Willem Van den Heuvel  : Paramagnetic NMR
   Boris Wezisla          : Elementary symmetry handling
   Frank Wennmohs         : Technical directorship


 We gratefully acknowledge several colleagues who have allowed us to
 interface, adapt or use parts of their codes:
   Stefan Grimme, W. Hujo, H. Kruse,             : VdW corrections, initial TS optimization,
                  C. Bannwarth                     DFT functionals, gCP, sTDA/sTD-DF
   Ed Valeev, F. Pavosevic, A. Kumar             : LibInt (2-el integral package), F12 methods
   Garnet Chan, S. Sharma, J. Yang, R. Olivares  : DMRG
   Ulf Ekstrom                                   : XCFun DFT Library
   Mihaly Kallay                                 : mrcc  (arbitrary order and MRCC methods)
   Andreas Klamt, Michael Diedenhofen            : otool_cosmo (COSMO solvation model)
   Jiri Pittner, Ondrej Demel                    : Mk-CCSD
   Frank Weinhold                                : gennbo (NPA and NBO analysis)
   Christopher J. Cramer and Donald G. Truhlar   : smd solvation model
   Lars Goerigk                                  : TD-DFT with DH, B97 family of functionals
   V. Asgeirsson, H. Jonsson                     : NEB implementation
   FAccTs GmbH                                   : IRC, NEB, NEB-TS, Multilevel, MM, QM/MM, CI optimization
   S Lehtola, MJT Oliveira, MAL Marques          : LibXC Library


 Your calculation uses the libint2 library for the computation of 2-el integrals
 For citations please refer to: http://libint.valeyev.net

 Your ORCA version has been built with support for libXC version: 4.2.3
 For citations please refer to: https://tddft.org/programs/libxc/

 This ORCA versions uses:
   CBLAS   interface :  Fast vector & matrix operations
   LAPACKE interface :  Fast linear algebra routines
   SCALAPACK package :  Parallel linear algebra routines




***************************************
The coordinates will be read from file: init.xyz
***************************************


Your calculation utilizes the SMD solvation module
Please cite in your paper:
A.V. Marenich, C.J. Cramer, D.G. Truhlar J. Phys. Chem. B, 113, (2009), 6378 

Your calculation utilizes the semiempirical GFN2-xTB method
Please cite in your paper:
C. Bannwarth, Ehlert S., S. Grimme,  J. Chem. Theory Comput., 15, (2019), 1652.
   

----- Orbital basis set information -----
Your calculation utilizes the basis: def2-SVP
   F. Weigend and R. Ahlrichs, Phys. Chem. Chem. Phys. 7, 3297 (2005).

================================================================================
                                        WARNINGS
                       Please study these warnings very carefully!
================================================================================

WARNING: Gradients needed for Numerical Frequencies
  ===> : Setting RunTyp to EnGrad

WARNING: The environment variable RSH_COMMAND is not set!
  ===> : All Displacements for the Numerical Hessian calculation
         will be started on localhost

WARNING: Found dipole moment calculation with XTB calculation
  ===> : Switching off dipole moment calculation


INFO   : the flag for use of LIBINT has been found!

================================================================================
                                       INPUT FILE
================================================================================
NAME = /tmp/slurm-scratch/freq.183/freq.inp
|  1> ! XTB2 NumFreq
|  2> %maxcore 1450
|  3> 
|  4> * xyzfile 0 1 init.xyz
|  5> 
|  6> %cpcm
|  7>  smd true
|  8>  smdsolvent "ch2cl2"
|  9> end
| 10> %pal nprocs 8 end
| 11> 
| 12>                          ****END OF INPUT****
================================================================================

                     *******************************
                     * Energy+Gradient Calculation *
                     *******************************

      -----------------------------------------------------------      
     |                   =====================                   |     
     |                           x T B                           |     
     |                   =====================                   |     
     |                         S. Grimme                         |     
     |          Mulliken Center for Theoretical Chemistry        |     
     |                    University of Bonn                     |     
      -----------------------------------------------------------      

   * xtb version 6.3.0 (preview) compiled by 'ehlert@majestix' on 2020-01-15

   This program is distributed in the hope that it will be useful,
   but WITHOUT ANY WARRANTY; without even the implied warranty of
   MERCHANTABILITY or FITNESS FOR A PARTICULAR PURPOSE.
   
   FOR NON-COMMERCIAL, ACADEMIA USE ONLY.
   
   Cite this work as:
   * S. Grimme, C. Bannwarth, P. Shushkov, J. Chem. Theory Comput., 2017,
     13, 1989-2009. DOI: 10.1021/acs.jctc.7b00118
   * C. Bannwarth, S. Ehlert and S. Grimme., J. Chem. Theory Comput., 2019,
     15, 1652-1671. DOI: 10.1021/acs.jctc.8b01176
   * P. Pracht, E. Caldeweyher, S. Ehlert, S. Grimme, ChemRxiv, 2019, preprint.
     DOI: 10.26434/chemrxiv.8326202.v1
   * S. Grimme, S. Spicher unpublished
   
   for DFT-D4:
   * E. Caldeweyher, C. Bannwarth and S. Grimme, J. Chem. Phys., 2017,
     147, 034112. DOI: 10.1063/1.4993215
   * E. Caldeweyher, S. Ehlert, A. Hansen, H. Neugebauer, S. Spicher,
     C. Bannwarth and S. Grimme, J. Chem. Phys., 2019, 150, 154122.
     DOI: 10.1063/1.5090222
   
   for sTDA-xTB:
   * S. Grimme and C. Bannwarth, J. Chem. Phys., 2016, 145, 054103.
     DOI: 10.1063/1.4959605
   
   in the mass-spec context:
   * V. Asgeirsson, C. Bauer and S. Grimme, Chem. Sci., 2017, 8, 4879.
     DOI: 10.1039/c7sc00601b
   
   for metadynamics refer to:
   * S. Grimme, J. Chem. Theory Comput., 2019, 155, 2847-2862
     DOI: 10.1021/acs.jctc.9b00143
   
   with help from (in alphabetical order)
   C. Bannwarth, F. Bohle, G. Brandenburg, E. Caldeweyher, M. Checinski,
   S. Dohm, S. Ehlert, S. Ehrlich, F. März, H. Neugebauer, J. Pisarek,
   P. Pracht, P. Shushkov, and S. Spicher.
   
 * started run on 2020/09/03 at 18:21:54.716     

           -------------------------------------------------
          |                Calculation Setup                |
           -------------------------------------------------

          program call               : /opt/orca/otool_xtb /tmp/slurm-scratch/freq.183/freq_XTB.xyz --grad -c 0 -u 0 -P 8 --namespace /tmp/slurm-scratch/freq.183/freq --gbsa CH2Cl2
          hostname                   : headnode-pbs
          calculation namespace      : /tmp/slurm-scratch/freq.183/freq
          coordinate file            : /tmp/slurm-scratch/freq.183/freq_XTB.xyz
          omp threads                :                     8
          number of atoms            :                    27
          number of electrons        :                    64
          charge                     :                     0
          spin                       :                   0.0
          first test random number   :      0.09921954406130


########################################################################
# WARNING! Please study the warnings concerning your input carefully
#  - Process number higher than OMP_NUM_THREADS, I hope you know what you are doing.
########################################################################

           ------------------------------------------------- 
          |                 G F N 2 - x T B                 |
          | Geometry, Frequencies, Noncovalent interactions |
          |            JCTC 2019 parametrisation            |
           ------------------------------------------------- 
             k(s)              :                1.8500
             k(p)              :                2.2300
             k(d)              :                2.2300
             k(f)              :                2.0000
             kEN (H0ij)        :               -2.0000
             D4 a1             :                0.5200
             D4 a2             :                5.0000
             D4 s6             :                1.0000
             D4 s8             :                2.7000
             D4 s9             :                5.0000
             alphaj            :                2.0000

  Z AO/shell   Hii/eV     exponent
  1     Wed Apr 25 08:07:45 CEST 2018   EN: 2.200 GM2: 0.406  GM3: 0.0800  RAES: 1.40
     1s    -10.707211    1.230000
  6     Wed Apr 25 08:07:45 CEST 2018   EN: 2.550 GM2: 0.538  GM3: 0.1500  RAES: 3.00
     2s    -13.970922    2.096432
     2p    -10.063292    1.800000
  7     Wed Apr 25 08:07:45 CEST 2018   EN: 3.040 GM2: 0.461  GM3:-0.0640  RAES: 1.90
     2s    -16.686243    2.339881
     2p    -12.523956    2.014332

 Solvent             : CH2Cl2
 Using internal parameter file: .param_gbsa2_CH2Cl2
 Gsolv ref. state (COSMO-RS): gsolv [1 M gas/solution]
 temperature (mdtemp)       :    298.150000000000     
 dielectric constant        :    8.93000000000000     
 rho                        :    1.33000000000000     
 mass                       :    84.9300000000000     
 surface tension            :    15.5689454083859     
 probe radius               :   0.719875900000000     
 Gshift (Eh)                :   4.440829173451759E-003
 c1                         :    1.49173776000000     
 soset                      :   0.000000000000000E+000
 HB correction              :  F
           ------------------------------------------------- 
          |        Self-Consistent Charge Iterations        |
           ------------------------------------------------- 

          ...................................................
          :                      SETUP                      :
          :.................................................:
          :  # basis functions                  63          :
          :  # atomic orbitals                  63          :
          :  # shells                           39          :
          :  # electrons                        64          :
          :  max. iterations                   250          :
          :  Hamiltonian                  GFN2-xTB          :
          :  GBSA solvation                   true          :
          :  PC potential                    false          :
          :  electronic temp.          300.0000000     K    :
          :  accuracy                    1.0000000          :
          :  -> integral cutoff          0.2500000E+02      :
          :  -> integral neglect         0.1000000E-07      :
          :  -> SCF convergence          0.1000000E-05 Eh   :
          :  -> wf. convergence          0.1000000E-03 e    :
          :  Broyden damping             0.4000000          :
          ...................................................
  Checking positiv definite overlap ...  done.
 

 iter      E             dE          RMSdq      gap      omega  full diag
   1    -34.6237467 -0.346237E+02  0.376E+00    3.29       0.0  T
   2    -34.6581944 -0.344477E-01  0.223E+00    3.17       1.0  T
   3    -34.6554379  0.275650E-02  0.752E-01    2.86       1.0  T
   4    -34.6597826 -0.434470E-02  0.339E-01    2.96       1.0  T
   5    -34.6616924 -0.190978E-02  0.653E-02    2.89       1.0  T
   6    -34.6617040 -0.116156E-04  0.332E-02    2.90       1.0  T
   7    -34.6617108 -0.679716E-05  0.140E-02    2.90       1.4  T
   8    -34.6617117 -0.894484E-06  0.341E-03    2.90       5.6  T
   9    -34.6617118 -0.103722E-06  0.137E-03    2.90      14.0  T
  10    -34.6617118 -0.357269E-08  0.833E-04    2.90      23.1  T
  11    -34.6617118 -0.422200E-08  0.212E-04    2.90      91.0  T

   *** convergence criteria satisfied after 11 iterations ***

         #    Occupation            Energy/Eh            Energy/eV
      -------------------------------------------------------------
         1        2.0000           -0.6497970             -17.6819
       ...           ...                  ...                  ...
        26        2.0000           -0.4375725             -11.9070
        27        2.0000           -0.4281721             -11.6512
        28        2.0000           -0.4250058             -11.5650
        29        2.0000           -0.4226222             -11.5001
        30        2.0000           -0.4087033             -11.1214
        31        2.0000           -0.3985126             -10.8441
        32        2.0000           -0.3765054             -10.2452 (HOMO)
        33                         -0.2699075              -7.3446 (LUMO)
        34                         -0.2284146              -6.2155
        35                         -0.1888052              -5.1376
        36                         -0.0879305              -2.3927
        37                          0.0334474               0.9101
       ...                                ...                  ...
        63                          0.6474268              17.6174
      -------------------------------------------------------------
                  HL-Gap            0.1065979 Eh            2.9007 eV
             Fermi-level           -0.3232064 Eh           -8.7949 eV

 SCC (total)                   0 d,  0 h,  0 min,  0.020 sec
 SCC setup                      ...        0 min,  0.001 sec (  3.809%)
 Dispersion                     ...        0 min,  0.000 sec (  1.243%)
 integral evaluation            ...        0 min,  0.004 sec ( 20.035%)
 zeroth order Hamiltonian       ...        0 min,  0.000 sec (  0.044%)
 iterations                     ...        0 min,  0.010 sec ( 48.627%)
 molecular gradient             ...        0 min,  0.005 sec ( 24.730%)
 printout                       ...        0 min,  0.000 sec (  1.328%)

         :::::::::::::::::::::::::::::::::::::::::::::::::::::
         ::                     SUMMARY                     ::
         :::::::::::::::::::::::::::::::::::::::::::::::::::::
         :: total energy             -34.111822509828 Eh    ::
         :: total w/o Gsasa/hb       -34.096465827350 Eh    ::
         :: gradient norm              0.024195446555 Eh/a0 ::
         :: HOMO-LUMO gap              2.900677262218 eV    ::
         ::.................................................::
         :: SCC energy               -34.677068464156 Eh    ::
         :: -> isotropic ES            0.011431079032 Eh    ::
         :: -> anisotropic ES          0.005746009571 Eh    ::
         :: -> anisotropic XC          0.028315305796 Eh    ::
         :: -> dispersion             -0.020196453502 Eh    ::
         :: -> Gsolv                  -0.016866083730 Eh    ::
         ::    -> Gborn               -0.001509401252 Eh    ::
         ::    -> Gsasa               -0.019797511651 Eh    ::
         ::    -> Ghb                  0.000000000000 Eh    ::
         ::    -> Gshift               0.004440829173 Eh    ::
         :: repulsion energy           0.565400346876 Eh    ::
         :: add. restraining           0.000000000000 Eh    ::
         :::::::::::::::::::::::::::::::::::::::::::::::::::::

           -------------------------------------------------
          |                Property Printout                |
           -------------------------------------------------

    * Orbital Energies and Occupations

         #    Occupation            Energy/Eh            Energy/eV
      -------------------------------------------------------------
         1        2.0000           -0.6497970             -17.6819
       ...           ...                  ...                  ...
        20        2.0000           -0.4798583             -13.0576
        21        2.0000           -0.4748663             -12.9218
        22        2.0000           -0.4722732             -12.8512
        23        2.0000           -0.4603500             -12.5268
        24        2.0000           -0.4452747             -12.1165
        25        2.0000           -0.4384347             -11.9304
        26        2.0000           -0.4375725             -11.9070
        27        2.0000           -0.4281721             -11.6512
        28        2.0000           -0.4250058             -11.5650
        29        2.0000           -0.4226222             -11.5001
        30        2.0000           -0.4087033             -11.1214
        31        2.0000           -0.3985126             -10.8441
        32        2.0000           -0.3765054             -10.2452 (HOMO)
        33                         -0.2699075              -7.3446 (LUMO)
        34                         -0.2284146              -6.2155
        35                         -0.1888052              -5.1376
        36                         -0.0879305              -2.3927
        37                          0.0334474               0.9101
        38                          0.0982933               2.6747
        39                          0.1027263               2.7953
        40                          0.1156822               3.1479
        41                          0.1193237               3.2470
        42                          0.1329174               3.6169
        43                          0.1476489               4.0177
       ...                                ...                  ...
        63                          0.6474268              17.6174
      -------------------------------------------------------------
                  HL-Gap            0.1065979 Eh            2.9007 eV
             Fermi-level           -0.3232064 Eh           -8.7949 eV

     #   Z        covCN         q      C6AA      α(0)
     1   6 C      2.916    -0.026    28.647     8.777
     2   6 C      2.913    -0.029    28.733     8.790
     3   6 C      2.922    -0.031    28.765     8.795
     4   6 C      2.970     0.005    27.905     8.665
     5   6 C      2.918    -0.025    28.620     8.773
     6   6 C      2.914    -0.028    28.698     8.784
     7   1 H      0.925     0.042     2.428     2.437
     8   1 H      0.925     0.035     2.520     2.482
     9   1 H      0.926     0.053     2.282     2.363
    10   6 C      2.859     0.077    26.274     8.402
    11   1 H      0.924    -0.004     3.121     2.763
    12   7 N      1.825    -0.256    27.512     7.772
    13   6 C      3.768     0.023    20.227     6.410
    14   6 C      3.802    -0.056    21.585     6.615
    15   1 H      0.924     0.032     2.564     2.504
    16   1 H      0.924     0.045     2.389     2.417
    17   1 H      0.924     0.041     2.435     2.440
    18   1 H      0.923     0.005     2.970     2.695
    19   6 C      3.800    -0.052    21.512     6.604
    20   1 H      0.924     0.032     2.556     2.500
    21   1 H      0.924     0.030     2.591     2.517
    22   1 H      0.925     0.042     2.421     2.433
    23   1 H      0.925     0.040     2.454     2.450
    24   6 C      3.750    -0.102    22.504     6.766
    25   1 H      0.924     0.036     2.497     2.471
    26   1 H      0.924     0.037     2.488     2.466
    27   1 H      0.924     0.035     2.523     2.484

 Mol. C6AA /au·bohr⁶  :       7188.344140
 Mol. C8AA /au·bohr⁸  :     165611.752729
 Mol. α(0) /au        :        132.574633


Wiberg/Mayer (AO) data.
largest (>0.10) Wiberg bond orders for each atom
          total WBO             WBO to atom ...
     1  C   3.988        C    2 1.438    C    6 1.423    H    7 0.971    C    4 0.100
     2  C   3.991        C    3 1.449    C    1 1.438    H   23 0.971    C    5 0.107
     3  C   3.987        C    2 1.449    C    4 1.383    H    8 0.969    C    6 0.105
     4  C   3.989        C    3 1.383    C    5 1.367    C   10 1.080    C    1 0.100
     5  C   3.990        C    6 1.466    C    4 1.367    H    9 0.968    C    2 0.107
     6  C   3.991        C    5 1.466    C    1 1.423    H   22 0.970    C    3 0.105
     7  H   0.998        C    1 0.971
     8  H   0.999        C    3 0.969
     9  H   0.997        C    5 0.968
    10  C   3.970        N   12 1.848    C    4 1.080    H   11 0.939
    11  H   1.000        C   10 0.939
    12  N   3.064        C   10 1.848    C   13 1.024
    13  C   3.985        N   12 1.024    C   14 0.988    H   18 0.965    H   17 0.957
    14  C   3.991        C   19 1.006    C   13 0.988    H   15 0.978    H   16 0.976
    15  H   0.999        C   14 0.978
    16  H   0.998        C   14 0.976
    17  H   0.995        C   13 0.957
    18  H   1.000        C   13 0.965
    19  C   3.996        C   24 1.019    C   14 1.006    H   21 0.978    H   20 0.978
    20  H   0.999        C   19 0.978
    21  H   0.999        C   19 0.978
    22  H   0.998        C    6 0.970
    23  H   0.998        C    2 0.971
    24  C   3.995        C   19 1.019    H   27 0.988    H   25 0.988    H   26 0.987
    25  H   0.999        C   24 0.988
    26  H   0.998        C   24 0.987
    27  H   0.999        C   24 0.988

molecular dipole:
                 x           y           z       tot (Debye)
 q only:       -0.155      -0.251       0.083
   full:       -0.458       0.026       0.211       1.285
molecular quadrupole (traceless):
                xx          xy          yy          xz          yz          zz
 q only:        6.912       6.787      -4.011      -2.497       0.650      -2.902
  q+dip:       11.976      -4.104      -1.070     -10.445       6.104     -10.907
   full:       10.569      -3.923      -2.283      -8.417       5.062      -8.285

           -------------------------------------------------
          |                Property Printout                |
           -------------------------------------------------

    * Orbital Energies and Occupations

         #    Occupation            Energy/Eh            Energy/eV
      -------------------------------------------------------------
         1        2.0000           -0.6497970             -17.6819
       ...           ...                  ...                  ...
        20        2.0000           -0.4798583             -13.0576
        21        2.0000           -0.4748663             -12.9218
        22        2.0000           -0.4722732             -12.8512
        23        2.0000           -0.4603500             -12.5268
        24        2.0000           -0.4452747             -12.1165
        25        2.0000           -0.4384347             -11.9304
        26        2.0000           -0.4375725             -11.9070
        27        2.0000           -0.4281721             -11.6512
        28        2.0000           -0.4250058             -11.5650
        29        2.0000           -0.4226222             -11.5001
        30        2.0000           -0.4087033             -11.1214
        31        2.0000           -0.3985126             -10.8441
        32        2.0000           -0.3765054             -10.2452 (HOMO)
        33                         -0.2699075              -7.3446 (LUMO)
        34                         -0.2284146              -6.2155
        35                         -0.1888052              -5.1376
        36                         -0.0879305              -2.3927
        37                          0.0334474               0.9101
        38                          0.0982933               2.6747
        39                          0.1027263               2.7953
        40                          0.1156822               3.1479
        41                          0.1193237               3.2470
        42                          0.1329174               3.6169
        43                          0.1476489               4.0177
       ...                                ...                  ...
        63                          0.6474268              17.6174
      -------------------------------------------------------------
                  HL-Gap            0.1065979 Eh            2.9007 eV
             Fermi-level           -0.3232064 Eh           -8.7949 eV

     #   Z        covCN         q      C6AA      α(0)
     1   6 C      2.916    -0.026    28.647     8.777
     2   6 C      2.913    -0.029    28.733     8.790
     3   6 C      2.922    -0.031    28.765     8.795
     4   6 C      2.970     0.005    27.905     8.665
     5   6 C      2.918    -0.025    28.620     8.773
     6   6 C      2.914    -0.028    28.698     8.784
     7   1 H      0.925     0.042     2.428     2.437
     8   1 H      0.925     0.035     2.520     2.482
     9   1 H      0.926     0.053     2.282     2.363
    10   6 C      2.859     0.077    26.274     8.402
    11   1 H      0.924    -0.004     3.121     2.763
    12   7 N      1.825    -0.256    27.512     7.772
    13   6 C      3.768     0.023    20.227     6.410
    14   6 C      3.802    -0.056    21.585     6.615
    15   1 H      0.924     0.032     2.564     2.504
    16   1 H      0.924     0.045     2.389     2.417
    17   1 H      0.924     0.041     2.435     2.440
    18   1 H      0.923     0.005     2.970     2.695
    19   6 C      3.800    -0.052    21.512     6.604
    20   1 H      0.924     0.032     2.556     2.500
    21   1 H      0.924     0.030     2.591     2.517
    22   1 H      0.925     0.042     2.421     2.433
    23   1 H      0.925     0.040     2.454     2.450
    24   6 C      3.750    -0.102    22.504     6.766
    25   1 H      0.924     0.036     2.497     2.471
    26   1 H      0.924     0.037     2.488     2.466
    27   1 H      0.924     0.035     2.523     2.484

 Mol. C6AA /au·bohr⁶  :       7188.344140
 Mol. C8AA /au·bohr⁸  :     165611.752729
 Mol. α(0) /au        :        132.574633


Wiberg/Mayer (AO) data.
largest (>0.10) Wiberg bond orders for each atom
          total WBO             WBO to atom ...
     1  C   3.988        C    2 1.438    C    6 1.423    H    7 0.971    C    4 0.100
     2  C   3.991        C    3 1.449    C    1 1.438    H   23 0.971    C    5 0.107
     3  C   3.987        C    2 1.449    C    4 1.383    H    8 0.969    C    6 0.105
     4  C   3.989        C    3 1.383    C    5 1.367    C   10 1.080    C    1 0.100
     5  C   3.990        C    6 1.466    C    4 1.367    H    9 0.968    C    2 0.107
     6  C   3.991        C    5 1.466    C    1 1.423    H   22 0.970    C    3 0.105
     7  H   0.998        C    1 0.971
     8  H   0.999        C    3 0.969
     9  H   0.997        C    5 0.968
    10  C   3.970        N   12 1.848    C    4 1.080    H   11 0.939
    11  H   1.000        C   10 0.939
    12  N   3.064        C   10 1.848    C   13 1.024
    13  C   3.985        N   12 1.024    C   14 0.988    H   18 0.965    H   17 0.957
    14  C   3.991        C   19 1.006    C   13 0.988    H   15 0.978    H   16 0.976
    15  H   0.999        C   14 0.978
    16  H   0.998        C   14 0.976
    17  H   0.995        C   13 0.957
    18  H   1.000        C   13 0.965
    19  C   3.996        C   24 1.019    C   14 1.006    H   21 0.978    H   20 0.978
    20  H   0.999        C   19 0.978
    21  H   0.999        C   19 0.978
    22  H   0.998        C    6 0.970
    23  H   0.998        C    2 0.971
    24  C   3.995        C   19 1.019    H   27 0.988    H   25 0.988    H   26 0.987
    25  H   0.999        C   24 0.988
    26  H   0.998        C   24 0.987
    27  H   0.999        C   24 0.988

molecular dipole:
                 x           y           z       tot (Debye)
 q only:       -0.155      -0.251       0.083
   full:       -0.458       0.026       0.211       1.285
molecular quadrupole (traceless):
                xx          xy          yy          xz          yz          zz
 q only:        6.912       6.787      -4.011      -2.497       0.650      -2.902
  q+dip:       11.976      -4.104      -1.070     -10.445       6.104     -10.907
   full:       10.569      -3.923      -2.283      -8.417       5.062      -8.285


           -------------------------------------------------
          | TOTAL ENERGY              -34.111822509828 Eh   |
          | GRADIENT NORM               0.024195446555 Eh/α |
          | HOMO-LUMO GAP               2.900677262218 eV   |
           -------------------------------------------------

------------------------------------------------------------------------
 * finished run on 2020/09/03 at 18:21:54.775     
------------------------------------------------------------------------
 total:
 * wall-time:     0 d,  0 h,  0 min,  0.059 sec
 *  cpu-time:     0 d,  0 h,  0 min,  0.424 sec
 * ratio c/w:     7.225 speedup
 SCF:
 * wall-time:     0 d,  0 h,  0 min,  0.020 sec
 *  cpu-time:     0 d,  0 h,  0 min,  0.159 sec
 * ratio c/w:     7.828 speedup


-------------------------   --------------------
FINAL SINGLE POINT ENERGY       -34.111822509830
-------------------------   --------------------


----------------------------------------------------------------------------
                           ORCA NUMERICAL FREQUENCIES
                              (8-process run)
----------------------------------------------------------------------------

Number of atoms                ... 27
Central differences            ... used
Number of displacements        ... 162
Numerical increment            ... 5.000e-03 bohr
IR-spectrum generation         ... on
Raman-spectrum generation      ... off
Surface Crossing Hessian       ... off
List of participating nodes    ...  /tmp/slurm-scratch/freq.183/freq.hostnames

The output will be reduced. Please look at the following files:
SCF program output             ... >/tmp/slurm-scratch/freq.183/freq.lastscf
Integral program output        ... >/tmp/slurm-scratch/freq.183/freq.lastint
Gradient program output        ... >/tmp/slurm-scratch/freq.183/freq.lastgrad
Dipole moment program output   ... >/tmp/slurm-scratch/freq.183/freq.lastmom
AutoCI program output          ... >/tmp/slurm-scratch/freq.183/freq.lastautoci


         <<< Energy and Gradient at the input geometry >>>

        <<< Energy and Gradient at displaced geometries >>>
             <<<Displacing   1/coordinate 2 (+)>>>
             <<<Displacing   3/coordinate 2 (+)>>>
             <<<Displacing   2/coordinate 3 (+)>>>
             <<<Displacing   2/coordinate 2 (+)>>>
             <<<Displacing   1/coordinate 1 (+)>>>
             <<<Displacing   3/coordinate 1 (+)>>>
             <<<Displacing   2/coordinate 1 (+)>>>
             <<<Displacing   1/coordinate 3 (+)>>>
             <<<Displacing   1/coordinate 2 (-)>>>
             <<<Displacing   2/coordinate 2 (-)>>>
             <<<Displacing   2/coordinate 3 (-)>>>
             <<<Displacing   3/coordinate 2 (-)>>>
             <<<Displacing   3/coordinate 1 (-)>>>
             <<<Displacing   1/coordinate 1 (-)>>>
             <<<Displacing   1/coordinate 3 (-)>>>
             <<<Displacing   2/coordinate 1 (-)>>>
             <<<Displacing   3/coordinate 3 (+)>>>
             <<<Displacing   4/coordinate 3 (+)>>>
             <<<Displacing   4/coordinate 1 (+)>>>
             <<<Displacing   5/coordinate 1 (+)>>>
             <<<Displacing   4/coordinate 2 (+)>>>
             <<<Displacing   5/coordinate 2 (+)>>>
             <<<Displacing   3/coordinate 3 (-)>>>
             <<<Displacing   5/coordinate 3 (+)>>>
             <<<Displacing   6/coordinate 1 (+)>>>
             <<<Displacing   4/coordinate 3 (-)>>>
             <<<Displacing   4/coordinate 1 (-)>>>
             <<<Displacing   5/coordinate 1 (-)>>>
             <<<Displacing   5/coordinate 2 (-)>>>
             <<<Displacing   4/coordinate 2 (-)>>>
             <<<Displacing   5/coordinate 3 (-)>>>
             <<<Displacing   6/coordinate 1 (-)>>>
             <<<Displacing   6/coordinate 2 (+)>>>
             <<<Displacing   6/coordinate 3 (+)>>>
             <<<Displacing   7/coordinate 1 (+)>>>
             <<<Displacing   7/coordinate 3 (+)>>>
             <<<Displacing   7/coordinate 2 (+)>>>
             <<<Displacing   8/coordinate 1 (+)>>>
             <<<Displacing   6/coordinate 2 (-)>>>
             <<<Displacing   8/coordinate 3 (+)>>>
             <<<Displacing   6/coordinate 3 (-)>>>
             <<<Displacing   7/coordinate 1 (-)>>>
             <<<Displacing   7/coordinate 2 (-)>>>
             <<<Displacing   8/coordinate 2 (+)>>>
             <<<Displacing   7/coordinate 3 (-)>>>
             <<<Displacing   8/coordinate 1 (-)>>>
             <<<Displacing   8/coordinate 3 (-)>>>
             <<<Displacing   8/coordinate 2 (-)>>>
             <<<Displacing   9/coordinate 1 (+)>>>
             <<<Displacing   9/coordinate 3 (+)>>>
             <<<Displacing  10/coordinate 1 (+)>>>
             <<<Displacing   9/coordinate 2 (+)>>>
             <<<Displacing   9/coordinate 1 (-)>>>
             <<<Displacing  10/coordinate 3 (+)>>>
             <<<Displacing  10/coordinate 2 (+)>>>
             <<<Displacing   9/coordinate 2 (-)>>>
             <<<Displacing  10/coordinate 1 (-)>>>
             <<<Displacing   9/coordinate 3 (-)>>>
             <<<Displacing  11/coordinate 1 (+)>>>
             <<<Displacing  11/coordinate 2 (+)>>>
             <<<Displacing  10/coordinate 3 (-)>>>
             <<<Displacing  10/coordinate 2 (-)>>>
             <<<Displacing  11/coordinate 1 (-)>>>
             <<<Displacing  11/coordinate 2 (-)>>>
             <<<Displacing  11/coordinate 3 (+)>>>
             <<<Displacing  12/coordinate 1 (+)>>>
             <<<Displacing  12/coordinate 2 (+)>>>
             <<<Displacing  12/coordinate 3 (+)>>>
             <<<Displacing  13/coordinate 1 (+)>>>
             <<<Displacing  11/coordinate 3 (-)>>>
             <<<Displacing  12/coordinate 2 (-)>>>
             <<<Displacing  12/coordinate 1 (-)>>>
             <<<Displacing  14/coordinate 1 (+)>>>
             <<<Displacing  13/coordinate 3 (+)>>>
             <<<Displacing  13/coordinate 2 (+)>>>
             <<<Displacing  12/coordinate 3 (-)>>>
             <<<Displacing  13/coordinate 1 (-)>>>
             <<<Displacing  14/coordinate 1 (-)>>>
             <<<Displacing  13/coordinate 2 (-)>>>
             <<<Displacing  13/coordinate 3 (-)>>>
             <<<Displacing  14/coordinate 2 (+)>>>
             <<<Displacing  14/coordinate 3 (+)>>>
             <<<Displacing  15/coordinate 1 (+)>>>
             <<<Displacing  15/coordinate 2 (+)>>>
             <<<Displacing  14/coordinate 2 (-)>>>
             <<<Displacing  15/coordinate 3 (+)>>>
             <<<Displacing  15/coordinate 1 (-)>>>
             <<<Displacing  14/coordinate 3 (-)>>>
             <<<Displacing  15/coordinate 2 (-)>>>
             <<<Displacing  16/coordinate 1 (+)>>>
             <<<Displacing  15/coordinate 3 (-)>>>
             <<<Displacing  16/coordinate 3 (+)>>>
             <<<Displacing  16/coordinate 2 (+)>>>
             <<<Displacing  16/coordinate 1 (-)>>>
             <<<Displacing  16/coordinate 3 (-)>>>
             <<<Displacing  16/coordinate 2 (-)>>>
             <<<Displacing  17/coordinate 1 (+)>>>
             <<<Displacing  17/coordinate 2 (+)>>>
             <<<Displacing  18/coordinate 1 (+)>>>
             <<<Displacing  17/coordinate 3 (+)>>>
             <<<Displacing  17/coordinate 1 (-)>>>
             <<<Displacing  18/coordinate 2 (+)>>>
             <<<Displacing  17/coordinate 2 (-)>>>
             <<<Displacing  18/coordinate 1 (-)>>>
             <<<Displacing  17/coordinate 3 (-)>>>
             <<<Displacing  18/coordinate 3 (+)>>>
             <<<Displacing  18/coordinate 2 (-)>>>
             <<<Displacing  19/coordinate 1 (+)>>>
             <<<Displacing  19/coordinate 2 (+)>>>
             <<<Displacing  18/coordinate 3 (-)>>>
             <<<Displacing  19/coordinate 2 (-)>>>
             <<<Displacing  19/coordinate 1 (-)>>>
             <<<Displacing  20/coordinate 2 (+)>>>
             <<<Displacing  20/coordinate 1 (+)>>>
             <<<Displacing  19/coordinate 3 (+)>>>
             <<<Displacing  20/coordinate 3 (+)>>>
             <<<Displacing  20/coordinate 2 (-)>>>
             <<<Displacing  21/coordinate 1 (+)>>>
             <<<Displacing  20/coordinate 1 (-)>>>
             <<<Displacing  19/coordinate 3 (-)>>>
             <<<Displacing  20/coordinate 3 (-)>>>
             <<<Displacing  21/coordinate 2 (+)>>>
             <<<Displacing  21/coordinate 1 (-)>>>
             <<<Displacing  21/coordinate 2 (-)>>>
             <<<Displacing  21/coordinate 3 (+)>>>
             <<<Displacing  22/coordinate 1 (+)>>>
             <<<Displacing  21/coordinate 3 (-)>>>
             <<<Displacing  22/coordinate 1 (-)>>>
             <<<Displacing  22/coordinate 2 (+)>>>
             <<<Displacing  23/coordinate 1 (+)>>>
             <<<Displacing  22/coordinate 3 (+)>>>
             <<<Displacing  22/coordinate 2 (-)>>>
             <<<Displacing  23/coordinate 1 (-)>>>
             <<<Displacing  23/coordinate 3 (+)>>>
             <<<Displacing  22/coordinate 3 (-)>>>
             <<<Displacing  23/coordinate 2 (+)>>>
             <<<Displacing  23/coordinate 3 (-)>>>
             <<<Displacing  24/coordinate 1 (+)>>>
             <<<Displacing  23/coordinate 2 (-)>>>
             <<<Displacing  24/coordinate 3 (+)>>>
             <<<Displacing  24/coordinate 1 (-)>>>
             <<<Displacing  24/coordinate 2 (+)>>>
             <<<Displacing  24/coordinate 2 (-)>>>
             <<<Displacing  24/coordinate 3 (-)>>>
             <<<Displacing  25/coordinate 1 (+)>>>
             <<<Displacing  25/coordinate 2 (+)>>>
             <<<Displacing  25/coordinate 3 (+)>>>
             <<<Displacing  25/coordinate 1 (-)>>>
             <<<Displacing  25/coordinate 3 (-)>>>
             <<<Displacing  25/coordinate 2 (-)>>>
             <<<Displacing  26/coordinate 1 (+)>>>
             <<<Displacing  26/coordinate 2 (+)>>>
             <<<Displacing  26/coordinate 2 (-)>>>
             <<<Displacing  26/coordinate 3 (+)>>>
             <<<Displacing  26/coordinate 1 (-)>>>
             <<<Displacing  27/coordinate 2 (+)>>>
             <<<Displacing  27/coordinate 1 (+)>>>
             <<<Displacing  26/coordinate 3 (-)>>>
             <<<Displacing  27/coordinate 2 (-)>>>
             <<<Displacing  27/coordinate 1 (-)>>>
             <<<Displacing  27/coordinate 3 (+)>>>
             <<<Displacing  27/coordinate 3 (-)>>>

-----------------------
VIBRATIONAL FREQUENCIES
-----------------------

Scaling factor for frequencies =  1.000000000 (already applied!)

   0:         0.00 cm**-1
   1:         0.00 cm**-1
   2:         0.00 cm**-1
   3:         0.00 cm**-1
   4:         0.00 cm**-1
   5:         0.00 cm**-1
   6:        48.82 cm**-1
   7:        64.46 cm**-1
   8:        74.02 cm**-1
   9:       103.64 cm**-1
  10:       115.82 cm**-1
  11:       153.84 cm**-1
  12:       213.48 cm**-1
  13:       264.43 cm**-1
  14:       270.72 cm**-1
  15:       281.63 cm**-1
  16:       373.51 cm**-1
  17:       376.66 cm**-1
  18:       425.63 cm**-1
  19:       462.62 cm**-1
  20:       508.97 cm**-1
  21:       588.23 cm**-1
  22:       623.97 cm**-1
  23:       663.85 cm**-1
  24:       753.35 cm**-1
  25:       771.73 cm**-1
  26:       820.77 cm**-1
  27:       857.48 cm**-1
  28:       873.93 cm**-1
  29:       899.61 cm**-1
  30:       913.01 cm**-1
  31:       927.90 cm**-1
  32:       932.98 cm**-1
  33:       943.61 cm**-1
  34:       951.69 cm**-1
  35:       984.19 cm**-1
  36:      1018.93 cm**-1
  37:      1067.13 cm**-1
  38:      1071.59 cm**-1
  39:      1100.21 cm**-1
  40:      1111.36 cm**-1
  41:      1125.44 cm**-1
  42:      1143.11 cm**-1
  43:      1177.34 cm**-1
  44:      1185.17 cm**-1
  45:      1211.06 cm**-1
  46:      1218.71 cm**-1
  47:      1252.07 cm**-1
  48:      1267.54 cm**-1
  49:      1275.84 cm**-1
  50:      1277.30 cm**-1
  51:      1292.34 cm**-1
  52:      1325.50 cm**-1
  53:      1354.78 cm**-1
  54:      1368.37 cm**-1
  55:      1423.13 cm**-1
  56:      1427.91 cm**-1
  57:      1454.93 cm**-1
  58:      1468.69 cm**-1
  59:      1501.07 cm**-1
  60:      1505.82 cm**-1
  61:      1507.70 cm**-1
  62:      1512.14 cm**-1
  63:      1561.23 cm**-1
  64:      1567.31 cm**-1
  65:      1668.24 cm**-1
  66:      2849.35 cm**-1
  67:      2867.80 cm**-1
  68:      2939.34 cm**-1
  69:      2942.19 cm**-1
  70:      2954.74 cm**-1
  71:      2966.62 cm**-1
  72:      2973.99 cm**-1
  73:      2980.75 cm**-1
  74:      2986.37 cm**-1
  75:      2998.22 cm**-1
  76:      3048.43 cm**-1
  77:      3055.58 cm**-1
  78:      3061.34 cm**-1
  79:      3071.07 cm**-1
  80:      3083.00 cm**-1


------------
NORMAL MODES
------------

These modes are the cartesian displacements weighted by the diagonal matrix
M(i,i)=1/sqrt(m[i]) where m[i] is the mass of the displaced atom
Thus, these vectors are normalized but *not* orthogonal

                  0          1          2          3          4          5    
      0       0.000000   0.000000   0.000000   0.000000   0.000000   0.000000
      1       0.000000   0.000000   0.000000   0.000000   0.000000   0.000000
      2       0.000000   0.000000   0.000000   0.000000   0.000000   0.000000
      3       0.000000   0.000000   0.000000   0.000000   0.000000   0.000000
      4       0.000000   0.000000   0.000000   0.000000   0.000000   0.000000
      5       0.000000   0.000000   0.000000   0.000000   0.000000   0.000000
      6       0.000000   0.000000   0.000000   0.000000   0.000000   0.000000
      7       0.000000   0.000000   0.000000   0.000000   0.000000   0.000000
      8       0.000000   0.000000   0.000000   0.000000   0.000000   0.000000
      9       0.000000   0.000000   0.000000   0.000000   0.000000   0.000000
     10       0.000000   0.000000   0.000000   0.000000   0.000000   0.000000
     11       0.000000   0.000000   0.000000   0.000000   0.000000   0.000000
     12       0.000000   0.000000   0.000000   0.000000   0.000000   0.000000
     13       0.000000   0.000000   0.000000   0.000000   0.000000   0.000000
     14       0.000000   0.000000   0.000000   0.000000   0.000000   0.000000
     15       0.000000   0.000000   0.000000   0.000000   0.000000   0.000000
     16       0.000000   0.000000   0.000000   0.000000   0.000000   0.000000
     17       0.000000   0.000000   0.000000   0.000000   0.000000   0.000000
     18       0.000000   0.000000   0.000000   0.000000   0.000000   0.000000
     19       0.000000   0.000000   0.000000   0.000000   0.000000   0.000000
     20       0.000000   0.000000   0.000000   0.000000   0.000000   0.000000
     21       0.000000   0.000000   0.000000   0.000000   0.000000   0.000000
     22       0.000000   0.000000   0.000000   0.000000   0.000000   0.000000
     23       0.000000   0.000000   0.000000   0.000000   0.000000   0.000000
     24       0.000000   0.000000   0.000000   0.000000   0.000000   0.000000
     25       0.000000   0.000000   0.000000   0.000000   0.000000   0.000000
     26       0.000000   0.000000   0.000000   0.000000   0.000000   0.000000
     27       0.000000   0.000000   0.000000   0.000000   0.000000   0.000000
     28       0.000000   0.000000   0.000000   0.000000   0.000000   0.000000
     29       0.000000   0.000000   0.000000   0.000000   0.000000   0.000000
     30       0.000000   0.000000   0.000000   0.000000   0.000000   0.000000
     31       0.000000   0.000000   0.000000   0.000000   0.000000   0.000000
     32       0.000000   0.000000   0.000000   0.000000   0.000000   0.000000
     33       0.000000   0.000000   0.000000   0.000000   0.000000   0.000000
     34       0.000000   0.000000   0.000000   0.000000   0.000000   0.000000
     35       0.000000   0.000000   0.000000   0.000000   0.000000   0.000000
     36       0.000000   0.000000   0.000000   0.000000   0.000000   0.000000
     37       0.000000   0.000000   0.000000   0.000000   0.000000   0.000000
     38       0.000000   0.000000   0.000000   0.000000   0.000000   0.000000
     39       0.000000   0.000000   0.000000   0.000000   0.000000   0.000000
     40       0.000000   0.000000   0.000000   0.000000   0.000000   0.000000
     41       0.000000   0.000000   0.000000   0.000000   0.000000   0.000000
     42       0.000000   0.000000   0.000000   0.000000   0.000000   0.000000
     43       0.000000   0.000000   0.000000   0.000000   0.000000   0.000000
     44       0.000000   0.000000   0.000000   0.000000   0.000000   0.000000
     45       0.000000   0.000000   0.000000   0.000000   0.000000   0.000000
     46       0.000000   0.000000   0.000000   0.000000   0.000000   0.000000
     47       0.000000   0.000000   0.000000   0.000000   0.000000   0.000000
     48       0.000000   0.000000   0.000000   0.000000   0.000000   0.000000
     49       0.000000   0.000000   0.000000   0.000000   0.000000   0.000000
     50       0.000000   0.000000   0.000000   0.000000   0.000000   0.000000
     51       0.000000   0.000000   0.000000   0.000000   0.000000   0.000000
     52       0.000000   0.000000   0.000000   0.000000   0.000000   0.000000
     53       0.000000   0.000000   0.000000   0.000000   0.000000   0.000000
     54       0.000000   0.000000   0.000000   0.000000   0.000000   0.000000
     55       0.000000   0.000000   0.000000   0.000000   0.000000   0.000000
     56       0.000000   0.000000   0.000000   0.000000   0.000000   0.000000
     57       0.000000   0.000000   0.000000   0.000000   0.000000   0.000000
     58       0.000000   0.000000   0.000000   0.000000   0.000000   0.000000
     59       0.000000   0.000000   0.000000   0.000000   0.000000   0.000000
     60       0.000000   0.000000   0.000000   0.000000   0.000000   0.000000
     61       0.000000   0.000000   0.000000   0.000000   0.000000   0.000000
     62       0.000000   0.000000   0.000000   0.000000   0.000000   0.000000
     63       0.000000   0.000000   0.000000   0.000000   0.000000   0.000000
     64       0.000000   0.000000   0.000000   0.000000   0.000000   0.000000
     65       0.000000   0.000000   0.000000   0.000000   0.000000   0.000000
     66       0.000000   0.000000   0.000000   0.000000   0.000000   0.000000
     67       0.000000   0.000000   0.000000   0.000000   0.000000   0.000000
     68       0.000000   0.000000   0.000000   0.000000   0.000000   0.000000
     69       0.000000   0.000000   0.000000   0.000000   0.000000   0.000000
     70       0.000000   0.000000   0.000000   0.000000   0.000000   0.000000
     71       0.000000   0.000000   0.000000   0.000000   0.000000   0.000000
     72       0.000000   0.000000   0.000000   0.000000   0.000000   0.000000
     73       0.000000   0.000000   0.000000   0.000000   0.000000   0.000000
     74       0.000000   0.000000   0.000000   0.000000   0.000000   0.000000
     75       0.000000   0.000000   0.000000   0.000000   0.000000   0.000000
     76       0.000000   0.000000   0.000000   0.000000   0.000000   0.000000
     77       0.000000   0.000000   0.000000   0.000000   0.000000   0.000000
     78       0.000000   0.000000   0.000000   0.000000   0.000000   0.000000
     79       0.000000   0.000000   0.000000   0.000000   0.000000   0.000000
     80       0.000000   0.000000   0.000000   0.000000   0.000000   0.000000
                  6          7          8          9         10         11    
      0       0.007862   0.111749  -0.058057   0.001082   0.028865   0.102240
      1       0.020325  -0.024031   0.020293  -0.032552  -0.040879   0.016404
      2       0.094945   0.104277   0.006622   0.117452   0.084590  -0.043289
      3       0.061304   0.035335  -0.024183   0.007017   0.012536   0.014462
      4       0.015943  -0.023492   0.045183  -0.003569  -0.045206  -0.060405
      5       0.186457  -0.014329   0.005673   0.064837   0.068784  -0.012774
      6       0.070825  -0.032861   0.019075  -0.008157  -0.032314  -0.095521
      7       0.018271   0.013974   0.025035   0.017068  -0.014680  -0.012716
      8       0.123094  -0.081758   0.009407  -0.073495  -0.029809   0.036099
      9       0.027617  -0.028191   0.026941  -0.023972  -0.056139  -0.109293
     10       0.023341   0.051730  -0.017544   0.007568   0.018545   0.083904
     11      -0.031433  -0.038609   0.009311  -0.139917  -0.097915   0.059099
     12      -0.024226   0.046078  -0.008284  -0.036313  -0.047986  -0.015721
     13       0.026860   0.054090  -0.041693  -0.016679   0.028541   0.158816
     14      -0.118397   0.069945   0.008322  -0.106126  -0.107243   0.043294
     15      -0.033833   0.116807  -0.050529  -0.024591  -0.004746   0.092553
     16       0.024982   0.014907  -0.023167  -0.035867  -0.000645   0.122644
     17      -0.054898   0.145121   0.008998   0.021876  -0.014686  -0.017040
     18      -0.000959   0.167140  -0.089940   0.015905   0.066938   0.174268
     19       0.019387  -0.055154   0.034640  -0.050796  -0.066813  -0.011390
     20       0.141866   0.164549   0.005898   0.228777   0.170008  -0.087443
     21       0.112893  -0.089486   0.045823  -0.001689  -0.043033  -0.161961
     22       0.014979   0.013018   0.043850   0.037220  -0.021233  -0.067063
     23       0.195218  -0.167158   0.010041  -0.106642  -0.031988   0.050289
     24      -0.056859   0.049893  -0.002231  -0.052033  -0.069977  -0.026650
     25       0.031244   0.085310  -0.076442  -0.025975   0.054295   0.264129
     26      -0.235220   0.103632   0.008617  -0.169825  -0.171946   0.071277
     27       0.043642  -0.076653   0.059381  -0.023434  -0.066583  -0.096319
     28       0.022395   0.073248  -0.032375   0.011361   0.023364   0.077650
     29      -0.092661  -0.057577   0.016431  -0.170875  -0.085619   0.014712
     30       0.069562  -0.074649   0.091659  -0.086536  -0.106041  -0.075100
     31       0.040229   0.040547  -0.039908   0.053324   0.036023   0.180631
     32      -0.081513   0.009835   0.091429  -0.366832  -0.181814  -0.157847
     33       0.036075  -0.100284   0.041299   0.045535  -0.019734  -0.031793
     34      -0.002064   0.109113  -0.023078  -0.029079   0.001912  -0.099224
     35      -0.146940  -0.111754  -0.047938   0.059367   0.076485   0.093725
     36       0.070421  -0.091704   0.032411   0.026654  -0.016593   0.135177
     37      -0.009985   0.094486  -0.022725  -0.022071  -0.003510  -0.140255
     38      -0.173057  -0.032375  -0.017363   0.065742   0.114527  -0.090430
     39      -0.087616  -0.010112   0.139426  -0.013204   0.132955   0.071106
     40      -0.013683  -0.043642  -0.038482   0.018272  -0.031844  -0.108406
     41       0.016858  -0.116275  -0.144432   0.109933  -0.059789  -0.019078
     42      -0.264664   0.067581   0.308910  -0.022654   0.278824   0.032762
     43       0.044896  -0.201885  -0.294706  -0.009074  -0.062323  -0.140791
     44      -0.023238  -0.144601  -0.175469   0.096350  -0.020275  -0.043880
     45      -0.065234  -0.034484   0.217750   0.028332   0.092781   0.139032
     46      -0.064148   0.009227   0.160498   0.059946  -0.013583  -0.048335
     47       0.176114  -0.285963  -0.372026   0.121957  -0.191949   0.021192
     48       0.252180  -0.174140  -0.100507   0.069034  -0.177424   0.258998
     49      -0.092665   0.195349   0.054824  -0.031615   0.078180  -0.343170
     50      -0.140612  -0.022089  -0.033589   0.075565   0.088280  -0.125051
     51       0.048023  -0.058091   0.053226   0.000802   0.019361   0.193999
     52       0.052270   0.062193  -0.070934  -0.025010  -0.044324   0.027897
     53      -0.347671   0.110905   0.127614   0.009460   0.281859  -0.263839
     54      -0.037368  -0.002075  -0.098270  -0.080781   0.122030  -0.064067
     55      -0.036205  -0.063092   0.037864   0.044643  -0.023107  -0.058894
     56       0.043797   0.073255   0.086300   0.133827  -0.092946   0.015373
     57       0.066567  -0.039177  -0.204650  -0.298613   0.295344  -0.146621
     58      -0.067511   0.083441   0.274620   0.154297  -0.111732   0.013747
     59       0.067817   0.110270   0.130484   0.097392  -0.064473   0.011733
     60      -0.036056   0.012862  -0.201061  -0.060347   0.064663  -0.123998
     61       0.003378  -0.106941  -0.156799  -0.032596   0.003894  -0.156169
     62      -0.040207   0.207442   0.249767   0.353916  -0.296108   0.075381
     63      -0.074568   0.175326  -0.076649  -0.031980   0.005339   0.159172
     64       0.027910   0.014242  -0.042770  -0.055312   0.006286   0.181472
     65      -0.123836   0.236663   0.010578   0.051924  -0.013974  -0.039435
     66       0.094920   0.030311  -0.030097   0.024725   0.035695   0.023887
     67       0.010687  -0.052731   0.079301   0.002880  -0.072523  -0.156243
     68       0.305864  -0.049172   0.003328   0.132767   0.137629  -0.031921
     69      -0.118292   0.034794  -0.070852   0.115890  -0.060816  -0.029847
     70      -0.071435  -0.218210   0.060773   0.031983   0.078773   0.041567
     71       0.143417   0.045714   0.051138  -0.097462   0.113913  -0.038527
     72      -0.114071   0.010668  -0.002993   0.101761  -0.017430   0.034966
     73      -0.096227  -0.199313   0.194931   0.117465   0.027305   0.152286
     74       0.210420  -0.063697  -0.060986  -0.326985   0.348543  -0.106181
     75      -0.090167   0.058813  -0.192723   0.051249  -0.049263  -0.151417
     76      -0.083422  -0.232303   0.102500   0.055836   0.076766   0.086946
     77       0.172357   0.161147   0.160423  -0.077575   0.058035  -0.015053
     78      -0.208533   0.061670   0.002120   0.341990  -0.255088   0.053634
     79      -0.060292  -0.336758  -0.099742  -0.086708   0.210065  -0.038718
     80       0.118663   0.020709   0.028546  -0.060957   0.090702  -0.035298
                 12         13         14         15         16         17    
      0       0.036900   0.005570   0.008489  -0.077165   0.001363   0.017296
      1       0.019626  -0.063112  -0.054474  -0.063851   0.009186   0.009418
      2       0.068522   0.057877   0.040813  -0.137142  -0.039442  -0.066757
      3       0.007488  -0.027486  -0.022105  -0.021523  -0.057424   0.006542
      4       0.037458  -0.046329  -0.046276  -0.099718   0.026519  -0.070258
      5      -0.014266  -0.028461  -0.023055   0.023758  -0.162240   0.099282
      6      -0.006418  -0.053615  -0.050199  -0.006849   0.029178  -0.120196
      7       0.046054  -0.026471  -0.026754  -0.105483  -0.047947   0.007616
      8      -0.055816  -0.057811  -0.040833   0.110309   0.212822  -0.005559
      9      -0.001404  -0.038349  -0.038240  -0.036786  -0.041808  -0.119708
     10       0.029193  -0.001725   0.000960  -0.016662   0.017099   0.046025
     11      -0.039139  -0.005028   0.003110   0.016193  -0.019658  -0.020737
     12       0.001112  -0.055570  -0.049422  -0.021578  -0.068311  -0.027838
     13       0.039451   0.005580   0.011475  -0.067343   0.063722   0.049073
     14      -0.053578  -0.052318  -0.040318   0.135589  -0.150412   0.146030
     15       0.024274  -0.017821  -0.011970  -0.033793   0.072323   0.015015
     16       0.023499  -0.019253  -0.010472  -0.058820  -0.031448   0.061129
     17       0.023304   0.000775  -0.005474   0.030343   0.201106  -0.035062
     18       0.062421   0.046129   0.045376  -0.118595  -0.001021   0.041133
     19      -0.000844  -0.089757  -0.077283  -0.025666   0.016106   0.006961
     20       0.153422   0.141805   0.103449  -0.317676  -0.096686  -0.146574
     21      -0.009893  -0.085739  -0.081093  -0.021560   0.096143  -0.179278
     22       0.056588  -0.035721  -0.039246  -0.146571  -0.119133  -0.017218
     23      -0.085189  -0.086126  -0.060410   0.180075   0.469118  -0.044635
     24      -0.005985  -0.065128  -0.058278   0.003285  -0.132561   0.008223
     25       0.050772   0.016448   0.027255  -0.098333   0.137272   0.100529
     26      -0.071217  -0.082630  -0.064698   0.202207  -0.339847   0.310141
     27       0.046399   0.017016   0.014737  -0.084036   0.019476   0.091870
     28      -0.015983  -0.015753  -0.011500   0.065600  -0.010513  -0.046786
     29       0.091388   0.102440   0.079610  -0.163221  -0.049817  -0.097133
     30       0.187748   0.077458   0.063421  -0.123767   0.068729   0.251995
     31      -0.094913  -0.056219  -0.031205   0.046127   0.010342   0.017659
     32       0.502770   0.292891   0.207351  -0.193234  -0.001080   0.070444
     33      -0.036942  -0.020144  -0.007785  -0.087983   0.033004   0.103470
     34       0.028117   0.012096  -0.003933   0.112553  -0.041112  -0.113168
     35      -0.190169  -0.037240  -0.022096  -0.167169  -0.048103  -0.188892
     36       0.006576   0.042109   0.045476   0.054064  -0.000073  -0.006827
     37      -0.031158   0.010464   0.000224   0.079501  -0.031826  -0.082578
     38       0.081906  -0.045433  -0.058550  -0.051428   0.037963   0.104078
     39      -0.008427   0.008004   0.029027   0.045114   0.010883   0.023537
     40      -0.161861   0.061312   0.058982  -0.038942   0.031652   0.088501
     41       0.114390   0.009311  -0.028918   0.034789   0.018365   0.054520
     42      -0.033069  -0.061520   0.027239  -0.022152   0.038158   0.094127
     43      -0.127578   0.137028   0.003187  -0.063425   0.053935   0.151887
     44       0.115890   0.012874  -0.048318   0.002036   0.035529   0.101012
     45      -0.023224   0.004823   0.072359   0.023236   0.028603   0.070500
     46      -0.183153   0.011958   0.110222  -0.063778   0.045375   0.123012
     47       0.127381   0.103955  -0.034893   0.037664   0.030813   0.090509
     48       0.023323   0.097024   0.077210   0.149818  -0.046421  -0.149466
     49       0.150648  -0.059740  -0.072355   0.101996   0.051659   0.198096
     50       0.156736  -0.052245  -0.074375  -0.008819   0.052724   0.159428
     51       0.017682   0.048387   0.052038   0.101570  -0.031572  -0.107322
     52      -0.079814   0.054754   0.039348   0.141164  -0.100246  -0.307551
     53       0.204352  -0.117168  -0.119107  -0.057450   0.092740   0.290235
     54      -0.046829   0.075671   0.002069   0.102664  -0.001734   0.000749
     55      -0.138329   0.047126   0.072289  -0.039529   0.042330   0.115698
     56       0.002341  -0.009423   0.064808   0.104646  -0.014360  -0.034390
     57      -0.103061   0.131257  -0.036347   0.076299   0.009485   0.036157
     58      -0.226726   0.023288   0.142840  -0.037554   0.033458   0.084979
     59      -0.047442   0.001917   0.075238   0.094300  -0.012723  -0.030556
     60      -0.085880   0.088168   0.014173   0.081165   0.008937   0.032819
     61      -0.154340   0.081158   0.047980  -0.056536   0.053891   0.153503
     62      -0.058901  -0.050598   0.145193   0.093011  -0.015149  -0.042586
     63       0.031283   0.005053   0.010614  -0.002956   0.159811   0.053668
     64       0.011684  -0.007525   0.004812  -0.039539  -0.075721   0.108782
     65       0.059565   0.010648  -0.003536   0.035676   0.430844  -0.075389
     66       0.006484  -0.030299  -0.023559  -0.017704  -0.115018   0.052125
     67       0.035388  -0.050443  -0.055945  -0.099900   0.048491  -0.173701
     68      -0.019406  -0.040329  -0.033110   0.039068  -0.358883   0.207829
     69      -0.019576   0.039671   0.051076   0.135787  -0.007140  -0.013695
     70       0.118591   0.026397   0.004617   0.178643  -0.022361  -0.054359
     71      -0.063724   0.045190   0.024185   0.069070  -0.002832  -0.001489
     72       0.014962   0.236014  -0.181478   0.214457  -0.030762  -0.073670
     73       0.119410   0.369772  -0.378783   0.254274  -0.043572  -0.107267
     74       0.030184  -0.178127   0.236848   0.118718  -0.021060  -0.049935
     75      -0.091638  -0.258545   0.406320  -0.004109   0.034158   0.092008
     76       0.155663   0.123978  -0.115580   0.238920  -0.040401  -0.100793
     77      -0.282156   0.419081  -0.333292  -0.082680   0.045250   0.126650
     78       0.044398   0.104040  -0.028858   0.217554  -0.029733  -0.073001
     79       0.295185  -0.427751   0.460466   0.270001  -0.053201  -0.137641
     80       0.005724  -0.062452   0.127451   0.119772  -0.018436  -0.043102
                 18         19         20         21         22         23    
      0      -0.060946  -0.014435  -0.063702  -0.133830   0.096898  -0.046596
      1      -0.084781   0.144582  -0.026567   0.029216   0.220467   0.029441
      2      -0.043238  -0.094350  -0.166718   0.043728   0.001919  -0.143369
      3       0.019679   0.026081   0.056455  -0.307296  -0.196962   0.065065
      4      -0.057792   0.072286  -0.067664  -0.156840   0.002323  -0.041960
      5       0.012232   0.113319   0.107294   0.061732   0.081145   0.178235
      6       0.043302   0.058044  -0.021484   0.098832  -0.226627  -0.039150
      7      -0.052926   0.040651  -0.001954  -0.299888   0.009904   0.037483
      8      -0.018151  -0.011368  -0.041106  -0.105092   0.052762  -0.149395
      9       0.022588  -0.011017  -0.081564   0.115038  -0.129916   0.074377
     10       0.048767  -0.045019   0.113620  -0.024634  -0.216026  -0.048131
     11      -0.055200  -0.222232  -0.222905  -0.040867  -0.010253   0.226932
     12      -0.029658   0.126705  -0.071676   0.272462   0.086954  -0.048539
     13      -0.038231  -0.045542   0.026156   0.152628  -0.044747   0.035680
     14       0.021069  -0.029092  -0.008052  -0.052172  -0.058276  -0.144863
     15      -0.049224   0.063987   0.009535  -0.119699   0.142674   0.052578
     16      -0.048676  -0.020392  -0.028933   0.325681  -0.037616  -0.044256
     17       0.028508   0.063085   0.121163   0.120368  -0.034031   0.179795
     18      -0.077524  -0.068038  -0.073897   0.222240   0.145683  -0.149890
     19      -0.072219   0.172888  -0.014693  -0.112750   0.188613   0.108653
     20      -0.073514  -0.159286  -0.217596  -0.103288  -0.020109  -0.455548
     21       0.014546   0.196490  -0.013368   0.203148  -0.088109  -0.147383
     22      -0.087084   0.086029  -0.091304  -0.202312   0.105993   0.113839
     23       0.017913   0.097956   0.166866  -0.114993   0.051964  -0.481091
     24      -0.005317   0.172378   0.000988   0.276635   0.064726  -0.150718
     25      -0.130446  -0.073092  -0.048002  -0.020869   0.202106   0.105766
     26       0.044800   0.134055   0.205126  -0.095716   0.024271  -0.476227
     27      -0.015099  -0.175355   0.138675   0.029485   0.083067  -0.012699
     28       0.116047  -0.055051   0.007486   0.006363  -0.223935   0.007858
     29       0.025014   0.075666   0.107387  -0.005136  -0.049990  -0.006169
     30      -0.025813  -0.123315   0.197120   0.033525  -0.052266  -0.040453
     31       0.043554  -0.181373   0.010020   0.013508  -0.302542   0.033659
     32       0.149681   0.405233   0.213777  -0.017857  -0.090940  -0.109181
     33      -0.031172  -0.212242   0.143388   0.042524   0.041850  -0.014194
     34       0.158910  -0.073914   0.022083  -0.016240   0.141407  -0.005979
     35       0.004590  -0.028196   0.133541  -0.008197   0.045513  -0.025119
     36       0.189925   0.012451  -0.045133  -0.005656   0.079618  -0.000138
     37       0.057671  -0.148186   0.091786  -0.002504   0.193782  -0.012350
     38       0.083568   0.002155  -0.057652  -0.003614  -0.007653   0.002664
     39       0.135629   0.036292  -0.080476  -0.010264   0.055419   0.008260
     40      -0.014431   0.052797  -0.027977   0.000949  -0.020672  -0.001448
     41       0.104345   0.005973  -0.068246  -0.005439   0.033399   0.009720
     42       0.157344   0.059190  -0.135756  -0.017271   0.043999   0.012685
     43       0.053306   0.109710  -0.096346  -0.002457  -0.051752   0.008062
     44       0.132447   0.035143  -0.109418  -0.008737   0.015765   0.014051
     45       0.205068   0.101343  -0.153612  -0.013231   0.021040   0.018356
     46       0.042056   0.090332  -0.085362  -0.003362  -0.030861   0.005796
     47       0.162777   0.081178  -0.127248  -0.004705  -0.020062   0.020037
     48       0.327990   0.058176  -0.074936  -0.035953   0.255633  -0.008509
     49      -0.002794  -0.289324   0.006380   0.041550   0.030737   0.037323
     50       0.106263  -0.039108  -0.097250   0.002887  -0.005501   0.018904
     51       0.291340   0.065757  -0.081508  -0.029838   0.153519  -0.001259
     52       0.219585  -0.027141   0.066876  -0.048710   0.347956  -0.030638
     53       0.030846  -0.090903  -0.107700   0.025190  -0.144548   0.037117
     54      -0.095057   0.027315  -0.005066   0.000001  -0.013500   0.000799
     55       0.052857   0.093531  -0.095257  -0.006029  -0.026322   0.009980
     56      -0.094223   0.003240   0.019103   0.001969  -0.010382  -0.001296
     57      -0.127291   0.041356  -0.010962   0.003285  -0.046956   0.002801
     58       0.025050   0.118973  -0.086161  -0.008175  -0.032045   0.005933
     59      -0.110966   0.018176   0.017622   0.002033  -0.023459  -0.001695
     60      -0.133710   0.042759  -0.007146   0.002553  -0.046142   0.000954
     61       0.003894   0.097295  -0.091563  -0.001409  -0.062630   0.010619
     62      -0.096437   0.029018   0.014448  -0.001011  -0.012823  -0.003668
     63      -0.009625   0.020071   0.145963  -0.224775  -0.005258  -0.006333
     64      -0.038879  -0.134296  -0.053422   0.227366  -0.159191   0.008452
     65       0.065167   0.239932   0.382320   0.133505   0.011684  -0.023635
     66       0.028309   0.082349   0.138955  -0.310259  -0.162284  -0.000119
     67      -0.008338   0.032174  -0.119313   0.018468  -0.262785   0.014170
     68       0.074963   0.288119   0.383485   0.106328   0.034977  -0.026587
     69      -0.141803   0.034681   0.001682   0.001555  -0.039588   0.001642
     70      -0.116787   0.003097   0.017141   0.000987  -0.014276   0.000608
     71      -0.092695   0.030176  -0.003357   0.000641  -0.030120   0.001332
     72      -0.240412  -0.000957   0.057434   0.006070  -0.046161  -0.005008
     73      -0.219105  -0.033320   0.072720   0.005974  -0.024502  -0.005753
     74      -0.139431   0.012962   0.027586   0.002053  -0.026908  -0.003015
     75       0.028574   0.096653  -0.095140  -0.006585  -0.025982   0.012611
     76      -0.189161  -0.023278   0.058910   0.004525  -0.020131  -0.004164
     77       0.057316   0.082067  -0.095966  -0.007340  -0.015320   0.011410
     78      -0.230723   0.003682   0.052695   0.007015  -0.054645  -0.002990
     79      -0.199886  -0.023696   0.071004   0.005364  -0.021760  -0.005789
     80      -0.142791   0.013063   0.027381   0.003512  -0.036333  -0.001901
                 24         25         26         27         28         29    
      0       0.020915   0.003675   0.014931   0.036378   0.005528   0.021581
      1      -0.014160   0.007039   0.037041   0.103413  -0.001553  -0.018659
      2       0.064194   0.002726   0.007939   0.009440   0.014482   0.073077
      3       0.006485  -0.008773  -0.050922  -0.150044  -0.019730   0.014700
      4      -0.008025  -0.001074  -0.007847  -0.028722   0.012697  -0.009300
      5       0.029910   0.003518   0.015065   0.040410  -0.053383   0.041291
      6       0.018743  -0.004239  -0.015586  -0.024497  -0.026498  -0.012824
      7      -0.016591  -0.002353  -0.014920  -0.051006   0.018844   0.011436
      8       0.067254   0.003567   0.004024  -0.001104  -0.083254  -0.047493
      9      -0.033492  -0.002525  -0.000810   0.024203  -0.002153  -0.008848
     10       0.024656  -0.001956   0.006107   0.054184   0.003553   0.006379
     11      -0.105154  -0.004842  -0.008590   0.016715  -0.009505  -0.027112
     12       0.019069   0.004422   0.017897   0.025484   0.021973  -0.015008
     13      -0.015014  -0.006788  -0.033852  -0.080989  -0.017806   0.012346
     14       0.062130  -0.001264  -0.012162  -0.031751   0.068335  -0.053354
     15       0.008497   0.005950   0.031638   0.086967   0.021411  -0.003358
     16      -0.006156  -0.009062  -0.053692  -0.149857  -0.018245   0.001758
     17       0.023899  -0.004014  -0.022321  -0.067320   0.062974  -0.009160
     18      -0.147417  -0.002803  -0.003523   0.019971  -0.027805  -0.133154
     19       0.117556   0.010676   0.042903   0.093484   0.023940   0.101385
     20      -0.477528  -0.011713  -0.012400   0.046841  -0.088345  -0.412747
     21      -0.110132  -0.003433  -0.002892  -0.005642   0.169356   0.100755
     22       0.082292   0.003007   0.000811  -0.015286  -0.129583  -0.072661
     23      -0.344620  -0.006113  -0.004348  -0.026503   0.539208   0.309339
     24      -0.091817   0.001589   0.018109   0.041756  -0.136244   0.115974
     25       0.069565  -0.000918  -0.028423  -0.104081   0.099157  -0.085744
     26      -0.292228  -0.008907  -0.015660  -0.014710  -0.439832   0.366327
     27       0.005193  -0.004611  -0.015916  -0.007051   0.005462   0.026424
     28       0.000233   0.011077   0.080648   0.243247  -0.000016  -0.022740
     29      -0.007013   0.005193   0.033007   0.045106   0.023137   0.115295
     30       0.068242  -0.007403   0.004150   0.166724  -0.026196  -0.176510
     31      -0.043887   0.011765   0.118790   0.360970   0.025917   0.127007
     32       0.195349  -0.000718  -0.017055   0.080148  -0.086941  -0.549127
     33       0.011456   0.000378   0.008990   0.052567  -0.002056  -0.016124
     34       0.001783   0.002757  -0.010642  -0.033595  -0.000373  -0.002296
     35       0.022569   0.011908   0.015269  -0.027119  -0.009109  -0.044369
     36      -0.001375   0.018113   0.052552  -0.025210  -0.001556  -0.008012
     37       0.004035   0.002443  -0.005237  -0.048119  -0.001089   0.004110
     38       0.003643  -0.018015  -0.052174   0.033479  -0.001422  -0.019387
     39      -0.009613   0.034472   0.016855  -0.068309  -0.000008   0.007646
     40       0.004507  -0.009309  -0.000658   0.022235  -0.002005  -0.021932
     41      -0.008632  -0.042808  -0.031835   0.020745   0.003960   0.028164
     42       0.000248  -0.280846  -0.262826   0.211167   0.010232   0.036557
     43      -0.012163   0.379950   0.018685  -0.133093  -0.007705  -0.052204
     44      -0.010715  -0.004491  -0.114545   0.055072   0.004848   0.023632
     45      -0.018757  -0.046358   0.135277  -0.107482   0.000517   0.021888
     46       0.003306  -0.283884   0.017589   0.103823   0.003003   0.011234
     47      -0.030777   0.370015   0.229615  -0.277299  -0.005743  -0.006221
     48       0.014891  -0.219487  -0.323926   0.157708   0.005712   0.008820
     49      -0.053385   0.114432   0.227187  -0.024907   0.012227   0.096782
     50      -0.013678  -0.052883  -0.083702   0.098212   0.006325   0.025015
     51      -0.002437   0.060038   0.084679  -0.144887  -0.005976  -0.022375
     52       0.025881  -0.064522  -0.155159  -0.098390  -0.006638  -0.033962
     53      -0.043116   0.227607   0.345398  -0.166382  -0.001529   0.018338
     54      -0.000331   0.031949  -0.045571   0.026649   0.000879   0.002040
     55      -0.007674  -0.014567   0.005694  -0.013758   0.002129   0.018536
     56       0.001142  -0.036839   0.054358  -0.033438  -0.001716  -0.008220
     57       0.001001  -0.237518   0.282828  -0.207286  -0.008524  -0.046438
     58      -0.007371   0.345862  -0.220733   0.066404   0.001707  -0.005931
     59       0.001317   0.003241   0.077138  -0.078504  -0.004666  -0.030850
     60       0.003060  -0.054701  -0.063014   0.119057   0.003254   0.008328
     61      -0.003163  -0.269423   0.142644  -0.013180   0.001654   0.015713
     62       0.001180   0.328302  -0.320067   0.223298   0.005616   0.011813
     63      -0.129579  -0.007071  -0.023963  -0.035515  -0.144088   0.000071
     64       0.100200  -0.013270  -0.088499  -0.253920   0.107528  -0.002863
     65      -0.415429  -0.014130  -0.028240  -0.017147  -0.459834   0.005752
     66      -0.137912  -0.011132  -0.049816  -0.135482   0.112358  -0.096818
     67       0.100135  -0.007624  -0.045969  -0.129375  -0.091889   0.077807
     68      -0.434925  -0.010044  -0.010368   0.011540   0.367904  -0.315239
     69      -0.000995   0.001085  -0.017407   0.022790   0.001544   0.011299
     70      -0.001023  -0.001600   0.001446  -0.007801   0.000963   0.010770
     71      -0.000753  -0.003293   0.014535  -0.014996  -0.000326  -0.000842
     72       0.006208   0.063090  -0.130716   0.151376   0.002319  -0.004801
     73       0.006047   0.004018  -0.019167   0.040961  -0.001511  -0.021522
     74       0.003728   0.165238  -0.271354   0.252966   0.007880   0.027572
     75      -0.012950  -0.038143   0.058837  -0.093813   0.003913   0.055439
     76       0.004207   0.011543  -0.021728   0.033828  -0.000516  -0.011296
     77      -0.011105   0.037506  -0.110109   0.064285   0.009298   0.077231
     78       0.003776  -0.168588   0.298903  -0.240894  -0.011894  -0.068358
     79       0.005570   0.031647  -0.016566   0.029277  -0.001963  -0.024896
     80       0.002523  -0.043629   0.101515  -0.080964  -0.005026  -0.033624
                 30         31         32         33         34         35    
      0      -0.019359   0.015072  -0.024675  -0.010302   0.007766  -0.104758
      1       0.013955  -0.013090   0.018091  -0.019411   0.016853  -0.213328
      2      -0.059848   0.050754  -0.077489  -0.002653   0.001425  -0.019079
      3      -0.003592  -0.030999   0.010159   0.025603  -0.018956   0.073015
      4       0.005908   0.025344  -0.007614   0.005565  -0.002596  -0.016891
      5      -0.020523  -0.103543   0.032041  -0.006813   0.003011  -0.026383
      6       0.023968   0.019228   0.004638  -0.007502   0.012124  -0.224569
      7      -0.017381  -0.014876  -0.003136   0.014610  -0.015241   0.217273
      8       0.073984   0.061525   0.014653   0.009770  -0.002007   0.121783
      9      -0.020751   0.003508  -0.006823  -0.011760   0.005046  -0.034441
     10       0.013458  -0.003672   0.004626  -0.019537   0.018014  -0.050081
     11      -0.062433   0.012691  -0.020960  -0.007912  -0.005181   0.000090
     12       0.018454  -0.024531  -0.012698   0.020797  -0.018880   0.347840
     13      -0.013271   0.020142   0.010295   0.003478  -0.002176  -0.020741
     14       0.053080  -0.082283  -0.042379  -0.004928   0.003226  -0.112645
     15      -0.000248   0.017505   0.029157  -0.013134   0.011094  -0.052938
     16       0.000134  -0.013782  -0.023010   0.017048  -0.013929   0.025558
     17       0.002113   0.057934   0.093425   0.008625  -0.003507   0.022373
     18       0.091722  -0.102659   0.160541  -0.014139   0.008240  -0.120646
     19      -0.073261   0.078153  -0.126552  -0.015885   0.015300  -0.197073
     20       0.300726  -0.315567   0.511981   0.001546  -0.002445  -0.010783
     21      -0.140554  -0.112891   0.013157  -0.016822   0.004753  -0.310496
     22       0.110381   0.084765  -0.008851   0.015715  -0.001826   0.133710
     23      -0.455158  -0.357244   0.040124  -0.012910  -0.037384   0.131902
     24      -0.114398   0.129184   0.107830   0.015183  -0.015020   0.349849
     25       0.084200  -0.092875  -0.077335   0.010996  -0.006796  -0.153431
     26      -0.373052   0.411522   0.345232  -0.013429   0.008863  -0.147506
     27       0.031084  -0.000729   0.001176  -0.021435   0.026159  -0.015751
     28      -0.027527  -0.000591  -0.000939  -0.018632   0.001871   0.102210
     29       0.129096   0.001073   0.005015   0.025813   0.036287   0.027534
     30      -0.180529  -0.005927  -0.008203  -0.074373  -0.033511   0.129246
     31       0.130286   0.004312   0.005985  -0.004085   0.069241   0.227712
     32      -0.565548  -0.017761  -0.025682  -0.100642  -0.207238   0.017803
     33      -0.015504  -0.000627  -0.000551  -0.017986  -0.001964   0.028173
     34      -0.001893  -0.001226  -0.000084  -0.029334   0.017899  -0.026410
     35      -0.041974  -0.000712  -0.001433  -0.011506  -0.039599  -0.012246
     36      -0.008116  -0.000057  -0.000007   0.075365  -0.039164  -0.003652
     37       0.006310   0.001698   0.000515   0.023617  -0.031975   0.011967
     38      -0.023469  -0.003176  -0.001274  -0.006478   0.072459   0.019843
     39       0.007131   0.000148   0.000013  -0.002576   0.031922  -0.011180
     40      -0.028180  -0.003034  -0.001169   0.137048   0.055107  -0.007844
     41       0.028984   0.003319   0.001225   0.011230  -0.049183  -0.011411
     42       0.024886   0.000280  -0.000305   0.018072   0.150362   0.066597
     43      -0.065185  -0.010671  -0.004157  -0.033767   0.369904   0.073821
     44       0.017959   0.000220  -0.000095  -0.040717   0.110311   0.043991
     45       0.022967   0.003973   0.002010   0.170310  -0.141386  -0.130976
     46       0.005856   0.003268   0.001665   0.326916  -0.162075  -0.113693
     47      -0.002371  -0.000744   0.000039  -0.001892  -0.001935  -0.077793
[...]
     57      -0.046865   0.046774   0.071319  -0.000537   0.000218  -0.000062
     58      -0.034016   0.045840   0.054325  -0.001672   0.000174  -0.000060
     59       0.123914  -0.133518  -0.186236   0.005166  -0.000603   0.000205
     60       0.119973   0.077893  -0.145365   0.005728  -0.000274   0.000090
     61      -0.095719  -0.069607   0.118497  -0.004041   0.000248  -0.000058
     62      -0.053709  -0.030649   0.068306  -0.001036   0.000147  -0.000031
     63       0.000032   0.000055  -0.000112   0.000053  -0.013489  -0.370786
     64      -0.000039  -0.000096   0.000164  -0.000095   0.017354   0.512741
     65      -0.000005  -0.000009   0.000058  -0.000034   0.008435   0.240577
     66       0.000266   0.000042   0.000118  -0.000120   0.360534   0.230747
     67       0.000075   0.000033  -0.000002  -0.000036   0.056434   0.034978
     68      -0.000079  -0.000029  -0.000026   0.000033  -0.098883  -0.063438
     69       0.005320  -0.055375   0.003447   0.033620  -0.000050   0.000008
     70      -0.025781   0.014268  -0.076134   0.025299   0.000005   0.000005
     71       0.003251   0.064248   0.020714   0.023623  -0.000011   0.000003
     72      -0.174256   0.489838  -0.406713  -0.313071   0.000502  -0.000086
     73       0.134085  -0.422983   0.295878   0.281780  -0.000423   0.000079
     74       0.070759  -0.167693   0.168721   0.134555  -0.000195   0.000036
     75       0.065486  -0.016365   0.211901  -0.255495   0.000183  -0.000073
     76       0.157812   0.046054   0.538234  -0.722303   0.000517  -0.000189
     77       0.006364   0.036375   0.026460  -0.012060   0.000014  -0.000007
     78       0.042307   0.197362   0.152687   0.153377  -0.000113   0.000031
     79       0.021321   0.204004   0.089806   0.134452  -0.000097   0.000027
     80      -0.118309  -0.646249  -0.446071  -0.415365   0.000321  -0.000069
                  78         79         80    
      0      -0.011265  -0.022176   0.005382
      1      -0.025452  -0.051050   0.010285
      2      -0.002701  -0.005544   0.000832
      3       0.050561  -0.050350   0.005954
      4       0.008260  -0.007468   0.000736
      5      -0.013781   0.013921  -0.001685
      6       0.013618  -0.009507   0.002443
      7      -0.018074   0.014477  -0.002378
      8      -0.008613   0.006462  -0.001343
      9      -0.001355  -0.000006  -0.001253
     10      -0.000678   0.000023  -0.002145
     11       0.000261   0.000011  -0.000128
     12      -0.010553  -0.017356  -0.075263
     13      -0.001374  -0.002613  -0.012944
     14       0.002972   0.004803   0.020458
     15       0.026941   0.015609  -0.013088
     16      -0.038419  -0.020760   0.018305
     17      -0.017755  -0.009918   0.008551
     18       0.137609   0.261120  -0.053521
     19       0.310362   0.588831  -0.117605
     20       0.032877   0.062347  -0.012026
     21      -0.151385   0.111408  -0.023302
     22       0.207963  -0.156484   0.030403
     23       0.097262  -0.072392   0.014576
     24       0.145803   0.220971   0.905680
     25       0.023583   0.036386   0.150381
     26      -0.040001  -0.060486  -0.247675
     27       0.000045  -0.000148  -0.000412
     28      -0.000067   0.000481  -0.000094
     29      -0.000030   0.000155   0.000107
     30       0.000209   0.002829  -0.000191
     31       0.000384  -0.004194   0.000500
     32       0.000104  -0.001873   0.000198
     33       0.000051  -0.000052   0.000332
     34       0.000052  -0.000024   0.000009
     35      -0.000001   0.000010  -0.000092
     36       0.000017  -0.000097   0.000076
     37      -0.000055   0.000127  -0.000094
     38       0.000010  -0.000101   0.000008
     39      -0.000026   0.000011   0.000002
     40       0.000042  -0.000067   0.000061
     41      -0.000017   0.000011  -0.000100
     42      -0.000102   0.000144  -0.000573
     43      -0.000108   0.000223  -0.000361
     44       0.000397  -0.000305   0.001527
     45       0.000417  -0.000166   0.000502
     46      -0.000402   0.000311  -0.000392
     47      -0.000199   0.000128  -0.000363
     48       0.000159  -0.000729   0.000188
     49       0.000157  -0.000859   0.000230
     50      -0.000399   0.001989  -0.000622
     51      -0.000343   0.001734  -0.000801
     52       0.000285  -0.001526   0.000311
     53       0.000186  -0.000857   0.000256
     54       0.000004  -0.000011   0.000054
     55      -0.000019   0.000007  -0.000079
     56       0.000014  -0.000028   0.000004
     57       0.000098  -0.000053   0.000142
     58       0.000061  -0.000043   0.000082
     59      -0.000246   0.000273  -0.000409
     60      -0.000151   0.000135  -0.000865
     61       0.000152  -0.000037   0.000753
     62       0.000086  -0.000029   0.000348
     63      -0.328493  -0.177861   0.140588
     64       0.456831   0.244944  -0.193546
     65       0.213722   0.115111  -0.090955
     66      -0.614670   0.582454  -0.065663
     67      -0.096342   0.089350  -0.009715
     68       0.168556  -0.160431   0.018187
     69      -0.000020   0.000007   0.000002
     70      -0.000002   0.000003  -0.000019
     71      -0.000006  -0.000015  -0.000035
     72       0.000216   0.000000   0.000039
     73      -0.000187   0.000061  -0.000049
     74      -0.000083   0.000018  -0.000051
     75       0.000097  -0.000057   0.000146
     76       0.000246  -0.000203   0.000399
     77       0.000006   0.000005   0.000016
     78      -0.000044   0.000003  -0.000175
     79      -0.000052   0.000012  -0.000127
     80       0.000150   0.000109   0.000493


-----------
IR SPECTRUM  
-----------

 Mode    freq (cm**-1)   T**2         TX         TY         TZ
-------------------------------------------------------------------
   6:        48.82    0.000000  (  0.000000   0.000000   0.000000)
   7:        64.46    0.000000  (  0.000000   0.000000   0.000000)
   8:        74.02    0.000000  (  0.000000   0.000000   0.000000)
   9:       103.64    0.000000  (  0.000000   0.000000   0.000000)
  10:       115.82    0.000000  (  0.000000   0.000000   0.000000)
  11:       153.84    0.000000  (  0.000000   0.000000   0.000000)
  12:       213.48    0.000000  (  0.000000   0.000000   0.000000)
  13:       264.43    0.000000  (  0.000000   0.000000   0.000000)
  14:       270.72    0.000000  (  0.000000   0.000000   0.000000)
  15:       281.63    0.000000  (  0.000000   0.000000   0.000000)
  16:       373.51    0.000000  (  0.000000   0.000000   0.000000)
  17:       376.66    0.000000  (  0.000000   0.000000   0.000000)
  18:       425.63    0.000000  (  0.000000   0.000000   0.000000)
  19:       462.62    0.000000  (  0.000000   0.000000   0.000000)
  20:       508.97    0.000000  (  0.000000   0.000000   0.000000)
  21:       588.23    0.000000  (  0.000000   0.000000   0.000000)
  22:       623.97    0.000000  (  0.000000   0.000000   0.000000)
  23:       663.85    0.000000  (  0.000000   0.000000   0.000000)
  24:       753.35    0.000000  (  0.000000   0.000000   0.000000)
  25:       771.73    0.000000  (  0.000000   0.000000   0.000000)
  26:       820.77    0.000000  (  0.000000   0.000000   0.000000)
  27:       857.48    0.000000  (  0.000000   0.000000   0.000000)
  28:       873.93    0.000000  (  0.000000   0.000000   0.000000)
  29:       899.61    0.000000  (  0.000000   0.000000   0.000000)
  30:       913.01    0.000000  (  0.000000   0.000000   0.000000)
  31:       927.90    0.000000  (  0.000000   0.000000   0.000000)
  32:       932.98    0.000000  (  0.000000   0.000000   0.000000)
  33:       943.61    0.000000  (  0.000000   0.000000   0.000000)
  34:       951.69    0.000000  (  0.000000   0.000000   0.000000)
  35:       984.19    0.000000  (  0.000000   0.000000   0.000000)
  36:      1018.93    0.000000  (  0.000000   0.000000   0.000000)
  37:      1067.13    0.000000  (  0.000000   0.000000   0.000000)
  38:      1071.59    0.000000  (  0.000000   0.000000   0.000000)
  39:      1100.21    0.000000  (  0.000000   0.000000   0.000000)
  40:      1111.36    0.000000  (  0.000000   0.000000   0.000000)
  41:      1125.44    0.000000  (  0.000000   0.000000   0.000000)
  42:      1143.11    0.000000  (  0.000000   0.000000   0.000000)
  43:      1177.34    0.000000  (  0.000000   0.000000   0.000000)
  44:      1185.17    0.000000  (  0.000000   0.000000   0.000000)
  45:      1211.06    0.000000  (  0.000000   0.000000   0.000000)
  46:      1218.71    0.000000  (  0.000000   0.000000   0.000000)
  47:      1252.07    0.000000  (  0.000000   0.000000   0.000000)
  48:      1267.54    0.000000  (  0.000000   0.000000   0.000000)
  49:      1275.84    0.000000  (  0.000000   0.000000   0.000000)
  50:      1277.30    0.000000  (  0.000000   0.000000   0.000000)
  51:      1292.34    0.000000  (  0.000000   0.000000   0.000000)
  52:      1325.50    0.000000  (  0.000000   0.000000   0.000000)
  53:      1354.78    0.000000  (  0.000000   0.000000   0.000000)
  54:      1368.37    0.000000  (  0.000000   0.000000   0.000000)
  55:      1423.13    0.000000  (  0.000000   0.000000   0.000000)
  56:      1427.91    0.000000  (  0.000000   0.000000   0.000000)
  57:      1454.93    0.000000  (  0.000000   0.000000   0.000000)
  58:      1468.69    0.000000  (  0.000000   0.000000   0.000000)
  59:      1501.07    0.000000  (  0.000000   0.000000   0.000000)
  60:      1505.82    0.000000  (  0.000000   0.000000   0.000000)
  61:      1507.70    0.000000  (  0.000000   0.000000   0.000000)
  62:      1512.14    0.000000  (  0.000000   0.000000   0.000000)
  63:      1561.23    0.000000  (  0.000000   0.000000   0.000000)
  64:      1567.31    0.000000  (  0.000000   0.000000   0.000000)
  65:      1668.24    0.000000  (  0.000000   0.000000   0.000000)
  66:      2849.35    0.000000  (  0.000000   0.000000   0.000000)
  67:      2867.80    0.000000  (  0.000000   0.000000   0.000000)
  68:      2939.34    0.000000  (  0.000000   0.000000   0.000000)
  69:      2942.19    0.000000  (  0.000000   0.000000   0.000000)
  70:      2954.74    0.000000  (  0.000000   0.000000   0.000000)
  71:      2966.62    0.000000  (  0.000000   0.000000   0.000000)
  72:      2973.99    0.000000  (  0.000000   0.000000   0.000000)
  73:      2980.75    0.000000  (  0.000000   0.000000   0.000000)
  74:      2986.37    0.000000  (  0.000000   0.000000   0.000000)
  75:      2998.22    0.000000  (  0.000000   0.000000   0.000000)
  76:      3048.43    0.000000  (  0.000000   0.000000   0.000000)
  77:      3055.58    0.000000  (  0.000000   0.000000   0.000000)
  78:      3061.34    0.000000  (  0.000000   0.000000   0.000000)
  79:      3071.07    0.000000  (  0.000000   0.000000   0.000000)
  80:      3083.00    0.000000  (  0.000000   0.000000   0.000000)

The first frequency considered to be a vibration is 6
The total number of vibrations considered is 75


--------------------------
THERMOCHEMISTRY AT 298.15K
--------------------------

Temperature         ... 298.15 K
Pressure            ... 1.00 atm
Total Mass          ... 161.25 AMU

Throughout the following assumptions are being made:
  (1) The electronic state is orbitally nondegenerate
  (2) There are no thermally accessible electronically excited states
  (3) Hindered rotations indicated by low frequency modes are not
      treated as such but are treated as vibrations and this may
      cause some error
  (4) All equations used are the standard statistical mechanics
      equations for an ideal gas
  (5) All vibrations are strictly harmonic

freq.      48.82  E(vib)   ...       0.53 
freq.      64.46  E(vib)   ...       0.51 
freq.      74.02  E(vib)   ...       0.49 
freq.     103.64  E(vib)   ...       0.46 
freq.     115.82  E(vib)   ...       0.44 
freq.     153.84  E(vib)   ...       0.40 
freq.     213.48  E(vib)   ...       0.34 
freq.     264.43  E(vib)   ...       0.29 
freq.     270.72  E(vib)   ...       0.29 
freq.     281.63  E(vib)   ...       0.28 
freq.     373.51  E(vib)   ...       0.21 
freq.     376.66  E(vib)   ...       0.21 
freq.     425.63  E(vib)   ...       0.18 
freq.     462.62  E(vib)   ...       0.16 
freq.     508.97  E(vib)   ...       0.14 
freq.     588.23  E(vib)   ...       0.10 
freq.     623.97  E(vib)   ...       0.09 
freq.     663.85  E(vib)   ...       0.08 
freq.     753.35  E(vib)   ...       0.06 
freq.     771.73  E(vib)   ...       0.05 
freq.     820.77  E(vib)   ...       0.05 
freq.     857.48  E(vib)   ...       0.04 
freq.     873.93  E(vib)   ...       0.04 
freq.     899.61  E(vib)   ...       0.03 
freq.     913.01  E(vib)   ...       0.03 
freq.     927.90  E(vib)   ...       0.03 
freq.     932.98  E(vib)   ...       0.03 
freq.     943.61  E(vib)   ...       0.03 
freq.     951.69  E(vib)   ...       0.03 
freq.     984.19  E(vib)   ...       0.02 
freq.    1018.93  E(vib)   ...       0.02 
freq.    1067.13  E(vib)   ...       0.02 
freq.    1071.59  E(vib)   ...       0.02 
freq.    1100.21  E(vib)   ...       0.02 
freq.    1111.36  E(vib)   ...       0.01 
freq.    1125.44  E(vib)   ...       0.01 
freq.    1143.11  E(vib)   ...       0.01 
freq.    1177.34  E(vib)   ...       0.01 
freq.    1185.17  E(vib)   ...       0.01 
freq.    1211.06  E(vib)   ...       0.01 
freq.    1218.71  E(vib)   ...       0.01 
freq.    1252.07  E(vib)   ...       0.01 
freq.    1267.54  E(vib)   ...       0.01 
freq.    1275.84  E(vib)   ...       0.01 
freq.    1277.30  E(vib)   ...       0.01 
freq.    1292.34  E(vib)   ...       0.01 
freq.    1325.50  E(vib)   ...       0.01 
freq.    1354.78  E(vib)   ...       0.01 
freq.    1368.37  E(vib)   ...       0.01 
freq.    1423.13  E(vib)   ...       0.00 
freq.    1427.91  E(vib)   ...       0.00 
freq.    1454.93  E(vib)   ...       0.00 
freq.    1468.69  E(vib)   ...       0.00 
freq.    1501.07  E(vib)   ...       0.00 
freq.    1505.82  E(vib)   ...       0.00 
freq.    1507.70  E(vib)   ...       0.00 
freq.    1512.14  E(vib)   ...       0.00 
freq.    1561.23  E(vib)   ...       0.00 
freq.    1567.31  E(vib)   ...       0.00 
freq.    1668.24  E(vib)   ...       0.00 
freq.    2849.35  E(vib)   ...       0.00 
freq.    2867.80  E(vib)   ...       0.00 
freq.    2939.34  E(vib)   ...       0.00 
freq.    2942.19  E(vib)   ...       0.00 
freq.    2954.74  E(vib)   ...       0.00 
freq.    2966.62  E(vib)   ...       0.00 
freq.    2973.99  E(vib)   ...       0.00 
freq.    2980.75  E(vib)   ...       0.00 
freq.    2986.37  E(vib)   ...       0.00 
freq.    2998.22  E(vib)   ...       0.00 
freq.    3048.43  E(vib)   ...       0.00 
freq.    3055.58  E(vib)   ...       0.00 
freq.    3061.34  E(vib)   ...       0.00 
freq.    3071.07  E(vib)   ...       0.00 
freq.    3083.00  E(vib)   ...       0.00 

------------
INNER ENERGY
------------

The inner energy is: U= E(el) + E(ZPE) + E(vib) + E(rot) + E(trans)
    E(el)   - is the total energy from the electronic structure calculation
              = E(kin-el) + E(nuc-el) + E(el-el) + E(nuc-nuc)
    E(ZPE)  - the the zero temperature vibrational energy from the frequency calculation
    E(vib)  - the the finite temperature correction to E(ZPE) due to population
              of excited vibrational states
    E(rot)  - is the rotational thermal energy
    E(trans)- is the translational thermal energy

Summary of contributions to the inner energy U:
Electronic energy                ...    -34.11182251 Eh
Zero point energy                ...      0.22887689 Eh     143.62 kcal/mol
Thermal vibrational correction   ...      0.00937333 Eh       5.88 kcal/mol
Thermal rotational correction    ...      0.00141627 Eh       0.89 kcal/mol
Thermal translational correction ...      0.00141627 Eh       0.89 kcal/mol
-----------------------------------------------------------------------
Total thermal energy                    -33.87073975 Eh


Summary of corrections to the electronic energy:
(perhaps to be used in another calculation)
Total thermal correction                  0.01220587 Eh       7.66 kcal/mol
Non-thermal (ZPE) correction              0.22887689 Eh     143.62 kcal/mol
-----------------------------------------------------------------------
Total correction                          0.24108276 Eh     151.28 kcal/mol


--------
ENTHALPY
--------

The enthalpy is H = U + kB*T
                kB is Boltzmann's constant
Total free energy                 ...    -33.87073975 Eh 
Thermal Enthalpy correction       ...      0.00094421 Eh       0.59 kcal/mol
-----------------------------------------------------------------------
Total Enthalpy                    ...    -33.86979554 Eh


Note: Only C1 symmetry has been detected, increase convergence thresholds 
      if your molecule has a higher symmetry. Symmetry factor of 1.0 is   
      used for the rotational entropy correction. 
 

Note: Rotational entropy computed according to Herzberg 
Infrared and Raman Spectra, Chapter V,1, Van Nostrand Reinhold, 1945 
Point Group:  C1, Symmetry Number:   1  
Rotational constants in cm-1:     0.112260     0.009651     0.009297 

Vibrational entropy computed according to the QRRHO of S. Grimme
Chem.Eur.J. 2012 18 9955


-------
ENTROPY
-------

The entropy contributions are T*S = T*(S(el)+S(vib)+S(rot)+S(trans))
     S(el)   - electronic entropy
     S(vib)  - vibrational entropy
     S(rot)  - rotational entropy
     S(trans)- translational entropy
The entropies will be listed as mutliplied by the temperature to get
units of energy

Electronic entropy                ...      0.00000000 Eh      0.00 kcal/mol
Vibrational entropy               ...      0.01633863 Eh     10.25 kcal/mol
Rotational entropy                ...      0.01494252 Eh      9.38 kcal/mol
Translational entropy             ...      0.01954790 Eh     12.27 kcal/mol
-----------------------------------------------------------------------
Final entropy term                ...      0.05082904 Eh     31.90 kcal/mol

In case the symmetry of your molecule has not been determined correctly
or in case you have a reason to use a different symmetry number we print 
out the resulting rotational entropy values for sn=1,12 :
 --------------------------------------------------------
|  sn= 1 | S(rot)=       0.01494252 Eh      9.38 kcal/mol|
|  sn= 2 | S(rot)=       0.01428806 Eh      8.97 kcal/mol|
|  sn= 3 | S(rot)=       0.01390523 Eh      8.73 kcal/mol|
|  sn= 4 | S(rot)=       0.01363361 Eh      8.56 kcal/mol|
|  sn= 5 | S(rot)=       0.01342292 Eh      8.42 kcal/mol|
|  sn= 6 | S(rot)=       0.01325077 Eh      8.31 kcal/mol|
|  sn= 7 | S(rot)=       0.01310523 Eh      8.22 kcal/mol|
|  sn= 8 | S(rot)=       0.01297915 Eh      8.14 kcal/mol|
|  sn= 9 | S(rot)=       0.01286794 Eh      8.07 kcal/mol|
|  sn=10 | S(rot)=       0.01276846 Eh      8.01 kcal/mol|
|  sn=11 | S(rot)=       0.01267847 Eh      7.96 kcal/mol|
|  sn=12 | S(rot)=       0.01259632 Eh      7.90 kcal/mol|
 --------------------------------------------------------


-------------------
GIBBS FREE ENERGY
-------------------

The Gibbs free energy is G = H - T*S

Total enthalpy                    ...    -33.86979554 Eh 
Total entropy correction          ...     -0.05082904 Eh    -31.90 kcal/mol
-----------------------------------------------------------------------
Final Gibbs free energy         ...    -33.92062458 Eh

For completeness - the Gibbs free energy minus the electronic energy
G-E(el)                           ...      0.19119793 Eh    119.98 kcal/mol


Total Time for Numerical Frequencies  :        40.065 sec
Time for Reference State(s)           :         0.076 sec
Time for Displacements                :        35.554 sec

Timings for individual modules:

Sum of individual times         ...        0.140 sec (=   0.002 min)
XTB module                      ...        0.140 sec (=   0.002 min) 100.0 %
                             ****ORCA TERMINATED NORMALLY****
TOTAL RUN TIME: 0 days 0 hours 0 minutes 40 seconds 555 msec
(SLURM) EXECUTION TIME: 40.574783398 seconds.
