(SLURM) JOB ID:         150

                                 *****************
                                 * O   R   C   A *
                                 *****************

           --- An Ab Initio, DFT and Semiempirical electronic structure package ---

                  #######################################################
                  #                        -***-                        #
                  #          Department of theory and spectroscopy      #
                  #               Directorship: Frank Neese             #
                  #        Max Planck Institute fuer Kohlenforschung    #
                  #                Kaiser Wilhelm Platz 1               #
                  #                 D-45470 Muelheim/Ruhr               #
                  #                      Germany                        #
                  #                                                     #
                  #                  All rights reserved                #
                  #                        -***-                        #
                  #######################################################


                         Program Version 4.2.1 -  RELEASE  -


 With contributions from (in alphabetic order):
   Daniel Aravena         : Magnetic Suceptibility
   Michael Atanasov       : Ab Initio Ligand Field Theory (pilot matlab implementation)
   Alexander A. Auer      : GIAO ZORA, VPT2
   Ute Becker             : Parallelization
   Giovanni Bistoni       : ED, misc. LED, open-shell LED, HFLD
   Martin Brehm           : Molecular dynamics
   Dmytro Bykov           : SCF Hessian
   Vijay G. Chilkuri      : MRCI spin determinant printing, contributions to CSF-ICE
   Dipayan Datta          : RHF DLPNO-CCSD density
   Achintya Kumar Dutta   : EOM-CC, STEOM-CC
   Dmitry Ganyushin       : Spin-Orbit,Spin-Spin,Magnetic field MRCI
   Miquel Garcia          : C-PCM Hessian, Gaussian charge scheme
   Yang Guo               : DLPNO-NEVPT2, CIM, IAO-localization
   Andreas Hansen         : Spin unrestricted coupled pair/coupled cluster methods
   Benjamin Helmich-Paris : CASSCF linear response (MC-RPA)
   Lee Huntington         : MR-EOM, pCC
   Robert Izsak           : Overlap fitted RIJCOSX, COSX-SCS-MP3, EOM
   Christian Kollmar      : KDIIS, OOCD, Brueckner-CCSD(T), CCSD density
   Simone Kossmann        : Meta GGA functionals, TD-DFT gradient, OOMP2, MP2 Hessian
   Martin Krupicka        : AUTO-CI
   Lucas Lang             : DCDCAS
   Dagmar Lenk            : GEPOL surface, SMD
   Dimitrios Liakos       : Extrapolation schemes; Compound Job, initial MDCI parallelization
   Dimitrios Manganas     : Further ROCIS development; embedding schemes
   Dimitrios Pantazis     : SARC Basis sets
   Taras Petrenko         : DFT Hessian,TD-DFT gradient, ASA, ECA, R-Raman, ABS, FL, XAS/XES, NRVS
   Peter Pinski           : DLPNO-MP2, DLPNO-MP2 Gradient
   Christoph Reimann      : Effective Core Potentials
   Marius Retegan         : Local ZFS, SOC
   Christoph Riplinger    : Optimizer, TS searches, QM/MM, DLPNO-CCSD(T), (RO)-DLPNO pert. Triples
   Tobias Risthaus        : Range-separated hybrids, TD-DFT gradient, RPA, STAB
   Michael Roemelt        : Original ROCIS implementation
   Masaaki Saitow         : Open-shell DLPNO-CCSD energy and density
   Barbara Sandhoefer     : DKH picture change effects
   Avijit Sen             : IP-ROCIS
   Kantharuban Sivalingam : CASSCF convergence, NEVPT2, FIC-MRCI
   Bernardo de Souza      : ESD, SOC TD-DFT
   Georgi Stoychev        : AutoAux, RI-MP2 NMR
   Willem Van den Heuvel  : Paramagnetic NMR
   Boris Wezisla          : Elementary symmetry handling
   Frank Wennmohs         : Technical directorship


 We gratefully acknowledge several colleagues who have allowed us to
 interface, adapt or use parts of their codes:
   Stefan Grimme, W. Hujo, H. Kruse,             : VdW corrections, initial TS optimization,
                  C. Bannwarth                     DFT functionals, gCP, sTDA/sTD-DF
   Ed Valeev, F. Pavosevic, A. Kumar             : LibInt (2-el integral package), F12 methods
   Garnet Chan, S. Sharma, J. Yang, R. Olivares  : DMRG
   Ulf Ekstrom                                   : XCFun DFT Library
   Mihaly Kallay                                 : mrcc  (arbitrary order and MRCC methods)
   Andreas Klamt, Michael Diedenhofen            : otool_cosmo (COSMO solvation model)
   Jiri Pittner, Ondrej Demel                    : Mk-CCSD
   Frank Weinhold                                : gennbo (NPA and NBO analysis)
   Christopher J. Cramer and Donald G. Truhlar   : smd solvation model
   Lars Goerigk                                  : TD-DFT with DH, B97 family of functionals
   V. Asgeirsson, H. Jonsson                     : NEB implementation
   FAccTs GmbH                                   : IRC, NEB, NEB-TS, Multilevel, MM, QM/MM, CI optimization
   S Lehtola, MJT Oliveira, MAL Marques          : LibXC Library


 Your calculation uses the libint2 library for the computation of 2-el integrals
 For citations please refer to: http://libint.valeyev.net

 Your ORCA version has been built with support for libXC version: 4.2.3
 For citations please refer to: https://tddft.org/programs/libxc/

 This ORCA versions uses:
   CBLAS   interface :  Fast vector & matrix operations
   LAPACKE interface :  Fast linear algebra routines
   SCALAPACK package :  Parallel linear algebra routines




***************************************
The coordinates will be read from file: init.xyz
***************************************


Your calculation utilizes the SMD solvation module
Please cite in your paper:
A.V. Marenich, C.J. Cramer, D.G. Truhlar J. Phys. Chem. B, 113, (2009), 6378 

Your calculation utilizes the semiempirical GFN2-xTB method
Please cite in your paper:
C. Bannwarth, Ehlert S., S. Grimme,  J. Chem. Theory Comput., 15, (2019), 1652.
   

----- Orbital basis set information -----
Your calculation utilizes the basis: def2-SVP
   F. Weigend and R. Ahlrichs, Phys. Chem. Chem. Phys. 7, 3297 (2005).

================================================================================
                                        WARNINGS
                       Please study these warnings very carefully!
================================================================================

WARNING: Gradients needed for Numerical Frequencies
  ===> : Setting RunTyp to EnGrad

WARNING: The environment variable RSH_COMMAND is not set!
  ===> : All Displacements for the Numerical Hessian calculation
         will be started on localhost

WARNING: Found dipole moment calculation with XTB calculation
  ===> : Switching off dipole moment calculation


INFO   : the flag for use of LIBINT has been found!

================================================================================
                                       INPUT FILE
================================================================================
NAME = /tmp/slurm-scratch/freq.150/freq.inp
|  1> ! XTB2 NumFreq
|  2> %maxcore 1150
|  3> 
|  4> * xyzfile 0 1 init.xyz
|  5> 
|  6> %cpcm
|  7>  smd true
|  8>  smdsolvent "ch2cl2"
|  9> end
| 10> %pal nprocs 10 end
| 11> 
| 12>                          ****END OF INPUT****
================================================================================

                     *******************************
                     * Energy+Gradient Calculation *
                     *******************************

      -----------------------------------------------------------      
     |                   =====================                   |     
     |                           x T B                           |     
     |                   =====================                   |     
     |                         S. Grimme                         |     
     |          Mulliken Center for Theoretical Chemistry        |     
     |                    University of Bonn                     |     
      -----------------------------------------------------------      

   * xtb version 6.3.1 (461a024) compiled by 'schneider@apollo14' on 2020-06-26

   xtb is free software: you can redistribute it and/or modify it under
   the terms of the GNU Lesser General Public License as published by
   the Free Software Foundation, either version 3 of the License, or
   (at your option) any later version.
   
   xtb is distributed in the hope that it will be useful,
   but WITHOUT ANY WARRANTY; without even the implied warranty of
   MERCHANTABILITY or FITNESS FOR A PARTICULAR PURPOSE.  See the
   GNU Lesser General Public License for more details.
   
   Cite this work as:
   * S. Grimme, C. Bannwarth, P. Shushkov, J. Chem. Theory Comput., 2017,
     13, 1989-2009. DOI: 10.1021/acs.jctc.7b00118
   * C. Bannwarth, S. Ehlert and S. Grimme., J. Chem. Theory Comput., 2019,
     15, 1652-1671. DOI: 10.1021/acs.jctc.8b01176
   * P. Pracht, E. Caldeweyher, S. Ehlert, S. Grimme, ChemRxiv, 2019, preprint.
     DOI: 10.26434/chemrxiv.8326202.v1
   
   for GFN-FF:
   * S. Spicher and S. Grimme, Angew. Chem. Int. Ed., 2020,
     DOI: 10.1002/anie.202004239
   
   for DFT-D4:
   * E. Caldeweyher, C. Bannwarth and S. Grimme, J. Chem. Phys., 2017,
     147, 034112. DOI: 10.1063/1.4993215
   * E. Caldeweyher, S. Ehlert, A. Hansen, H. Neugebauer, S. Spicher,
     C. Bannwarth and S. Grimme, J. Chem. Phys., 2019, 150, 154122.
     DOI: 10.1063/1.5090222
   
   for sTDA-xTB:
   * S. Grimme and C. Bannwarth, J. Chem. Phys., 2016, 145, 054103.
     DOI: 10.1063/1.4959605
   
   in the mass-spec context:
   * V. Asgeirsson, C. Bauer and S. Grimme, Chem. Sci., 2017, 8, 4879.
     DOI: 10.1039/c7sc00601b
   * J. Koopman and S. Grimme, ACS Omega 2019, 4, 12, 15120-15133.
     DOI: 10.1021/acsomega.9b02011
   
   for metadynamics refer to:
   * S. Grimme, J. Chem. Theory Comput., 2019, 155, 2847-2862
     DOI: 10.1021/acs.jctc.9b00143
   
   with help from (in alphabetical order)
   C. Bannwarth, F. Bohle, G. Brandenburg, E. Caldeweyher, M. Checinski,
   S. Dohm, S. Ehlert, S. Ehrlich, F. März, H. Neugebauer, J. Pisarek,
   P. Pracht, P. Shushkov, and S. Spicher.
   
 * started run on 2020/08/06 at 12:07:59.946     

           -------------------------------------------------
          |                Calculation Setup                |
           -------------------------------------------------

          program call               : /opt/orca/otool_xtb /tmp/slurm-scratch/freq.150/freq_XTB.xyz --grad -c 0 -u 0 -P 10 --namespace /tmp/slurm-scratch/freq.150/freq --gbsa CH2Cl2
          hostname                   : apollo14
          calculation namespace      : /tmp/slurm-scratch/freq.150/freq
          coordinate file            : /tmp/slurm-scratch/freq.150/freq_XTB.xyz
          omp threads                :                    10
          number of atoms            :                    46
          number of electrons        :                   104
          charge                     :                     0
          spin                       :                   0.0
          first test random number   :      0.46677979913219

   ID    Z sym.   atoms
    1    6 C      1-6, 12, 19, 22, 25, 28, 33, 36, 39, 43
    2    1 H      7-9, 11, 13-15, 17, 18, 20, 21, 23, 26, 27, 29-32, 34, 35,
                  37, 38, 40-42, 44-46
    3    7 N      10, 16
    4    8 O      24

molecular fragmentation (1/2 indicates fragments):
1111111111211112222221112221111122211122221111
# atoms in fragment 1/2:    29    17
 fragment masses (1/2) :      178.25       74.14
CMA distance (Bohr)    :   9.373
constraining FC (au)   :  0.0500
########################################################################
[WARNING] Please study the warnings concerning your input carefully
-1- prog_main_parseArguments: Process number higher than OMP_NUM_THREADS, I hope you know what you are doing.
########################################################################

           -------------------------------------------------
          |                 G F N 2 - x T B                 |
           -------------------------------------------------

        Reference                      10.1021/acs.jctc.8b01176
      * Hamiltonian:
        H0-scaling (s, p, d)           1.850000    2.230000    2.230000
        zeta-weighting                 0.500000
      * Dispersion:
        s8                             2.700000
        a1                             0.520000
        a2                             5.000000
        s9                             5.000000
      * Repulsion:
        kExp                           1.500000    1.000000
        rExp                           1.000000
      * Coulomb:
        alpha                          2.000000
        third order                    shell-resolved
        anisotropic                    true
        a3                             3.000000
        a5                             4.000000
        cn-shift                       1.200000
        cn-exp                         4.000000
        max-rad                        5.000000

      * Solvation model:               GBSA
        Solvent                        CH2Cl2
        Parameter file                 internal GFN2-xTB/GBSA
        Dielectric constant                8.9300E+00
        Reference state                gsolv [1 M gas/solution]
        Free energy shift                  4.4408E-03 Eh       2.7867E+00 kcal/mol
        Temperature                        2.9815E+02 K
        Density                            1.3300E+00 kg/L
        Solvent mass                       8.4930E+01 g/mol
        Interaction kernel             Still
        Born radius scaling (c1)           1.4917E+00
        Born radii integrator          GBOBC
        Born offset                        0.0000E+00 a0       0.0000E+00 AA
        H-bond correction              false
        Ion screening                  false
        Surface tension                    1.0000E-05 Eh       1.5569E+01 dyn/cm
        Grid points                               230 per atom

          ...................................................
          :                      SETUP                      :
          :.................................................:
          :  # basis functions                 100          :
          :  # atomic orbitals                 100          :
          :  # shells                           64          :
          :  # electrons                       104          :
          :  max. iterations                   250          :
          :  Hamiltonian                  GFN2-xTB          :
          :  restarted?                      false          :
          :  GBSA solvation                   true          :
          :  PC potential                    false          :
          :  electronic temp.          300.0000000     K    :
          :  accuracy                    1.0000000          :
          :  -> integral cutoff          0.2500000E+02      :
          :  -> integral neglect         0.1000000E-07      :
          :  -> SCF convergence          0.1000000E-05 Eh   :
          :  -> wf. convergence          0.1000000E-03 e    :
          :  Broyden damping             0.4000000          :
          ...................................................

 iter      E             dE          RMSdq      gap      omega  full diag
   1    -56.8721413 -0.568721E+02  0.347E+00    3.68       0.0  T
   2    -57.0049651 -0.132824E+00  0.188E+00    3.39       1.0  T
   3    -57.0093324 -0.436721E-02  0.858E-01    2.68       1.0  T
   4    -57.0090622  0.270113E-03  0.363E-01    2.58       1.0  T
   5    -57.0136983 -0.463605E-02  0.862E-02    2.71       1.0  T
   6    -57.0137669 -0.685824E-04  0.422E-02    2.75       1.0  T
   7    -57.0137828 -0.159323E-04  0.176E-02    2.76       1.0  T
   8    -57.0137856 -0.277059E-05  0.706E-03    2.76       2.1  T
   9    -57.0137864 -0.822820E-06  0.310E-03    2.76       4.8  T
  10    -57.0137865 -0.556518E-07  0.136E-03    2.76      10.8  T
  11    -57.0137865 -0.979936E-08  0.670E-04    2.76      22.0  T
  12    -57.0137865 -0.678351E-08  0.186E-04    2.76      79.4  T

   *** convergence criteria satisfied after 12 iterations ***

         #    Occupation            Energy/Eh            Energy/eV
      -------------------------------------------------------------
         1        2.0000           -0.6695992             -18.2207
       ...           ...                  ...                  ...
        46        2.0000           -0.4264975             -11.6056
        47        2.0000           -0.4205754             -11.4444
        48        2.0000           -0.4038406             -10.9891
        49        2.0000           -0.4012571             -10.9188
        50        2.0000           -0.3931247             -10.6975
        51        2.0000           -0.3441104              -9.3637
        52        2.0000           -0.3300895              -8.9822 (HOMO)
        53                         -0.2287849              -6.2256 (LUMO)
        54                         -0.2265972              -6.1660
        55                         -0.1093243              -2.9749
        56                         -0.0635399              -1.7290
        57                         -0.0417498              -1.1361
       ...                                ...                  ...
       100                          0.6155889              16.7510
      -------------------------------------------------------------
                  HL-Gap            0.1013045 Eh            2.7566 eV
             Fermi-level           -0.2794372 Eh           -7.6039 eV

 SCC (total)                   0 d,  0 h,  0 min,  0.187 sec
 SCC setup                      ...        0 min,  0.007 sec (  3.497%)
 Dispersion                     ...        0 min,  0.004 sec (  1.977%)
 classical contributions        ...        0 min,  0.004 sec (  2.357%)
 integral evaluation            ...        0 min,  0.018 sec (  9.618%)
 iterations                     ...        0 min,  0.073 sec ( 39.138%)
 molecular gradient             ...        0 min,  0.077 sec ( 41.103%)
 printout                       ...        0 min,  0.004 sec (  2.293%)

         :::::::::::::::::::::::::::::::::::::::::::::::::::::
         ::                     SUMMARY                     ::
         :::::::::::::::::::::::::::::::::::::::::::::::::::::
         :: total energy             -56.273159555984 Eh    ::
         :: total w/o Gsasa/hb       -56.250264565032 Eh    ::
         :: gradient norm              0.051999942075 Eh/a0 ::
         :: HOMO-LUMO gap              2.756636455714 eV    ::
         ::.................................................::
         :: SCC energy               -57.013786471317 Eh    ::
         :: -> isotropic ES            0.116334853541 Eh    ::
         :: -> anisotropic ES          0.003306006738 Eh    ::
         :: -> anisotropic XC          0.031627242090 Eh    ::
         :: -> dispersion             -0.037740975086 Eh    ::
         :: -> Gsolv                  -0.041823989371 Eh    ::
         ::    -> Gborn               -0.018928998419 Eh    ::
         ::    -> Gsasa               -0.027335820125 Eh    ::
         ::    -> Ghb                  0.000000000000 Eh    ::
         ::    -> Gshift               0.004440829173 Eh    ::
         :: repulsion energy           0.740100872139 Eh    ::
         :: add. restraining           0.000000000000 Eh    ::
         :::::::::::::::::::::::::::::::::::::::::::::::::::::

           -------------------------------------------------
          |                Property Printout                |
           -------------------------------------------------

    * Orbital Energies and Occupations

         #    Occupation            Energy/Eh            Energy/eV
      -------------------------------------------------------------
         1        2.0000           -0.6695992             -18.2207
       ...           ...                  ...                  ...
        40        2.0000           -0.4501325             -12.2487
        41        2.0000           -0.4461917             -12.1415
        42        2.0000           -0.4423788             -12.0377
        43        2.0000           -0.4419175             -12.0252
        44        2.0000           -0.4303663             -11.7109
        45        2.0000           -0.4291751             -11.6784
        46        2.0000           -0.4264975             -11.6056
        47        2.0000           -0.4205754             -11.4444
        48        2.0000           -0.4038406             -10.9891
        49        2.0000           -0.4012571             -10.9188
        50        2.0000           -0.3931247             -10.6975
        51        2.0000           -0.3441104              -9.3637
        52        2.0000           -0.3300895              -8.9822 (HOMO)
        53                         -0.2287849              -6.2256 (LUMO)
        54                         -0.2265972              -6.1660
        55                         -0.1093243              -2.9749
        56                         -0.0635399              -1.7290
        57                         -0.0417498              -1.1361
        58                          0.0155869               0.4241
        59                          0.0387109               1.0534
        60                          0.0637384               1.7344
        61                          0.0765254               2.0824
        62                          0.0836658               2.2767
        63                          0.0904725               2.4619
       ...                                ...                  ...
       100                          0.6155889              16.7510
      -------------------------------------------------------------
                  HL-Gap            0.1013045 Eh            2.7566 eV
             Fermi-level           -0.2794372 Eh           -7.6039 eV

     #   Z        covCN         q      C6AA      α(0)
     1   6 C      2.907    -0.034    28.857     8.808
     2   6 C      2.912    -0.044    29.104     8.846
     3   6 C      2.955    -0.029    28.716     8.789
     4   6 C      2.912    -0.033    28.833     8.805
     5   6 C      2.908    -0.035    28.869     8.810
     6   6 C      2.908    -0.035    28.877     8.812
     7   1 H      0.924     0.016     2.791     2.612
     8   1 H      0.925     0.036     2.508     2.476
     9   1 H      0.925     0.035     2.514     2.479
    10   7 N      3.011    -0.282    27.266     7.755
    11   1 H      1.111     0.252     0.865     1.452
    12   6 C      3.728     0.005    20.587     6.478
    13   1 H      0.923     0.039     2.464     2.455
    14   1 H      0.923     0.048     2.343     2.394
    15   1 H      0.859     0.155     1.366     1.831
    16   7 N      3.371    -0.239    26.233     7.607
    17   1 H      0.859     0.201     1.100     1.643
    18   1 H      0.856     0.249     0.887     1.475
    19   6 C      3.728    -0.007    20.804     6.512
    20   1 H      0.924     0.064     2.147     2.292
    21   1 H      0.923     0.064     2.151     2.293
    22   6 C      3.634     0.206    17.695     6.054
    23   1 H      0.920    -0.049     4.077     3.158
    24   8 O      0.854    -0.740    29.834     7.323
    25   6 C      3.797    -0.072    21.878     6.660
    26   1 H      0.923     0.053     2.287     2.365
    27   1 H      0.923     0.048     2.349     2.397
    28   6 C      3.796    -0.059    21.645     6.625
    29   1 H      0.923     0.029     2.597     2.520
    30   1 H      0.923     0.033     2.538     2.491
    31   1 H      0.925     0.034     2.524     2.484
    32   1 H      0.925     0.033     2.546     2.495
    33   6 C      3.796    -0.056    21.578     6.615
    34   1 H      0.923     0.038     2.480     2.463
    35   1 H      0.923     0.041     2.439     2.442
    36   6 C      3.795    -0.054    21.546     6.610
    37   1 H      0.923     0.032     2.559     2.502
    38   1 H      0.923     0.036     2.498     2.472
    39   6 C      3.745    -0.104    22.564     6.776
    40   1 H      0.923     0.038     2.482     2.464
    41   1 H      0.923     0.039     2.459     2.452
    42   1 H      0.923     0.039     2.457     2.451
    43   6 C      3.745    -0.100    22.490     6.765
    44   1 H      0.923     0.039     2.461     2.454
    45   1 H      0.923     0.033     2.542     2.494
    46   1 H      0.923     0.037     2.492     2.469

 Mol. C6AA /au·bohr⁶  :      17265.730946
 Mol. C8AA /au·bohr⁸  :     377958.578894
 Mol. α(0) /au        :        200.625427


Wiberg/Mayer (AO) data.
largest (>0.10) Wiberg bond orders for each atom
          total WBO             WBO to atom ...
     1  C   3.990        C    2 1.450    C    6 1.430    H   32 0.971    C    4 0.110
     2  C   3.990        C    1 1.450    C    3 1.405    H    7 0.968    C    5 0.112
     3  C   3.979        C    4 1.421    C    2 1.405    C   22 0.948    C    6 0.110
     4  C   3.990        C    5 1.435    C    3 1.421    H    8 0.966    C    1 0.110
     5  C   3.990        C    6 1.444    C    4 1.435    H   31 0.971    C    2 0.112
     6  C   3.990        C    5 1.444    C    1 1.430    H    9 0.971    C    3 0.110
     7  H   1.000        C    2 0.968
     8  H   0.999        C    4 0.966
     9  H   0.998        C    6 0.971
    10  N   3.390        C   12 0.997    H   15 0.949    C   22 0.802    H   11 0.351    N   16 0.128
    11  H   0.936        N   16 0.562    N   10 0.351
    12  C   3.975        C   28 1.004    N   10 0.997    H   14 0.973    H   13 0.971
    13  H   0.998        C   12 0.971
    14  H   0.998        C   12 0.973
    15  H   0.976        N   10 0.949
    16  N   3.531        C   19 0.979    H   17 0.944    H   18 0.845    H   11 0.562    N   10 0.128
    17  H   0.959        N   16 0.944
    18  H   0.938        N   16 0.845
    19  C   3.950        C   25 1.006    N   16 0.979    H   21 0.972    H   20 0.971
    20  H   0.996        C   19 0.971
    21  H   0.996        C   19 0.972
    22  C   3.958        O   24 1.225    C    3 0.948    H   23 0.929    N   10 0.802
    23  H   0.997        C   22 0.929
    24  O   1.548        C   22 1.225
    25  C   3.991        C   19 1.006    C   33 1.004    H   27 0.975    H   26 0.974
    26  H   0.997        C   25 0.974
    27  H   0.998        C   25 0.975
    28  C   3.996        C   36 1.005    C   12 1.004    H   30 0.976    H   29 0.974
    29  H   0.999        C   28 0.974
    30  H   0.999        C   28 0.976
    31  H   0.998        C    5 0.971
    32  H   0.998        C    1 0.971
    33  C   3.995        C   39 1.019    C   25 1.004    H   34 0.978    H   35 0.977
    34  H   0.999        C   33 0.978
    35  H   0.998        C   33 0.977
    36  C   3.995        C   43 1.019    C   28 1.005    H   37 0.978    H   38 0.978
    37  H   0.999        C   36 0.978
    38  H   0.999        C   36 0.978
    39  C   3.995        C   33 1.019    H   40 0.988    H   42 0.987    H   41 0.987
    40  H   0.999        C   39 0.988
    41  H   0.998        C   39 0.987
    42  H   0.998        C   39 0.987
    43  C   3.996        C   36 1.019    H   45 0.988    H   46 0.988    H   44 0.987
    44  H   0.998        C   43 0.987
    45  H   0.999        C   43 0.988
    46  H   0.999        C   43 0.988
Topologies differ in total number of bonds
Writing topology from bond orders to xtbtopo.mol

molecular dipole:
                 x           y           z       tot (Debye)
 q only:       -1.057      -2.858      -1.673
   full:       -1.301      -2.463      -1.656       8.237
molecular quadrupole (traceless):
                xx          xy          yy          xz          yz          zz
 q only:       -2.434     -11.573      33.653     -22.513     -18.223     -31.219
  q+dip:       -1.544     -11.647      32.095     -24.130     -19.514     -30.551
   full:       -2.318     -10.449      33.029     -24.087     -17.609     -30.711


           -------------------------------------------------
          | TOTAL ENERGY              -56.273159555984 Eh   |
          | GRADIENT NORM               0.051999942075 Eh/α |
          | HOMO-LUMO GAP               2.756636455714 eV   |
           -------------------------------------------------

------------------------------------------------------------------------
 * finished run on 2020/08/06 at 12:08:00.216     
------------------------------------------------------------------------
 total:
 * wall-time:     0 d,  0 h,  0 min,  0.270 sec
 *  cpu-time:     0 d,  0 h,  0 min,  3.059 sec
 * ratio c/w:    11.336 speedup
 SCF:
 * wall-time:     0 d,  0 h,  0 min,  0.195 sec
 *  cpu-time:     0 d,  0 h,  0 min,  2.231 sec
 * ratio c/w:    11.451 speedup


-------------------------   --------------------
FINAL SINGLE POINT ENERGY       -56.273159555980
-------------------------   --------------------


----------------------------------------------------------------------------
                           ORCA NUMERICAL FREQUENCIES
                              (10-process run)
----------------------------------------------------------------------------

Number of atoms                ... 46
Central differences            ... used
Number of displacements        ... 276
Numerical increment            ... 5.000e-03 bohr
IR-spectrum generation         ... on
Raman-spectrum generation      ... off
Surface Crossing Hessian       ... off
List of participating nodes    ...  /tmp/slurm-scratch/freq.150/freq.hostnames

The output will be reduced. Please look at the following files:
SCF program output             ... >/tmp/slurm-scratch/freq.150/freq.lastscf
Integral program output        ... >/tmp/slurm-scratch/freq.150/freq.lastint
Gradient program output        ... >/tmp/slurm-scratch/freq.150/freq.lastgrad
Dipole moment program output   ... >/tmp/slurm-scratch/freq.150/freq.lastmom
AutoCI program output          ... >/tmp/slurm-scratch/freq.150/freq.lastautoci


         <<< Energy and Gradient at the input geometry >>>

        <<< Energy and Gradient at displaced geometries >>>
             <<<Displacing   4/coordinate 1 (+)>>>
             <<<Displacing   2/coordinate 3 (+)>>>
             <<<Displacing   2/coordinate 2 (+)>>>
             <<<Displacing   2/coordinate 1 (+)>>>
             <<<Displacing   1/coordinate 3 (+)>>>
             <<<Displacing   1/coordinate 2 (+)>>>
             <<<Displacing   3/coordinate 1 (+)>>>
             <<<Displacing   3/coordinate 3 (+)>>>
             <<<Displacing   3/coordinate 2 (+)>>>
             <<<Displacing   1/coordinate 1 (+)>>>
             <<<Displacing   3/coordinate 3 (-)>>>
             <<<Displacing   1/coordinate 1 (-)>>>
             <<<Displacing   2/coordinate 3 (-)>>>
             <<<Displacing   1/coordinate 3 (-)>>>
             <<<Displacing   4/coordinate 1 (-)>>>
             <<<Displacing   3/coordinate 2 (-)>>>
             <<<Displacing   3/coordinate 1 (-)>>>
             <<<Displacing   2/coordinate 1 (-)>>>
             <<<Displacing   1/coordinate 2 (-)>>>
             <<<Displacing   2/coordinate 2 (-)>>>
             <<<Displacing   6/coordinate 2 (+)>>>
             <<<Displacing   5/coordinate 2 (+)>>>
             <<<Displacing   4/coordinate 3 (+)>>>
             <<<Displacing   6/coordinate 3 (+)>>>
             <<<Displacing   6/coordinate 2 (-)>>>
             <<<Displacing   5/coordinate 1 (+)>>>
             <<<Displacing   4/coordinate 2 (+)>>>
             <<<Displacing   6/coordinate 1 (+)>>>
             <<<Displacing   4/coordinate 3 (-)>>>
             <<<Displacing   5/coordinate 2 (-)>>>
             <<<Displacing   5/coordinate 1 (-)>>>
             <<<Displacing   6/coordinate 3 (-)>>>
             <<<Displacing   4/coordinate 2 (-)>>>
             <<<Displacing   7/coordinate 1 (+)>>>
             <<<Displacing   6/coordinate 1 (-)>>>
             <<<Displacing   7/coordinate 2 (+)>>>
             <<<Displacing   5/coordinate 3 (+)>>>
             <<<Displacing   7/coordinate 1 (-)>>>
             <<<Displacing   7/coordinate 2 (-)>>>
             <<<Displacing   5/coordinate 3 (-)>>>
             <<<Displacing   8/coordinate 3 (+)>>>
             <<<Displacing   8/coordinate 1 (+)>>>
             <<<Displacing   7/coordinate 3 (+)>>>
             <<<Displacing   9/coordinate 2 (+)>>>
             <<<Displacing   9/coordinate 1 (+)>>>
             <<<Displacing   8/coordinate 2 (+)>>>
             <<<Displacing   8/coordinate 1 (-)>>>
             <<<Displacing   8/coordinate 3 (-)>>>
             <<<Displacing   7/coordinate 3 (-)>>>
             <<<Displacing   9/coordinate 1 (-)>>>
             <<<Displacing  10/coordinate 1 (+)>>>
             <<<Displacing   9/coordinate 2 (-)>>>
             <<<Displacing   8/coordinate 2 (-)>>>
             <<<Displacing   9/coordinate 3 (+)>>>
             <<<Displacing  10/coordinate 1 (-)>>>
             <<<Displacing   9/coordinate 3 (-)>>>
             <<<Displacing  10/coordinate 2 (+)>>>
             <<<Displacing  10/coordinate 2 (-)>>>
             <<<Displacing  10/coordinate 3 (+)>>>
             <<<Displacing  10/coordinate 3 (-)>>>
             <<<Displacing  11/coordinate 3 (+)>>>
             <<<Displacing  11/coordinate 1 (+)>>>
             <<<Displacing  12/coordinate 1 (+)>>>
             <<<Displacing  11/coordinate 1 (-)>>>
             <<<Displacing  11/coordinate 3 (-)>>>
             <<<Displacing  12/coordinate 3 (+)>>>
             <<<Displacing  11/coordinate 2 (+)>>>
             <<<Displacing  12/coordinate 1 (-)>>>
             <<<Displacing  12/coordinate 2 (+)>>>
             <<<Displacing  13/coordinate 3 (+)>>>
             <<<Displacing  12/coordinate 3 (-)>>>
             <<<Displacing  11/coordinate 2 (-)>>>
             <<<Displacing  12/coordinate 2 (-)>>>
             <<<Displacing  13/coordinate 3 (-)>>>
             <<<Displacing  13/coordinate 1 (+)>>>
             <<<Displacing  13/coordinate 2 (+)>>>
             <<<Displacing  13/coordinate 1 (-)>>>
             <<<Displacing  13/coordinate 2 (-)>>>
             <<<Displacing  14/coordinate 1 (+)>>>
             <<<Displacing  14/coordinate 1 (-)>>>
             <<<Displacing  14/coordinate 2 (+)>>>
             <<<Displacing  14/coordinate 3 (+)>>>
             <<<Displacing  15/coordinate 1 (+)>>>
             <<<Displacing  15/coordinate 2 (+)>>>
             <<<Displacing  14/coordinate 3 (-)>>>
             <<<Displacing  14/coordinate 2 (-)>>>
             <<<Displacing  16/coordinate 1 (+)>>>
             <<<Displacing  15/coordinate 2 (-)>>>
             <<<Displacing  15/coordinate 1 (-)>>>
             <<<Displacing  15/coordinate 3 (+)>>>
             <<<Displacing  16/coordinate 1 (-)>>>
             <<<Displacing  16/coordinate 2 (+)>>>
             <<<Displacing  15/coordinate 3 (-)>>>
             <<<Displacing  16/coordinate 3 (+)>>>
             <<<Displacing  16/coordinate 2 (-)>>>
             <<<Displacing  17/coordinate 1 (+)>>>
             <<<Displacing  16/coordinate 3 (-)>>>
             <<<Displacing  17/coordinate 1 (-)>>>
             <<<Displacing  17/coordinate 2 (+)>>>
             <<<Displacing  17/coordinate 2 (-)>>>
             <<<Displacing  17/coordinate 3 (+)>>>
             <<<Displacing  18/coordinate 3 (+)>>>
             <<<Displacing  18/coordinate 1 (+)>>>
             <<<Displacing  18/coordinate 2 (+)>>>
             <<<Displacing  18/coordinate 3 (-)>>>
             <<<Displacing  17/coordinate 3 (-)>>>
             <<<Displacing  18/coordinate 1 (-)>>>
             <<<Displacing  18/coordinate 2 (-)>>>
             <<<Displacing  19/coordinate 1 (+)>>>
             <<<Displacing  19/coordinate 2 (+)>>>
             <<<Displacing  19/coordinate 1 (-)>>>
             <<<Displacing  19/coordinate 2 (-)>>>
             <<<Displacing  19/coordinate 3 (+)>>>
             <<<Displacing  20/coordinate 1 (+)>>>
             <<<Displacing  20/coordinate 2 (+)>>>
             <<<Displacing  20/coordinate 1 (-)>>>
             <<<Displacing  19/coordinate 3 (-)>>>
             <<<Displacing  20/coordinate 2 (-)>>>
             <<<Displacing  20/coordinate 3 (+)>>>
             <<<Displacing  20/coordinate 3 (-)>>>
             <<<Displacing  22/coordinate 1 (+)>>>
             <<<Displacing  21/coordinate 3 (+)>>>
             <<<Displacing  21/coordinate 1 (+)>>>
             <<<Displacing  22/coordinate 1 (-)>>>
             <<<Displacing  21/coordinate 2 (+)>>>
             <<<Displacing  21/coordinate 1 (-)>>>
             <<<Displacing  21/coordinate 3 (-)>>>
             <<<Displacing  21/coordinate 2 (-)>>>
             <<<Displacing  22/coordinate 2 (+)>>>
             <<<Displacing  22/coordinate 3 (+)>>>
             <<<Displacing  22/coordinate 2 (-)>>>
             <<<Displacing  22/coordinate 3 (-)>>>
             <<<Displacing  23/coordinate 1 (+)>>>
             <<<Displacing  23/coordinate 2 (+)>>>
             <<<Displacing  23/coordinate 3 (+)>>>
             <<<Displacing  23/coordinate 2 (-)>>>
             <<<Displacing  23/coordinate 1 (-)>>>
             <<<Displacing  23/coordinate 3 (-)>>>
             <<<Displacing  24/coordinate 1 (+)>>>
             <<<Displacing  24/coordinate 1 (-)>>>
             <<<Displacing  24/coordinate 3 (+)>>>
             <<<Displacing  24/coordinate 2 (+)>>>
             <<<Displacing  24/coordinate 2 (-)>>>
             <<<Displacing  24/coordinate 3 (-)>>>
             <<<Displacing  25/coordinate 3 (+)>>>
             <<<Displacing  25/coordinate 1 (+)>>>
             <<<Displacing  25/coordinate 2 (+)>>>
             <<<Displacing  25/coordinate 1 (-)>>>
             <<<Displacing  25/coordinate 2 (-)>>>
             <<<Displacing  25/coordinate 3 (-)>>>
             <<<Displacing  26/coordinate 1 (+)>>>
             <<<Displacing  27/coordinate 1 (+)>>>
             <<<Displacing  26/coordinate 1 (-)>>>
             <<<Displacing  26/coordinate 2 (+)>>>
             <<<Displacing  27/coordinate 1 (-)>>>
             <<<Displacing  26/coordinate 3 (+)>>>
             <<<Displacing  26/coordinate 2 (-)>>>
             <<<Displacing  26/coordinate 3 (-)>>>
             <<<Displacing  27/coordinate 2 (+)>>>
             <<<Displacing  27/coordinate 2 (-)>>>
             <<<Displacing  27/coordinate 3 (+)>>>
             <<<Displacing  28/coordinate 2 (+)>>>
             <<<Displacing  28/coordinate 1 (+)>>>
             <<<Displacing  27/coordinate 3 (-)>>>
             <<<Displacing  28/coordinate 1 (-)>>>
             <<<Displacing  28/coordinate 3 (+)>>>
             <<<Displacing  28/coordinate 2 (-)>>>
             <<<Displacing  28/coordinate 3 (-)>>>
             <<<Displacing  29/coordinate 1 (+)>>>
             <<<Displacing  29/coordinate 2 (+)>>>
             <<<Displacing  29/coordinate 1 (-)>>>
             <<<Displacing  29/coordinate 3 (+)>>>
             <<<Displacing  29/coordinate 2 (-)>>>
             <<<Displacing  30/coordinate 1 (+)>>>
             <<<Displacing  29/coordinate 3 (-)>>>
             <<<Displacing  30/coordinate 1 (-)>>>
             <<<Displacing  30/coordinate 2 (+)>>>
             <<<Displacing  30/coordinate 2 (-)>>>
             <<<Displacing  30/coordinate 3 (+)>>>
             <<<Displacing  30/coordinate 3 (-)>>>
             <<<Displacing  31/coordinate 1 (+)>>>
             <<<Displacing  31/coordinate 2 (+)>>>
             <<<Displacing  31/coordinate 3 (+)>>>
             <<<Displacing  31/coordinate 1 (-)>>>
             <<<Displacing  31/coordinate 2 (-)>>>
             <<<Displacing  31/coordinate 3 (-)>>>
             <<<Displacing  32/coordinate 3 (+)>>>
             <<<Displacing  32/coordinate 1 (+)>>>
             <<<Displacing  32/coordinate 2 (+)>>>
             <<<Displacing  32/coordinate 3 (-)>>>
             <<<Displacing  32/coordinate 1 (-)>>>
             <<<Displacing  33/coordinate 1 (+)>>>
             <<<Displacing  32/coordinate 2 (-)>>>
             <<<Displacing  33/coordinate 1 (-)>>>
             <<<Displacing  33/coordinate 2 (+)>>>
             <<<Displacing  33/coordinate 2 (-)>>>
             <<<Displacing  33/coordinate 3 (+)>>>
             <<<Displacing  33/coordinate 3 (-)>>>
             <<<Displacing  34/coordinate 1 (+)>>>
             <<<Displacing  34/coordinate 1 (-)>>>
             <<<Displacing  34/coordinate 2 (+)>>>
             <<<Displacing  34/coordinate 2 (-)>>>
             <<<Displacing  35/coordinate 1 (+)>>>
             <<<Displacing  34/coordinate 3 (+)>>>
             <<<Displacing  35/coordinate 2 (+)>>>
             <<<Displacing  35/coordinate 1 (-)>>>
             <<<Displacing  34/coordinate 3 (-)>>>
             <<<Displacing  35/coordinate 2 (-)>>>
             <<<Displacing  35/coordinate 3 (+)>>>
             <<<Displacing  36/coordinate 1 (+)>>>
             <<<Displacing  35/coordinate 3 (-)>>>
             <<<Displacing  36/coordinate 2 (+)>>>
             <<<Displacing  36/coordinate 3 (+)>>>
             <<<Displacing  36/coordinate 1 (-)>>>
             <<<Displacing  36/coordinate 2 (-)>>>
             <<<Displacing  36/coordinate 3 (-)>>>
             <<<Displacing  37/coordinate 1 (+)>>>
             <<<Displacing  37/coordinate 1 (-)>>>
             <<<Displacing  37/coordinate 2 (+)>>>
             <<<Displacing  37/coordinate 2 (-)>>>
             <<<Displacing  37/coordinate 3 (+)>>>
             <<<Displacing  37/coordinate 3 (-)>>>
             <<<Displacing  38/coordinate 1 (+)>>>
             <<<Displacing  38/coordinate 3 (+)>>>
             <<<Displacing  38/coordinate 1 (-)>>>
             <<<Displacing  38/coordinate 2 (+)>>>
             <<<Displacing  38/coordinate 3 (-)>>>
             <<<Displacing  39/coordinate 3 (+)>>>
             <<<Displacing  38/coordinate 2 (-)>>>
             <<<Displacing  39/coordinate 3 (-)>>>
             <<<Displacing  39/coordinate 2 (+)>>>
             <<<Displacing  39/coordinate 1 (+)>>>
             <<<Displacing  39/coordinate 2 (-)>>>
             <<<Displacing  40/coordinate 1 (+)>>>
             <<<Displacing  39/coordinate 1 (-)>>>
             <<<Displacing  40/coordinate 1 (-)>>>
             <<<Displacing  40/coordinate 2 (+)>>>
             <<<Displacing  40/coordinate 2 (-)>>>
             <<<Displacing  40/coordinate 3 (+)>>>
             <<<Displacing  40/coordinate 3 (-)>>>
             <<<Displacing  41/coordinate 2 (+)>>>
             <<<Displacing  41/coordinate 1 (+)>>>
             <<<Displacing  41/coordinate 2 (-)>>>
             <<<Displacing  41/coordinate 1 (-)>>>
             <<<Displacing  41/coordinate 3 (+)>>>
             <<<Displacing  42/coordinate 2 (+)>>>
             <<<Displacing  41/coordinate 3 (-)>>>
             <<<Displacing  42/coordinate 1 (+)>>>
             <<<Displacing  42/coordinate 2 (-)>>>
             <<<Displacing  42/coordinate 1 (-)>>>
             <<<Displacing  43/coordinate 2 (+)>>>
             <<<Displacing  43/coordinate 2 (-)>>>
             <<<Displacing  43/coordinate 1 (+)>>>
             <<<Displacing  42/coordinate 3 (+)>>>
             <<<Displacing  43/coordinate 1 (-)>>>
             <<<Displacing  42/coordinate 3 (-)>>>
             <<<Displacing  43/coordinate 3 (+)>>>
             <<<Displacing  43/coordinate 3 (-)>>>
             <<<Displacing  44/coordinate 1 (+)>>>
             <<<Displacing  44/coordinate 1 (-)>>>
             <<<Displacing  45/coordinate 1 (+)>>>
             <<<Displacing  45/coordinate 1 (-)>>>
             <<<Displacing  44/coordinate 2 (+)>>>
             <<<Displacing  44/coordinate 3 (+)>>>
             <<<Displacing  44/coordinate 2 (-)>>>
             <<<Displacing  44/coordinate 3 (-)>>>
             <<<Displacing  45/coordinate 3 (+)>>>
             <<<Displacing  45/coordinate 2 (+)>>>
             <<<Displacing  45/coordinate 3 (-)>>>
             <<<Displacing  45/coordinate 2 (-)>>>
             <<<Displacing  46/coordinate 1 (+)>>>
             <<<Displacing  46/coordinate 1 (-)>>>
             <<<Displacing  46/coordinate 3 (+)>>>
             <<<Displacing  46/coordinate 2 (+)>>>
             <<<Displacing  46/coordinate 2 (-)>>>
             <<<Displacing  46/coordinate 3 (-)>>>

-----------------------
VIBRATIONAL FREQUENCIES
-----------------------

Scaling factor for frequencies =  1.000000000 (already applied!)

   0:         0.00 cm**-1
   1:         0.00 cm**-1
   2:         0.00 cm**-1
   3:         0.00 cm**-1
   4:         0.00 cm**-1
   5:         0.00 cm**-1
   6:      -865.03 cm**-1 ***imaginary mode***
   7:        45.09 cm**-1
   8:        59.33 cm**-1
   9:        72.68 cm**-1
  10:        91.96 cm**-1
  11:       108.73 cm**-1
  12:       117.30 cm**-1
  13:       141.81 cm**-1
  14:       151.87 cm**-1
  15:       166.24 cm**-1
  16:       172.26 cm**-1
  17:       183.19 cm**-1
  18:       185.91 cm**-1
  19:       191.47 cm**-1
  20:       221.77 cm**-1
  21:       235.79 cm**-1
  22:       242.64 cm**-1
  23:       253.82 cm**-1
  24:       285.44 cm**-1
  25:       347.65 cm**-1
  26:       357.09 cm**-1
  27:       378.46 cm**-1
  28:       387.35 cm**-1
  29:       394.71 cm**-1
  30:       403.61 cm**-1
  31:       410.17 cm**-1
  32:       437.64 cm**-1
  33:       492.15 cm**-1
  34:       504.69 cm**-1
  35:       583.50 cm**-1
  36:       590.78 cm**-1
  37:       631.32 cm**-1
  38:       647.85 cm**-1
  39:       678.58 cm**-1
  40:       739.33 cm**-1
  41:       782.45 cm**-1
  42:       793.92 cm**-1
  43:       803.34 cm**-1
  44:       825.72 cm**-1
  45:       848.15 cm**-1
  46:       852.52 cm**-1
  47:       898.10 cm**-1
  48:       908.54 cm**-1
  49:       926.49 cm**-1
  50:       935.28 cm**-1
  51:       947.18 cm**-1
  52:       948.79 cm**-1
  53:       954.38 cm**-1
  54:       955.59 cm**-1
  55:       966.59 cm**-1
  56:       968.50 cm**-1
  57:       971.51 cm**-1
  58:      1009.28 cm**-1
  59:      1028.32 cm**-1
  60:      1042.41 cm**-1
  61:      1051.25 cm**-1
  62:      1061.27 cm**-1
  63:      1064.72 cm**-1
  64:      1075.34 cm**-1
  65:      1092.33 cm**-1
  66:      1095.87 cm**-1
  67:      1101.72 cm**-1
  68:      1120.76 cm**-1
  69:      1131.95 cm**-1
  70:      1135.91 cm**-1
  71:      1165.03 cm**-1
  72:      1180.28 cm**-1
  73:      1191.47 cm**-1
  74:      1200.79 cm**-1
  75:      1211.57 cm**-1
  76:      1224.53 cm**-1
  77:      1238.53 cm**-1
  78:      1243.57 cm**-1
  79:      1253.74 cm**-1
  80:      1274.12 cm**-1
  81:      1275.13 cm**-1
  82:      1282.97 cm**-1
  83:      1284.52 cm**-1
  84:      1287.90 cm**-1
  85:      1289.93 cm**-1
  86:      1306.68 cm**-1
  87:      1317.67 cm**-1
  88:      1344.22 cm**-1
  89:      1351.14 cm**-1
  90:      1374.38 cm**-1
  91:      1375.51 cm**-1
  92:      1406.40 cm**-1
  93:      1408.21 cm**-1
  94:      1434.57 cm**-1
  95:      1434.70 cm**-1
  96:      1440.97 cm**-1
  97:      1479.15 cm**-1
  98:      1486.12 cm**-1
  99:      1495.97 cm**-1
 100:      1502.79 cm**-1
 101:      1504.57 cm**-1
 102:      1507.67 cm**-1
 103:      1507.86 cm**-1
 104:      1508.99 cm**-1
 105:      1510.52 cm**-1
 106:      1512.57 cm**-1
 107:      1514.23 cm**-1
 108:      1516.62 cm**-1
 109:      1531.35 cm**-1
 110:      1537.40 cm**-1
 111:      2577.07 cm**-1
 112:      2735.20 cm**-1
 113:      2862.74 cm**-1
 114:      2868.84 cm**-1
 115:      2873.12 cm**-1
 116:      2877.78 cm**-1
 117:      2883.59 cm**-1
 118:      2897.56 cm**-1
 119:      2897.83 cm**-1
 120:      2902.03 cm**-1
 121:      2903.57 cm**-1
 122:      2911.81 cm**-1
 123:      2912.60 cm**-1
 124:      2913.96 cm**-1
 125:      2917.68 cm**-1
 126:      2919.79 cm**-1
 127:      2921.08 cm**-1
 128:      2930.74 cm**-1
 129:      2932.78 cm**-1
 130:      2946.45 cm**-1
 131:      2955.78 cm**-1
 132:      2973.93 cm**-1
 133:      2978.16 cm**-1
 134:      2989.72 cm**-1
 135:      2997.94 cm**-1
 136:      3254.94 cm**-1
 137:      3306.46 cm**-1


------------
NORMAL MODES
------------

These modes are the cartesian displacements weighted by the diagonal matrix
M(i,i)=1/sqrt(m[i]) where m[i] is the mass of the displaced atom
Thus, these vectors are normalized but *not* orthogonal

                  0          1          2          3          4          5    
      0       0.000000   0.000000   0.000000   0.000000   0.000000   0.000000
      1       0.000000   0.000000   0.000000   0.000000   0.000000   0.000000
      2       0.000000   0.000000   0.000000   0.000000   0.000000   0.000000
      3       0.000000   0.000000   0.000000   0.000000   0.000000   0.000000
      4       0.000000   0.000000   0.000000   0.000000   0.000000   0.000000
      5       0.000000   0.000000   0.000000   0.000000   0.000000   0.000000
      6       0.000000   0.000000   0.000000   0.000000   0.000000   0.000000
      7       0.000000   0.000000   0.000000   0.000000   0.000000   0.000000
      8       0.000000   0.000000   0.000000   0.000000   0.000000   0.000000
      9       0.000000   0.000000   0.000000   0.000000   0.000000   0.000000
     10       0.000000   0.000000   0.000000   0.000000   0.000000   0.000000
     11       0.000000   0.000000   0.000000   0.000000   0.000000   0.000000
     12       0.000000   0.000000   0.000000   0.000000   0.000000   0.000000
     13       0.000000   0.000000   0.000000   0.000000   0.000000   0.000000
     14       0.000000   0.000000   0.000000   0.000000   0.000000   0.000000
     15       0.000000   0.000000   0.000000   0.000000   0.000000   0.000000
     16       0.000000   0.000000   0.000000   0.000000   0.000000   0.000000
     17       0.000000   0.000000   0.000000   0.000000   0.000000   0.000000
     18       0.000000   0.000000   0.000000   0.000000   0.000000   0.000000
     19       0.000000   0.000000   0.000000   0.000000   0.000000   0.000000
     20       0.000000   0.000000   0.000000   0.000000   0.000000   0.000000
     21       0.000000   0.000000   0.000000   0.000000   0.000000   0.000000
     22       0.000000   0.000000   0.000000   0.000000   0.000000   0.000000
     23       0.000000   0.000000   0.000000   0.000000   0.000000   0.000000
     24       0.000000   0.000000   0.000000   0.000000   0.000000   0.000000
     25       0.000000   0.000000   0.000000   0.000000   0.000000   0.000000
     26       0.000000   0.000000   0.000000   0.000000   0.000000   0.000000
     27       0.000000   0.000000   0.000000   0.000000   0.000000   0.000000
     28       0.000000   0.000000   0.000000   0.000000   0.000000   0.000000
     29       0.000000   0.000000   0.000000   0.000000   0.000000   0.000000
     30       0.000000   0.000000   0.000000   0.000000   0.000000   0.000000
     31       0.000000   0.000000   0.000000   0.000000   0.000000   0.000000
     32       0.000000   0.000000   0.000000   0.000000   0.000000   0.000000
     33       0.000000   0.000000   0.000000   0.000000   0.000000   0.000000
     34       0.000000   0.000000   0.000000   0.000000   0.000000   0.000000
     35       0.000000   0.000000   0.000000   0.000000   0.000000   0.000000
     36       0.000000   0.000000   0.000000   0.000000   0.000000   0.000000
     37       0.000000   0.000000   0.000000   0.000000   0.000000   0.000000
     38       0.000000   0.000000   0.000000   0.000000   0.000000   0.000000
     39       0.000000   0.000000   0.000000   0.000000   0.000000   0.000000
     40       0.000000   0.000000   0.000000   0.000000   0.000000   0.000000
     41       0.000000   0.000000   0.000000   0.000000   0.000000   0.000000
     42       0.000000   0.000000   0.000000   0.000000   0.000000   0.000000
     43       0.000000   0.000000   0.000000   0.000000   0.000000   0.000000
     44       0.000000   0.000000   0.000000   0.000000   0.000000   0.000000
     45       0.000000   0.000000   0.000000   0.000000   0.000000   0.000000
     46       0.000000   0.000000   0.000000   0.000000   0.000000   0.000000
     47       0.000000   0.000000   0.000000   0.000000   0.000000   0.000000
     48       0.000000   0.000000   0.000000   0.000000   0.000000   0.000000
     49       0.000000   0.000000   0.000000   0.000000   0.000000   0.000000
     50       0.000000   0.000000   0.000000   0.000000   0.000000   0.000000
     51       0.000000   0.000000   0.000000   0.000000   0.000000   0.000000
     52       0.000000   0.000000   0.000000   0.000000   0.000000   0.000000
     53       0.000000   0.000000   0.000000   0.000000   0.000000   0.000000
     54       0.000000   0.000000   0.000000   0.000000   0.000000   0.000000
     55       0.000000   0.000000   0.000000   0.000000   0.000000   0.000000
     56       0.000000   0.000000   0.000000   0.000000   0.000000   0.000000
     57       0.000000   0.000000   0.000000   0.000000   0.000000   0.000000
     58       0.000000   0.000000   0.000000   0.000000   0.000000   0.000000
     59       0.000000   0.000000   0.000000   0.000000   0.000000   0.000000
     60       0.000000   0.000000   0.000000   0.000000   0.000000   0.000000
     61       0.000000   0.000000   0.000000   0.000000   0.000000   0.000000
     62       0.000000   0.000000   0.000000   0.000000   0.000000   0.000000
     63       0.000000   0.000000   0.000000   0.000000   0.000000   0.000000
     64       0.000000   0.000000   0.000000   0.000000   0.000000   0.000000
     65       0.000000   0.000000   0.000000   0.000000   0.000000   0.000000
     66       0.000000   0.000000   0.000000   0.000000   0.000000   0.000000
     67       0.000000   0.000000   0.000000   0.000000   0.000000   0.000000
     68       0.000000   0.000000   0.000000   0.000000   0.000000   0.000000
     69       0.000000   0.000000   0.000000   0.000000   0.000000   0.000000
     70       0.000000   0.000000   0.000000   0.000000   0.000000   0.000000
     71       0.000000   0.000000   0.000000   0.000000   0.000000   0.000000
     72       0.000000   0.000000   0.000000   0.000000   0.000000   0.000000
     73       0.000000   0.000000   0.000000   0.000000   0.000000   0.000000
     74       0.000000   0.000000   0.000000   0.000000   0.000000   0.000000
     75       0.000000   0.000000   0.000000   0.000000   0.000000   0.000000
     76       0.000000   0.000000   0.000000   0.000000   0.000000   0.000000
     77       0.000000   0.000000   0.000000   0.000000   0.000000   0.000000
     78       0.000000   0.000000   0.000000   0.000000   0.000000   0.000000
     79       0.000000   0.000000   0.000000   0.000000   0.000000   0.000000
     80       0.000000   0.000000   0.000000   0.000000   0.000000   0.000000
     81       0.000000   0.000000   0.000000   0.000000   0.000000   0.000000
     82       0.000000   0.000000   0.000000   0.000000   0.000000   0.000000
     83       0.000000   0.000000   0.000000   0.000000   0.000000   0.000000
     84       0.000000   0.000000   0.000000   0.000000   0.000000   0.000000
     85       0.000000   0.000000   0.000000   0.000000   0.000000   0.000000
     86       0.000000   0.000000   0.000000   0.000000   0.000000   0.000000
     87       0.000000   0.000000   0.000000   0.000000   0.000000   0.000000
     88       0.000000   0.000000   0.000000   0.000000   0.000000   0.000000
     89       0.000000   0.000000   0.000000   0.000000   0.000000   0.000000
     90       0.000000   0.000000   0.000000   0.000000   0.000000   0.000000
     91       0.000000   0.000000   0.000000   0.000000   0.000000   0.000000
     92       0.000000   0.000000   0.000000   0.000000   0.000000   0.000000
     93       0.000000   0.000000   0.000000   0.000000   0.000000   0.000000
     94       0.000000   0.000000   0.000000   0.000000   0.000000   0.000000
     95       0.000000   0.000000   0.000000   0.000000   0.000000   0.000000
     96       0.000000   0.000000   0.000000   0.000000   0.000000   0.000000
     97       0.000000   0.000000   0.000000   0.000000   0.000000   0.000000
     98       0.000000   0.000000   0.000000   0.000000   0.000000   0.000000
     99       0.000000   0.000000   0.000000   0.000000   0.000000   0.000000
    100       0.000000   0.000000   0.000000   0.000000   0.000000   0.000000
    101       0.000000   0.000000   0.000000   0.000000   0.000000   0.000000
    102       0.000000   0.000000   0.000000   0.000000   0.000000   0.000000
    103       0.000000   0.000000   0.000000   0.000000   0.000000   0.000000
    104       0.000000   0.000000   0.000000   0.000000   0.000000   0.000000
    105       0.000000   0.000000   0.000000   0.000000   0.000000   0.000000
    106       0.000000   0.000000   0.000000   0.000000   0.000000   0.000000
    107       0.000000   0.000000   0.000000   0.000000   0.000000   0.000000
    108       0.000000   0.000000   0.000000   0.000000   0.000000   0.000000
    109       0.000000   0.000000   0.000000   0.000000   0.000000   0.000000
    110       0.000000   0.000000   0.000000   0.000000   0.000000   0.000000
    111       0.000000   0.000000   0.000000   0.000000   0.000000   0.000000
    112       0.000000   0.000000   0.000000   0.000000   0.000000   0.000000
    113       0.000000   0.000000   0.000000   0.000000   0.000000   0.000000
    114       0.000000   0.000000   0.000000   0.000000   0.000000   0.000000
    115       0.000000   0.000000   0.000000   0.000000   0.000000   0.000000
    116       0.000000   0.000000   0.000000   0.000000   0.000000   0.000000
    117       0.000000   0.000000   0.000000   0.000000   0.000000   0.000000
    118       0.000000   0.000000   0.000000   0.000000   0.000000   0.000000
    119       0.000000   0.000000   0.000000   0.000000   0.000000   0.000000
    120       0.000000   0.000000   0.000000   0.000000   0.000000   0.000000
    121       0.000000   0.000000   0.000000   0.000000   0.000000   0.000000
    122       0.000000   0.000000   0.000000   0.000000   0.000000   0.000000
    123       0.000000   0.000000   0.000000   0.000000   0.000000   0.000000
    124       0.000000   0.000000   0.000000   0.000000   0.000000   0.000000
    125       0.000000   0.000000   0.000000   0.000000   0.000000   0.000000
    126       0.000000   0.000000   0.000000   0.000000   0.000000   0.000000
    127       0.000000   0.000000   0.000000   0.000000   0.000000   0.000000
    128       0.000000   0.000000   0.000000   0.000000   0.000000   0.000000
    129       0.000000   0.000000   0.000000   0.000000   0.000000   0.000000
    130       0.000000   0.000000   0.000000   0.000000   0.000000   0.000000
    131       0.000000   0.000000   0.000000   0.000000   0.000000   0.000000
    132       0.000000   0.000000   0.000000   0.000000   0.000000   0.000000
    133       0.000000   0.000000   0.000000   0.000000   0.000000   0.000000
    134       0.000000   0.000000   0.000000   0.000000   0.000000   0.000000
    135       0.000000   0.000000   0.000000   0.000000   0.000000   0.000000
    136       0.000000   0.000000   0.000000   0.000000   0.000000   0.000000
    137       0.000000   0.000000   0.000000   0.000000   0.000000   0.000000
                  6          7          8          9         10         11    
      0       0.000659   0.011853   0.049603  -0.146573   0.038529   0.003376
      1       0.000380   0.180427  -0.034336   0.012639   0.063125  -0.062585
      2      -0.000528   0.064768  -0.043076   0.073464  -0.044329  -0.004357
      3       0.001850   0.014443   0.048258  -0.081964   0.003419  -0.029353
      4       0.001467   0.126353  -0.010513  -0.019317   0.016472  -0.049735
      5      -0.000952   0.046725  -0.034900   0.090896  -0.076557  -0.015095
      6      -0.003483   0.019239   0.045612  -0.022117  -0.020201  -0.039716
      7      -0.000355   0.091470   0.006311  -0.019869  -0.006691  -0.005427
      8       0.001921   0.014398  -0.018903   0.040955  -0.074721   0.028721
      9      -0.002032   0.023411   0.044222  -0.032575  -0.005939  -0.019438
     10      -0.001159   0.122399  -0.006165   0.013785   0.020232   0.024770
     11       0.000356   0.006377  -0.015996  -0.023795  -0.041042   0.088568
     12      -0.000785   0.021512   0.045502  -0.097918   0.028891   0.011812
     13       0.000350   0.178266  -0.030976   0.045184   0.065225   0.009854
     14       0.000670   0.026118  -0.024710  -0.041466  -0.009519   0.098056
     15       0.000742   0.014433   0.048823  -0.155253   0.051686   0.023305
     16      -0.000126   0.204361  -0.043436   0.043819   0.087273  -0.034351
     17      -0.000414   0.053129  -0.037610   0.007258  -0.011627   0.052606
     18      -0.000081   0.011455   0.048740  -0.076325  -0.007013  -0.044470
     19       0.000261   0.105879  -0.003387  -0.045958  -0.002004  -0.073126
     20       0.000305   0.055533  -0.039927   0.141710  -0.101615  -0.055781
     21       0.001208   0.025123   0.044178   0.008991  -0.022290  -0.031239
     22       0.001877   0.094722   0.006535   0.012252   0.003979   0.057660
     23       0.001035  -0.015980  -0.006248  -0.058967  -0.039984   0.122920
     24      -0.000480   0.010694   0.050520  -0.203915   0.077339   0.046907
     25       0.000344   0.241544  -0.059871   0.066265   0.120271  -0.046200
     26      -0.001157   0.064916  -0.042816  -0.006545   0.011976   0.059025
     27      -0.001621   0.043844   0.057149   0.069257  -0.033670  -0.017120
     28       0.051963   0.012006   0.015335  -0.099114  -0.049548  -0.067319
     29       0.005351  -0.047358   0.008229   0.048793  -0.110764  -0.062360
     30       0.476075   0.047014   0.074553   0.075708  -0.059929   0.064137
     31      -0.805984  -0.020156   0.018926  -0.097466  -0.051732   0.004487
     32      -0.055014  -0.040366   0.058474   0.088064   0.003651  -0.037013
     33       0.009437   0.034055   0.056730   0.020622  -0.032695  -0.054629
     34       0.017395  -0.015868  -0.014582  -0.043241  -0.059667  -0.113315
     35      -0.008030  -0.061756   0.002065   0.008254  -0.111545  -0.109916
     36       0.020143   0.046978   0.106157   0.001474  -0.056799  -0.055771
     37       0.009818  -0.019595  -0.041829  -0.034674  -0.042754  -0.103581
     38      -0.038198  -0.081555   0.012915   0.016567  -0.139754  -0.164465
     39       0.002277   0.024521   0.049340  -0.027319  -0.021534  -0.086635
     40       0.003344  -0.023999   0.026547  -0.026890  -0.104019  -0.151636
     41      -0.002673  -0.056674   0.008457   0.036013  -0.119764  -0.093449
     42      -0.030271   0.051018   0.054556   0.103736  -0.026378   0.008590
     43       0.144086   0.026014  -0.002577  -0.131400  -0.069040  -0.079206
     44       0.060003  -0.046168   0.003989   0.020193  -0.120823  -0.079378
     45       0.006066   0.009732   0.069632   0.085363  -0.091799   0.136608
     46       0.026314  -0.028992   0.038799  -0.090079  -0.078358   0.074139
     47       0.013336  -0.030992   0.081834   0.082274   0.126931  -0.048207
     48       0.003952  -0.016056   0.080101   0.102361  -0.141744   0.200031
     49       0.030221  -0.004431   0.048965  -0.094253  -0.052732   0.061479
     50       0.040324  -0.009047   0.099137   0.083708   0.136801  -0.037716
     51      -0.071822   0.043483   0.074193   0.086464  -0.117790   0.087415
     52       0.248781  -0.044322   0.055206  -0.079940  -0.054159   0.115911
     53       0.070769  -0.049165   0.056074   0.067726   0.121694  -0.053064
     54       0.002723  -0.025687   0.017610   0.064935  -0.018921   0.097639
     55       0.003713  -0.091639   0.024432  -0.072501  -0.116427   0.102219
     56      -0.008623  -0.028943   0.061587   0.065215   0.186355  -0.077129
     57       0.011544  -0.030112   0.046647   0.090464   0.075478   0.050354
     58      -0.006796  -0.119874   0.018009  -0.063034  -0.129262   0.107773
     59      -0.013711  -0.075788   0.066237   0.093223   0.213195  -0.091806
     60      -0.020931  -0.025543  -0.003735   0.048565  -0.069608   0.119994
     61       0.013621  -0.089132  -0.028689  -0.111879  -0.171593   0.116344
     62       0.044482  -0.025770   0.026172   0.041361   0.251080  -0.126724
     63      -0.057077   0.025057   0.042077   0.048169  -0.053547  -0.081875
     64      -0.032405   0.015601   0.037590  -0.076058  -0.029044  -0.010089
     65      -0.026923  -0.010031  -0.007160   0.048774  -0.095625   0.003569
     66       0.057449   0.008619   0.029927   0.034683  -0.076259  -0.140418
     67       0.023839  -0.012213   0.042837  -0.106837  -0.035804  -0.034588
     68       0.021612   0.027950  -0.031576   0.091041  -0.111682  -0.027128
     69       0.012742   0.036187   0.045514   0.090575  -0.071606  -0.097488
     70      -0.042673  -0.003877   0.066699  -0.069948  -0.015130   0.029892
     71      -0.004155  -0.034116   0.010075   0.011635  -0.067600   0.044913
     72      -0.000999  -0.057143  -0.064083   0.027455  -0.006632   0.046928
     73       0.000838  -0.123523   0.092011  -0.007995  -0.046135   0.087564
     74       0.003581   0.037599   0.079829   0.038230   0.101581  -0.006534
     75       0.001900  -0.051656  -0.076578   0.023019  -0.023336   0.050461
     76      -0.004025  -0.092494   0.089001  -0.033684  -0.091976   0.123426
     77      -0.005148   0.085385   0.069011  -0.001608   0.025689   0.048448
     78       0.001783  -0.057264  -0.049725   0.033388   0.001939   0.048746
     79       0.000611  -0.126530   0.140799   0.024004  -0.020003   0.098702
     80      -0.004249   0.031415   0.137636   0.089084   0.127727   0.011234
     81      -0.007028   0.018452  -0.002419   0.056105  -0.005827  -0.032782
     82       0.000530  -0.031820  -0.072442  -0.005066  -0.038420  -0.093850
     83       0.007589  -0.053502  -0.027081  -0.089483  -0.044089  -0.103668
     84      -0.000611   0.005239  -0.057873   0.084169   0.022798   0.001994
     85       0.002826  -0.026149  -0.048414  -0.014093  -0.048378  -0.098184
     86      -0.000532  -0.045816  -0.001121  -0.122701  -0.075376  -0.189616
     87       0.001340   0.018772   0.030143   0.092959  -0.072871  -0.096880
     88       0.000482  -0.030945  -0.090373  -0.038093  -0.027017  -0.134137
     89      -0.000231  -0.053679  -0.044836  -0.109998  -0.008053  -0.071209
     90      -0.000308   0.024017   0.044695  -0.104084   0.038153   0.025343
     91       0.001196   0.197615  -0.039038   0.069895   0.081346   0.031016
     92       0.001192   0.018594  -0.020631  -0.092217   0.015886   0.138135
     93      -0.000678   0.006937   0.051139  -0.188112   0.054030   0.013742
     94       0.001372   0.200893  -0.044419   0.012031   0.078892  -0.093953
     95       0.000019   0.085881  -0.052788   0.109595  -0.045001  -0.039355
     96       0.001396  -0.092473  -0.148176  -0.013182   0.019135  -0.040879
     97       0.000578  -0.194222   0.100476   0.052033   0.066840  -0.001984
     98       0.000642   0.044905   0.034848  -0.004465   0.074772  -0.016146
     99      -0.001440  -0.089948  -0.149071  -0.014328   0.035953  -0.052921
    100      -0.000847  -0.224384   0.104165   0.078038   0.116761  -0.043638
    101      -0.000431   0.001479   0.039800   0.033486   0.157515  -0.084136
    102      -0.001080  -0.096226  -0.153436  -0.015387   0.010835  -0.040864
    103      -0.000969  -0.197317   0.066544   0.025600   0.039649  -0.011247
    104      -0.000811   0.051520  -0.021278  -0.055010   0.044511  -0.036902
    105      -0.002872   0.021819  -0.031391   0.008530   0.076695   0.047281
    106       0.001502  -0.055551  -0.142318   0.094562  -0.021083   0.008620
    107       0.001675  -0.055292  -0.067776  -0.116819   0.036270  -0.011682
    108      -0.000986   0.022567  -0.063285  -0.024013   0.151825   0.127975
    109       0.000550  -0.058061  -0.134214   0.111781  -0.050205  -0.019737
    110       0.002183  -0.055699  -0.050527  -0.098842  -0.004585  -0.055282
    111      -0.000919   0.032909   0.018122  -0.030993   0.034946  -0.046460
    112      -0.000529  -0.059752  -0.161821   0.110142  -0.004080   0.046724
    113      -0.000035  -0.063827  -0.100294  -0.090866   0.060469   0.043664
    114       0.000121  -0.120646  -0.217683  -0.047407   0.028897  -0.118460
    115       0.000480  -0.216269   0.148345   0.110102   0.149551  -0.027758
    116       0.001312   0.097792   0.060611  -0.027764  -0.020086   0.093817
    117       0.000207  -0.124096  -0.208632  -0.036514   0.048842  -0.125809
    118      -0.000353  -0.219605   0.184660   0.143307   0.187822  -0.023708
    119      -0.000256   0.102402   0.100281   0.000229  -0.011195   0.124559
    120      -0.000170  -0.143634  -0.263033  -0.064944   0.049951  -0.183565
    121       0.001414  -0.245540   0.140552   0.128036   0.198507  -0.082714
    122       0.001459   0.095323   0.038192  -0.043822  -0.025613   0.077043
    123      -0.000020  -0.112650  -0.229127  -0.064495  -0.006958  -0.100571
    124      -0.000312  -0.198857   0.152510   0.098967   0.119947   0.005016
    125      -0.000778   0.130475   0.061003  -0.055319  -0.087928   0.156877
    126      -0.002109   0.010002  -0.081801   0.058142   0.115353   0.147648
    127       0.000242  -0.067828  -0.192166   0.145877   0.013301   0.105160
    128       0.001383  -0.045555  -0.087604  -0.197915   0.137475   0.065877
    129      -0.003888   0.013794  -0.087171   0.024181   0.150967   0.169175
    130       0.002456  -0.078987  -0.220937   0.204480   0.008026   0.149465
    131       0.001163  -0.044707  -0.099051  -0.214785   0.168119   0.095345
    132       0.000006   0.000854  -0.125490   0.094280   0.154901   0.238891
    133       0.000386  -0.064334  -0.173593   0.132902  -0.006131   0.064449
    134      -0.000522  -0.041520  -0.080748  -0.217517   0.146755   0.063480
    135       0.000273   0.007529  -0.066997   0.089767   0.066930   0.105215
    136       0.000201  -0.068001  -0.215380   0.135390   0.062427   0.169713
    137      -0.000664  -0.044145  -0.097055  -0.216677   0.167440   0.092914
                 12         13         14         15         16         17    
      0       0.034116   0.001461  -0.089769   0.021170  -0.030119   0.011620
      1       0.166939  -0.044323  -0.130386   0.020946  -0.024172  -0.001265
      2       0.099400  -0.040464  -0.004797  -0.024486   0.011847   0.004398
      3       0.054477  -0.017026  -0.004000  -0.016882  -0.018863   0.007065
      4       0.211324   0.034399  -0.002735   0.043280  -0.004511   0.016535
      5       0.124213  -0.020024   0.077415  -0.032411   0.022178   0.008666
      6      -0.003617  -0.034715   0.065087  -0.052722  -0.007820   0.000034
      7       0.035536   0.079448   0.101762   0.035462   0.006938   0.015399
      8       0.028187   0.031290   0.104290  -0.008076   0.021694   0.013417
      9      -0.077062  -0.033465   0.059170  -0.053255  -0.008461  -0.001237
     10      -0.183485   0.050903   0.118429   0.003100   0.008569   0.003347
     11      -0.085663   0.064899   0.076556   0.021513   0.027096   0.020207
     12      -0.096440  -0.013494  -0.022930  -0.015364  -0.019644   0.003254
     13      -0.225994  -0.026040   0.003048  -0.022803  -0.007004  -0.013562
     14      -0.109577   0.047552  -0.002680   0.030711   0.016896   0.016527
     15      -0.043659   0.002473  -0.101906   0.021387  -0.031759   0.008559
     16      -0.055995  -0.076326  -0.138935  -0.012627  -0.029666  -0.018921
     17      -0.019041  -0.006787  -0.048282   0.007053   0.009283   0.007588
     18       0.110991  -0.019247   0.004389  -0.018950  -0.016171   0.008646
     19       0.358375   0.054364   0.000172   0.062770  -0.002300   0.025707
     20       0.213348  -0.046686   0.110894  -0.057883   0.029458   0.006063
     21      -0.106960  -0.052183   0.101112  -0.082397  -0.006166  -0.008335
     22      -0.297475   0.083165   0.189070   0.002488   0.015677   0.002864
     23      -0.147884   0.105022   0.095726   0.045541   0.030162   0.025519
     24      -0.058167   0.015560  -0.166290   0.048733  -0.039749   0.011001
     25      -0.089995  -0.135876  -0.245173  -0.029309  -0.048216  -0.034689
     26      -0.038182  -0.022904  -0.116097   0.013020  -0.001020   0.002915
     27       0.007187   0.018508   0.071316   0.018862  -0.016540   0.005439
     28       0.023267   0.047279   0.110985  -0.021831  -0.003071   0.002650
     29      -0.044047   0.018445  -0.055939   0.005312  -0.088407  -0.013801
     30       0.034139   0.158038   0.024315   0.122393  -0.053271  -0.012234
     31       0.026753  -0.068801   0.026705  -0.138805   0.059419  -0.015778
     32      -0.030860  -0.033183  -0.035917   0.022523  -0.068482   0.012490
     33      -0.017121   0.017892   0.005559   0.069794  -0.019949   0.021767
     34      -0.021664   0.035325   0.041428  -0.041846  -0.026995  -0.010272
     35      -0.077885   0.014443  -0.144074   0.044915  -0.105658  -0.004980
     36      -0.007933   0.033795   0.027559   0.068413  -0.178397   0.044853
     37      -0.019659   0.025860   0.042208  -0.045169   0.079093  -0.026333
     38      -0.121653   0.016507  -0.228016   0.065468  -0.264896   0.022170
     39      -0.037844   0.018901  -0.057121   0.109511  -0.009153   0.031100
     40      -0.050268   0.050503  -0.006521  -0.029058  -0.271625   0.025925
     41      -0.067265   0.015287  -0.110167   0.023511  -0.124792  -0.007981
     42       0.028220   0.003374   0.134311  -0.031844   0.001562  -0.001901
     43       0.044953   0.052976   0.173085  -0.023272   0.024560   0.006039
     44      -0.047689   0.028112  -0.065463   0.030665  -0.088963  -0.008771
     45       0.027019   0.079495  -0.087063   0.016426  -0.021179  -0.025027
     46       0.037562  -0.019617  -0.013550  -0.088893   0.033048  -0.003511
     47      -0.003108  -0.047775   0.015980   0.045441  -0.024564   0.010215
     48       0.008227  -0.009122  -0.181105  -0.068725  -0.023190   0.004901
     49       0.047038   0.027700  -0.003925  -0.089490   0.036045  -0.016987
     50       0.001490  -0.017193  -0.010622   0.013686  -0.024199   0.005967
     51       0.017670   0.147656  -0.047968   0.070360  -0.066320  -0.021429
     52       0.036226  -0.096391  -0.069942  -0.172750   0.062419   0.001066
     53       0.004488  -0.050519   0.052166   0.069143  -0.009088   0.004451
     54       0.040343   0.084464  -0.074132  -0.000818   0.022412  -0.059611
     55       0.012481  -0.163042  -0.039763  -0.099754   0.029345   0.038390
     56       0.013243  -0.012428   0.031892   0.027952   0.008218  -0.023055
     57       0.051109   0.123119   0.012392   0.182394   0.017788  -0.213851
     58      -0.000465  -0.222312  -0.046907  -0.099808   0.024059   0.057853
     59      -0.001251  -0.085797   0.064253   0.122211  -0.002993  -0.070722
     60       0.032996   0.058513  -0.123004  -0.112044   0.027238   0.029234
     61       0.009820  -0.163375  -0.107835  -0.280447   0.047129   0.166228
     62       0.032941   0.068103   0.061360   0.039543   0.030779  -0.073429
     63      -0.015647  -0.057839   0.064462  -0.073986  -0.028262  -0.011791
     64       0.038305   0.105108   0.055531   0.046605  -0.019496   0.006130
     65       0.019074   0.033838   0.081493  -0.008103  -0.006971   0.002859
     66      -0.044035  -0.105542   0.063851  -0.120309  -0.035472  -0.019388
     67       0.021225   0.107792   0.031585   0.052949  -0.035902   0.001331
     68       0.013858  -0.015005   0.132994  -0.062195   0.004726   0.003869
     69      -0.032233  -0.059570   0.039040  -0.071644  -0.063151  -0.018501
     70       0.038888   0.161197  -0.015722   0.117212  -0.051724   0.003071
     71       0.032439   0.069404   0.061595   0.038493   0.006102   0.010077
     72       0.038150   0.082826  -0.086758  -0.099846   0.037028   0.002909
     73       0.006515  -0.209672   0.037744   0.130542   0.004035  -0.108077
     74       0.022970   0.033557  -0.037125  -0.107882   0.021084   0.063325
     75       0.035921   0.173552  -0.172772  -0.317597   0.043794   0.256713
     76       0.012548  -0.250234   0.044455   0.159181   0.014421  -0.204346
     77       0.030588   0.018146  -0.071617  -0.177342   0.040423   0.050946
     78       0.039645   0.035723  -0.037949   0.029776   0.031205  -0.141119
     79       0.007713  -0.252685   0.093736   0.307425  -0.005477  -0.276840
     80       0.019558   0.109481  -0.088133  -0.179222   0.017934   0.212830
     81      -0.023049  -0.007014  -0.019491   0.079325   0.164341   0.003214
     82      -0.029384   0.016329   0.011777  -0.038258   0.137414  -0.033053
     83      -0.057849   0.014159  -0.129873   0.057343   0.111653  -0.033332
     84      -0.023772  -0.021840  -0.043934   0.093278   0.296117  -0.006873
     85      -0.027447   0.025503   0.026253  -0.043370   0.036053  -0.011492
     86      -0.067719   0.007106  -0.142350   0.048729   0.333112  -0.142077
     87      -0.044892  -0.006300  -0.055642   0.085697   0.191947  -0.053302
     88      -0.031094   0.003695  -0.003234  -0.035848   0.418772  -0.123054
     89      -0.046234   0.012421  -0.110596   0.052392   0.107445  -0.007093
     90      -0.149430  -0.011924  -0.028138  -0.014945  -0.020369   0.001565
     91      -0.383254  -0.046496   0.013131  -0.047735  -0.004883  -0.024005
     92      -0.194427   0.072470  -0.035356   0.054824   0.012241   0.019281
     93       0.077249   0.014788  -0.142511   0.048791  -0.034704   0.017328
     94       0.294629  -0.078818  -0.222511   0.028885  -0.036984  -0.002886
     95       0.167277  -0.081446  -0.034565  -0.042922   0.005628  -0.001962
     96       0.031888   0.016859  -0.010562  -0.033126   0.016247  -0.063243
     97      -0.007099  -0.106764   0.022084   0.049359  -0.020334   0.121981
     98       0.025241  -0.044874   0.006197  -0.047071   0.022813  -0.056276
     99       0.037927   0.080701  -0.007686  -0.055141   0.052501  -0.320087
    100      -0.013262  -0.056435   0.016262   0.011162  -0.032558   0.223381
    101       0.019333   0.063397  -0.000697  -0.114304   0.023615  -0.041042
    102       0.027306  -0.027357  -0.005430  -0.014207  -0.008199   0.086538
    103      -0.014145  -0.219403   0.057821   0.118147  -0.063065   0.303079
    104       0.026032  -0.136539   0.067350   0.037691   0.016590  -0.199507
    105       0.010552  -0.005557   0.053073   0.060769   0.101131   0.075823
    106      -0.034912   0.012848  -0.051095   0.007167   0.027735   0.042053
    107      -0.028391   0.014863  -0.076786   0.040601   0.025716   0.044598
    108       0.042611  -0.004964   0.122704   0.027923   0.021684   0.119385
    109      -0.061153   0.021703  -0.118077   0.084509   0.073406   0.195554
    110      -0.046101   0.015140  -0.115335   0.060278   0.068384   0.026184
    111      -0.009781   0.002317   0.038935   0.082479   0.210099   0.131107
    112      -0.024580   0.008085  -0.039903  -0.010743  -0.019648  -0.005296
    113      -0.030727   0.019335  -0.106861   0.090469  -0.019604   0.187099
    114       0.019928  -0.077740   0.070514   0.058500  -0.039187   0.032646
    115      -0.002521   0.098127  -0.035650  -0.092155   0.030126  -0.033356
    116       0.033573  -0.159624  -0.020545   0.000748   0.030737   0.002718
    117       0.022675  -0.016407   0.056454   0.017088  -0.017618  -0.069604
    118       0.003791   0.227411  -0.082994  -0.189396   0.075278  -0.178986
    119       0.036721  -0.110143  -0.064974  -0.050941   0.047382   0.051588
    120       0.012322  -0.101043   0.123657   0.100850  -0.068375   0.031579
    121      -0.009521   0.145258  -0.023250  -0.109315   0.010207   0.044434
    122       0.031823  -0.189155   0.004635   0.030398   0.021559  -0.025265
    123       0.015804  -0.179698   0.090222   0.125678  -0.073627   0.205858
    124       0.001556   0.068209  -0.042607  -0.081219   0.041724  -0.078639
    125       0.037945  -0.264427  -0.021040   0.055289   0.030763   0.023795
    126       0.031571  -0.015662   0.063946   0.046625  -0.017696   0.008895
[...]
  13:       141.81    0.000000  (  0.000000   0.000000   0.000000)
  14:       151.87    0.000000  (  0.000000   0.000000   0.000000)
  15:       166.24    0.000000  (  0.000000   0.000000   0.000000)
  16:       172.26    0.000000  (  0.000000   0.000000   0.000000)
  17:       183.19    0.000000  (  0.000000   0.000000   0.000000)
  18:       185.91    0.000000  (  0.000000   0.000000   0.000000)
  19:       191.47    0.000000  (  0.000000   0.000000   0.000000)
  20:       221.77    0.000000  (  0.000000   0.000000   0.000000)
  21:       235.79    0.000000  (  0.000000   0.000000   0.000000)
  22:       242.64    0.000000  (  0.000000   0.000000   0.000000)
  23:       253.82    0.000000  (  0.000000   0.000000   0.000000)
  24:       285.44    0.000000  (  0.000000   0.000000   0.000000)
  25:       347.65    0.000000  (  0.000000   0.000000   0.000000)
  26:       357.09    0.000000  (  0.000000   0.000000   0.000000)
  27:       378.46    0.000000  (  0.000000   0.000000   0.000000)
  28:       387.35    0.000000  (  0.000000   0.000000   0.000000)
  29:       394.71    0.000000  (  0.000000   0.000000   0.000000)
  30:       403.61    0.000000  (  0.000000   0.000000   0.000000)
  31:       410.17    0.000000  (  0.000000   0.000000   0.000000)
  32:       437.64    0.000000  (  0.000000   0.000000   0.000000)
  33:       492.15    0.000000  (  0.000000   0.000000   0.000000)
  34:       504.69    0.000000  (  0.000000   0.000000   0.000000)
  35:       583.50    0.000000  (  0.000000   0.000000   0.000000)
  36:       590.78    0.000000  (  0.000000   0.000000   0.000000)
  37:       631.32    0.000000  (  0.000000   0.000000   0.000000)
  38:       647.85    0.000000  (  0.000000   0.000000   0.000000)
  39:       678.58    0.000000  (  0.000000   0.000000   0.000000)
  40:       739.33    0.000000  (  0.000000   0.000000   0.000000)
  41:       782.45    0.000000  (  0.000000   0.000000   0.000000)
  42:       793.92    0.000000  (  0.000000   0.000000   0.000000)
  43:       803.34    0.000000  (  0.000000   0.000000   0.000000)
  44:       825.72    0.000000  (  0.000000   0.000000   0.000000)
  45:       848.15    0.000000  (  0.000000   0.000000   0.000000)
  46:       852.52    0.000000  (  0.000000   0.000000   0.000000)
  47:       898.10    0.000000  (  0.000000   0.000000   0.000000)
  48:       908.54    0.000000  (  0.000000   0.000000   0.000000)
  49:       926.49    0.000000  (  0.000000   0.000000   0.000000)
  50:       935.28    0.000000  (  0.000000   0.000000   0.000000)
  51:       947.18    0.000000  (  0.000000   0.000000   0.000000)
  52:       948.79    0.000000  (  0.000000   0.000000   0.000000)
  53:       954.38    0.000000  (  0.000000   0.000000   0.000000)
  54:       955.59    0.000000  (  0.000000   0.000000   0.000000)
  55:       966.59    0.000000  (  0.000000   0.000000   0.000000)
  56:       968.50    0.000000  (  0.000000   0.000000   0.000000)
  57:       971.51    0.000000  (  0.000000   0.000000   0.000000)
  58:      1009.28    0.000000  (  0.000000   0.000000   0.000000)
  59:      1028.32    0.000000  (  0.000000   0.000000   0.000000)
  60:      1042.41    0.000000  (  0.000000   0.000000   0.000000)
  61:      1051.25    0.000000  (  0.000000   0.000000   0.000000)
  62:      1061.27    0.000000  (  0.000000   0.000000   0.000000)
  63:      1064.72    0.000000  (  0.000000   0.000000   0.000000)
  64:      1075.34    0.000000  (  0.000000   0.000000   0.000000)
  65:      1092.33    0.000000  (  0.000000   0.000000   0.000000)
  66:      1095.87    0.000000  (  0.000000   0.000000   0.000000)
  67:      1101.72    0.000000  (  0.000000   0.000000   0.000000)
  68:      1120.76    0.000000  (  0.000000   0.000000   0.000000)
  69:      1131.95    0.000000  (  0.000000   0.000000   0.000000)
  70:      1135.91    0.000000  (  0.000000   0.000000   0.000000)
  71:      1165.03    0.000000  (  0.000000   0.000000   0.000000)
  72:      1180.28    0.000000  (  0.000000   0.000000   0.000000)
  73:      1191.47    0.000000  (  0.000000   0.000000   0.000000)
  74:      1200.79    0.000000  (  0.000000   0.000000   0.000000)
  75:      1211.57    0.000000  (  0.000000   0.000000   0.000000)
  76:      1224.53    0.000000  (  0.000000   0.000000   0.000000)
  77:      1238.53    0.000000  (  0.000000   0.000000   0.000000)
  78:      1243.57    0.000000  (  0.000000   0.000000   0.000000)
  79:      1253.74    0.000000  (  0.000000   0.000000   0.000000)
  80:      1274.12    0.000000  (  0.000000   0.000000   0.000000)
  81:      1275.13    0.000000  (  0.000000   0.000000   0.000000)
  82:      1282.97    0.000000  (  0.000000   0.000000   0.000000)
  83:      1284.52    0.000000  (  0.000000   0.000000   0.000000)
  84:      1287.90    0.000000  (  0.000000   0.000000   0.000000)
  85:      1289.93    0.000000  (  0.000000   0.000000   0.000000)
  86:      1306.68    0.000000  (  0.000000   0.000000   0.000000)
  87:      1317.67    0.000000  (  0.000000   0.000000   0.000000)
  88:      1344.22    0.000000  (  0.000000   0.000000   0.000000)
  89:      1351.14    0.000000  (  0.000000   0.000000   0.000000)
  90:      1374.38    0.000000  (  0.000000   0.000000   0.000000)
  91:      1375.51    0.000000  (  0.000000   0.000000   0.000000)
  92:      1406.40    0.000000  (  0.000000   0.000000   0.000000)
  93:      1408.21    0.000000  (  0.000000   0.000000   0.000000)
  94:      1434.57    0.000000  (  0.000000   0.000000   0.000000)
  95:      1434.70    0.000000  (  0.000000   0.000000   0.000000)
  96:      1440.97    0.000000  (  0.000000   0.000000   0.000000)
  97:      1479.15    0.000000  (  0.000000   0.000000   0.000000)
  98:      1486.12    0.000000  (  0.000000   0.000000   0.000000)
  99:      1495.97    0.000000  (  0.000000   0.000000   0.000000)
 100:      1502.79    0.000000  (  0.000000   0.000000   0.000000)
 101:      1504.57    0.000000  (  0.000000   0.000000   0.000000)
 102:      1507.67    0.000000  (  0.000000   0.000000   0.000000)
 103:      1507.86    0.000000  (  0.000000   0.000000   0.000000)
 104:      1508.99    0.000000  (  0.000000   0.000000   0.000000)
 105:      1510.52    0.000000  (  0.000000   0.000000   0.000000)
 106:      1512.57    0.000000  (  0.000000   0.000000   0.000000)
 107:      1514.23    0.000000  (  0.000000   0.000000   0.000000)
 108:      1516.62    0.000000  (  0.000000   0.000000   0.000000)
 109:      1531.35    0.000000  (  0.000000   0.000000   0.000000)
 110:      1537.40    0.000000  (  0.000000   0.000000   0.000000)
 111:      2577.07    0.000000  (  0.000000   0.000000   0.000000)
 112:      2735.20    0.000000  (  0.000000   0.000000   0.000000)
 113:      2862.74    0.000000  (  0.000000   0.000000   0.000000)
 114:      2868.84    0.000000  (  0.000000   0.000000   0.000000)
 115:      2873.12    0.000000  (  0.000000   0.000000   0.000000)
 116:      2877.78    0.000000  (  0.000000   0.000000   0.000000)
 117:      2883.59    0.000000  (  0.000000   0.000000   0.000000)
 118:      2897.56    0.000000  (  0.000000   0.000000   0.000000)
 119:      2897.83    0.000000  (  0.000000   0.000000   0.000000)
 120:      2902.03    0.000000  (  0.000000   0.000000   0.000000)
 121:      2903.57    0.000000  (  0.000000   0.000000   0.000000)
 122:      2911.81    0.000000  (  0.000000   0.000000   0.000000)
 123:      2912.60    0.000000  (  0.000000   0.000000   0.000000)
 124:      2913.96    0.000000  (  0.000000   0.000000   0.000000)
 125:      2917.68    0.000000  (  0.000000   0.000000   0.000000)
 126:      2919.79    0.000000  (  0.000000   0.000000   0.000000)
 127:      2921.08    0.000000  (  0.000000   0.000000   0.000000)
 128:      2930.74    0.000000  (  0.000000   0.000000   0.000000)
 129:      2932.78    0.000000  (  0.000000   0.000000   0.000000)
 130:      2946.45    0.000000  (  0.000000   0.000000   0.000000)
 131:      2955.78    0.000000  (  0.000000   0.000000   0.000000)
 132:      2973.93    0.000000  (  0.000000   0.000000   0.000000)
 133:      2978.16    0.000000  (  0.000000   0.000000   0.000000)
 134:      2989.72    0.000000  (  0.000000   0.000000   0.000000)
 135:      2997.94    0.000000  (  0.000000   0.000000   0.000000)
 136:      3254.94    0.000000  (  0.000000   0.000000   0.000000)
 137:      3306.46    0.000000  (  0.000000   0.000000   0.000000)

The first frequency considered to be a vibration is 7
The total number of vibrations considered is 131


--------------------------
THERMOCHEMISTRY AT 298.15K
--------------------------

Temperature         ... 298.15 K
Pressure            ... 1.00 atm
Total Mass          ... 252.40 AMU

Throughout the following assumptions are being made:
  (1) The electronic state is orbitally nondegenerate
  (2) There are no thermally accessible electronically excited states
  (3) Hindered rotations indicated by low frequency modes are not
      treated as such but are treated as vibrations and this may
      cause some error
  (4) All equations used are the standard statistical mechanics
      equations for an ideal gas
  (5) All vibrations are strictly harmonic

freq.      45.09  E(vib)   ...       0.53 
freq.      59.33  E(vib)   ...       0.51 
freq.      72.68  E(vib)   ...       0.49 
freq.      91.96  E(vib)   ...       0.47 
freq.     108.73  E(vib)   ...       0.45 
freq.     117.30  E(vib)   ...       0.44 
freq.     141.81  E(vib)   ...       0.41 
freq.     151.87  E(vib)   ...       0.40 
freq.     166.24  E(vib)   ...       0.39 
freq.     172.26  E(vib)   ...       0.38 
freq.     183.19  E(vib)   ...       0.37 
freq.     185.91  E(vib)   ...       0.37 
freq.     191.47  E(vib)   ...       0.36 
freq.     221.77  E(vib)   ...       0.33 
freq.     235.79  E(vib)   ...       0.32 
freq.     242.64  E(vib)   ...       0.31 
freq.     253.82  E(vib)   ...       0.30 
freq.     285.44  E(vib)   ...       0.28 
freq.     347.65  E(vib)   ...       0.23 
freq.     357.09  E(vib)   ...       0.22 
freq.     378.46  E(vib)   ...       0.21 
freq.     387.35  E(vib)   ...       0.20 
freq.     394.71  E(vib)   ...       0.20 
freq.     403.61  E(vib)   ...       0.19 
freq.     410.17  E(vib)   ...       0.19 
freq.     437.64  E(vib)   ...       0.17 
freq.     492.15  E(vib)   ...       0.14 
freq.     504.69  E(vib)   ...       0.14 
freq.     583.50  E(vib)   ...       0.11 
freq.     590.78  E(vib)   ...       0.10 
freq.     631.32  E(vib)   ...       0.09 
freq.     647.85  E(vib)   ...       0.09 
freq.     678.58  E(vib)   ...       0.08 
freq.     739.33  E(vib)   ...       0.06 
freq.     782.45  E(vib)   ...       0.05 
freq.     793.92  E(vib)   ...       0.05 
freq.     803.34  E(vib)   ...       0.05 
freq.     825.72  E(vib)   ...       0.04 
freq.     848.15  E(vib)   ...       0.04 
freq.     852.52  E(vib)   ...       0.04 
freq.     898.10  E(vib)   ...       0.03 
freq.     908.54  E(vib)   ...       0.03 
freq.     926.49  E(vib)   ...       0.03 
freq.     935.28  E(vib)   ...       0.03 
freq.     947.18  E(vib)   ...       0.03 
freq.     948.79  E(vib)   ...       0.03 
freq.     954.38  E(vib)   ...       0.03 
freq.     955.59  E(vib)   ...       0.03 
freq.     966.59  E(vib)   ...       0.03 
freq.     968.50  E(vib)   ...       0.03 
freq.     971.51  E(vib)   ...       0.03 
freq.    1009.28  E(vib)   ...       0.02 
freq.    1028.32  E(vib)   ...       0.02 
freq.    1042.41  E(vib)   ...       0.02 
freq.    1051.25  E(vib)   ...       0.02 
freq.    1061.27  E(vib)   ...       0.02 
freq.    1064.72  E(vib)   ...       0.02 
freq.    1075.34  E(vib)   ...       0.02 
freq.    1092.33  E(vib)   ...       0.02 
freq.    1095.87  E(vib)   ...       0.02 
freq.    1101.72  E(vib)   ...       0.02 
freq.    1120.76  E(vib)   ...       0.01 
freq.    1131.95  E(vib)   ...       0.01 
freq.    1135.91  E(vib)   ...       0.01 
freq.    1165.03  E(vib)   ...       0.01 
freq.    1180.28  E(vib)   ...       0.01 
freq.    1191.47  E(vib)   ...       0.01 
freq.    1200.79  E(vib)   ...       0.01 
freq.    1211.57  E(vib)   ...       0.01 
freq.    1224.53  E(vib)   ...       0.01 
freq.    1238.53  E(vib)   ...       0.01 
freq.    1243.57  E(vib)   ...       0.01 
freq.    1253.74  E(vib)   ...       0.01 
freq.    1274.12  E(vib)   ...       0.01 
freq.    1275.13  E(vib)   ...       0.01 
freq.    1282.97  E(vib)   ...       0.01 
freq.    1284.52  E(vib)   ...       0.01 
freq.    1287.90  E(vib)   ...       0.01 
freq.    1289.93  E(vib)   ...       0.01 
freq.    1306.68  E(vib)   ...       0.01 
freq.    1317.67  E(vib)   ...       0.01 
freq.    1344.22  E(vib)   ...       0.01 
freq.    1351.14  E(vib)   ...       0.01 
freq.    1374.38  E(vib)   ...       0.01 
freq.    1375.51  E(vib)   ...       0.01 
freq.    1406.40  E(vib)   ...       0.00 
freq.    1408.21  E(vib)   ...       0.00 
freq.    1434.57  E(vib)   ...       0.00 
freq.    1434.70  E(vib)   ...       0.00 
freq.    1440.97  E(vib)   ...       0.00 
freq.    1479.15  E(vib)   ...       0.00 
freq.    1486.12  E(vib)   ...       0.00 
freq.    1495.97  E(vib)   ...       0.00 
freq.    1502.79  E(vib)   ...       0.00 
freq.    1504.57  E(vib)   ...       0.00 
freq.    1507.67  E(vib)   ...       0.00 
freq.    1507.86  E(vib)   ...       0.00 
freq.    1508.99  E(vib)   ...       0.00 
freq.    1510.52  E(vib)   ...       0.00 
freq.    1512.57  E(vib)   ...       0.00 
freq.    1514.23  E(vib)   ...       0.00 
freq.    1516.62  E(vib)   ...       0.00 
freq.    1531.35  E(vib)   ...       0.00 
freq.    1537.40  E(vib)   ...       0.00 
freq.    2577.07  E(vib)   ...       0.00 
freq.    2735.20  E(vib)   ...       0.00 
freq.    2862.74  E(vib)   ...       0.00 
freq.    2868.84  E(vib)   ...       0.00 
freq.    2873.12  E(vib)   ...       0.00 
freq.    2877.78  E(vib)   ...       0.00 
freq.    2883.59  E(vib)   ...       0.00 
freq.    2897.56  E(vib)   ...       0.00 
freq.    2897.83  E(vib)   ...       0.00 
freq.    2902.03  E(vib)   ...       0.00 
freq.    2903.57  E(vib)   ...       0.00 
freq.    2911.81  E(vib)   ...       0.00 
freq.    2912.60  E(vib)   ...       0.00 
freq.    2913.96  E(vib)   ...       0.00 
freq.    2917.68  E(vib)   ...       0.00 
freq.    2919.79  E(vib)   ...       0.00 
freq.    2921.08  E(vib)   ...       0.00 
freq.    2930.74  E(vib)   ...       0.00 
freq.    2932.78  E(vib)   ...       0.00 
freq.    2946.45  E(vib)   ...       0.00 
freq.    2955.78  E(vib)   ...       0.00 
freq.    2973.93  E(vib)   ...       0.00 
freq.    2978.16  E(vib)   ...       0.00 
freq.    2989.72  E(vib)   ...       0.00 
freq.    2997.94  E(vib)   ...       0.00 
freq.    3254.94  E(vib)   ...       0.00 
freq.    3306.46  E(vib)   ...       0.00 

------------
INNER ENERGY
------------

The inner energy is: U= E(el) + E(ZPE) + E(vib) + E(rot) + E(trans)
    E(el)   - is the total energy from the electronic structure calculation
              = E(kin-el) + E(nuc-el) + E(el-el) + E(nuc-nuc)
    E(ZPE)  - the the zero temperature vibrational energy from the frequency calculation
    E(vib)  - the the finite temperature correction to E(ZPE) due to population
              of excited vibrational states
    E(rot)  - is the rotational thermal energy
    E(trans)- is the translational thermal energy

Summary of contributions to the inner energy U:
Electronic energy                ...    -56.27315956 Eh
Zero point energy                ...      0.39678360 Eh     248.98 kcal/mol
Thermal vibrational correction   ...      0.01686118 Eh      10.58 kcal/mol
Thermal rotational correction    ...      0.00141627 Eh       0.89 kcal/mol
Thermal translational correction ...      0.00141627 Eh       0.89 kcal/mol
-----------------------------------------------------------------------
Total thermal energy                    -55.85668223 Eh


Summary of corrections to the electronic energy:
(perhaps to be used in another calculation)
Total thermal correction                  0.01969373 Eh      12.36 kcal/mol
Non-thermal (ZPE) correction              0.39678360 Eh     248.98 kcal/mol
-----------------------------------------------------------------------
Total correction                          0.41647733 Eh     261.34 kcal/mol


--------
ENTHALPY
--------

The enthalpy is H = U + kB*T
                kB is Boltzmann's constant
Total free energy                 ...    -55.85668223 Eh 
Thermal Enthalpy correction       ...      0.00094421 Eh       0.59 kcal/mol
-----------------------------------------------------------------------
Total Enthalpy                    ...    -55.85573802 Eh


Note: Only C1 symmetry has been detected, increase convergence thresholds 
      if your molecule has a higher symmetry. Symmetry factor of 1.0 is   
      used for the rotational entropy correction. 
 

Note: Rotational entropy computed according to Herzberg 
Infrared and Raman Spectra, Chapter V,1, Van Nostrand Reinhold, 1945 
Point Group:  C1, Symmetry Number:   1  
Rotational constants in cm-1:     0.011954     0.007302     0.005479 

Vibrational entropy computed according to the QRRHO of S. Grimme
Chem.Eur.J. 2012 18 9955


-------
ENTROPY
-------

The entropy contributions are T*S = T*(S(el)+S(vib)+S(rot)+S(trans))
     S(el)   - electronic entropy
     S(vib)  - vibrational entropy
     S(rot)  - rotational entropy
     S(trans)- translational entropy
The entropies will be listed as mutliplied by the temperature to get
units of energy

Electronic entropy                ...      0.00000000 Eh      0.00 kcal/mol
Vibrational entropy               ...      0.02927502 Eh     18.37 kcal/mol
Rotational entropy                ...      0.01638118 Eh     10.28 kcal/mol
Translational entropy             ...      0.02018250 Eh     12.66 kcal/mol
-----------------------------------------------------------------------
Final entropy term                ...      0.06583871 Eh     41.31 kcal/mol

In case the symmetry of your molecule has not been determined correctly
or in case you have a reason to use a different symmetry number we print 
out the resulting rotational entropy values for sn=1,12 :
 --------------------------------------------------------
|  sn= 1 | S(rot)=       0.01638118 Eh     10.28 kcal/mol|
|  sn= 2 | S(rot)=       0.01572673 Eh      9.87 kcal/mol|
|  sn= 3 | S(rot)=       0.01534389 Eh      9.63 kcal/mol|
|  sn= 4 | S(rot)=       0.01507227 Eh      9.46 kcal/mol|
|  sn= 5 | S(rot)=       0.01486158 Eh      9.33 kcal/mol|
|  sn= 6 | S(rot)=       0.01468944 Eh      9.22 kcal/mol|
|  sn= 7 | S(rot)=       0.01454389 Eh      9.13 kcal/mol|
|  sn= 8 | S(rot)=       0.01441781 Eh      9.05 kcal/mol|
|  sn= 9 | S(rot)=       0.01430661 Eh      8.98 kcal/mol|
|  sn=10 | S(rot)=       0.01420713 Eh      8.92 kcal/mol|
|  sn=11 | S(rot)=       0.01411714 Eh      8.86 kcal/mol|
|  sn=12 | S(rot)=       0.01403498 Eh      8.81 kcal/mol|
 --------------------------------------------------------


-------------------
GIBBS FREE ENERGY
-------------------

The Gibbs free energy is G = H - T*S

Total enthalpy                    ...    -55.85573802 Eh 
Total entropy correction          ...     -0.06583871 Eh    -41.31 kcal/mol
-----------------------------------------------------------------------
Final Gibbs free energy         ...    -55.92157672 Eh

For completeness - the Gibbs free energy minus the electronic energy
G-E(el)                           ...      0.35158283 Eh    220.62 kcal/mol


Total Time for Numerical Frequencies  :       176.589 sec
Time for Reference State(s)           :         0.235 sec
Time for Displacements                :       158.513 sec

Timings for individual modules:

Sum of individual times         ...        0.513 sec (=   0.009 min)
XTB module                      ...        0.513 sec (=   0.009 min) 100.0 %
                             ****ORCA TERMINATED NORMALLY****
TOTAL RUN TIME: 0 days 0 hours 2 minutes 57 seconds 938 msec
(SLURM) EXECUTION TIME: 178.581152397 seconds.
