(SLURM) JOB ID:         162

                                 *****************
                                 * O   R   C   A *
                                 *****************

           --- An Ab Initio, DFT and Semiempirical electronic structure package ---

                  #######################################################
                  #                        -***-                        #
                  #          Department of theory and spectroscopy      #
                  #               Directorship: Frank Neese             #
                  #        Max Planck Institute fuer Kohlenforschung    #
                  #                Kaiser Wilhelm Platz 1               #
                  #                 D-45470 Muelheim/Ruhr               #
                  #                      Germany                        #
                  #                                                     #
                  #                  All rights reserved                #
                  #                        -***-                        #
                  #######################################################


                         Program Version 4.2.1 -  RELEASE  -


 With contributions from (in alphabetic order):
   Daniel Aravena         : Magnetic Suceptibility
   Michael Atanasov       : Ab Initio Ligand Field Theory (pilot matlab implementation)
   Alexander A. Auer      : GIAO ZORA, VPT2
   Ute Becker             : Parallelization
   Giovanni Bistoni       : ED, misc. LED, open-shell LED, HFLD
   Martin Brehm           : Molecular dynamics
   Dmytro Bykov           : SCF Hessian
   Vijay G. Chilkuri      : MRCI spin determinant printing, contributions to CSF-ICE
   Dipayan Datta          : RHF DLPNO-CCSD density
   Achintya Kumar Dutta   : EOM-CC, STEOM-CC
   Dmitry Ganyushin       : Spin-Orbit,Spin-Spin,Magnetic field MRCI
   Miquel Garcia          : C-PCM Hessian, Gaussian charge scheme
   Yang Guo               : DLPNO-NEVPT2, CIM, IAO-localization
   Andreas Hansen         : Spin unrestricted coupled pair/coupled cluster methods
   Benjamin Helmich-Paris : CASSCF linear response (MC-RPA)
   Lee Huntington         : MR-EOM, pCC
   Robert Izsak           : Overlap fitted RIJCOSX, COSX-SCS-MP3, EOM
   Christian Kollmar      : KDIIS, OOCD, Brueckner-CCSD(T), CCSD density
   Simone Kossmann        : Meta GGA functionals, TD-DFT gradient, OOMP2, MP2 Hessian
   Martin Krupicka        : AUTO-CI
   Lucas Lang             : DCDCAS
   Dagmar Lenk            : GEPOL surface, SMD
   Dimitrios Liakos       : Extrapolation schemes; Compound Job, initial MDCI parallelization
   Dimitrios Manganas     : Further ROCIS development; embedding schemes
   Dimitrios Pantazis     : SARC Basis sets
   Taras Petrenko         : DFT Hessian,TD-DFT gradient, ASA, ECA, R-Raman, ABS, FL, XAS/XES, NRVS
   Peter Pinski           : DLPNO-MP2, DLPNO-MP2 Gradient
   Christoph Reimann      : Effective Core Potentials
   Marius Retegan         : Local ZFS, SOC
   Christoph Riplinger    : Optimizer, TS searches, QM/MM, DLPNO-CCSD(T), (RO)-DLPNO pert. Triples
   Tobias Risthaus        : Range-separated hybrids, TD-DFT gradient, RPA, STAB
   Michael Roemelt        : Original ROCIS implementation
   Masaaki Saitow         : Open-shell DLPNO-CCSD energy and density
   Barbara Sandhoefer     : DKH picture change effects
   Avijit Sen             : IP-ROCIS
   Kantharuban Sivalingam : CASSCF convergence, NEVPT2, FIC-MRCI
   Bernardo de Souza      : ESD, SOC TD-DFT
   Georgi Stoychev        : AutoAux, RI-MP2 NMR
   Willem Van den Heuvel  : Paramagnetic NMR
   Boris Wezisla          : Elementary symmetry handling
   Frank Wennmohs         : Technical directorship


 We gratefully acknowledge several colleagues who have allowed us to
 interface, adapt or use parts of their codes:
   Stefan Grimme, W. Hujo, H. Kruse,             : VdW corrections, initial TS optimization,
                  C. Bannwarth                     DFT functionals, gCP, sTDA/sTD-DF
   Ed Valeev, F. Pavosevic, A. Kumar             : LibInt (2-el integral package), F12 methods
   Garnet Chan, S. Sharma, J. Yang, R. Olivares  : DMRG
   Ulf Ekstrom                                   : XCFun DFT Library
   Mihaly Kallay                                 : mrcc  (arbitrary order and MRCC methods)
   Andreas Klamt, Michael Diedenhofen            : otool_cosmo (COSMO solvation model)
   Jiri Pittner, Ondrej Demel                    : Mk-CCSD
   Frank Weinhold                                : gennbo (NPA and NBO analysis)
   Christopher J. Cramer and Donald G. Truhlar   : smd solvation model
   Lars Goerigk                                  : TD-DFT with DH, B97 family of functionals
   V. Asgeirsson, H. Jonsson                     : NEB implementation
   FAccTs GmbH                                   : IRC, NEB, NEB-TS, Multilevel, MM, QM/MM, CI optimization
   S Lehtola, MJT Oliveira, MAL Marques          : LibXC Library


 Your calculation uses the libint2 library for the computation of 2-el integrals
 For citations please refer to: http://libint.valeyev.net

 Your ORCA version has been built with support for libXC version: 4.2.3
 For citations please refer to: https://tddft.org/programs/libxc/

 This ORCA versions uses:
   CBLAS   interface :  Fast vector & matrix operations
   LAPACKE interface :  Fast linear algebra routines
   SCALAPACK package :  Parallel linear algebra routines




***************************************
The coordinates will be read from file: init.xyz
***************************************


Your calculation utilizes the SMD solvation module
Please cite in your paper:
A.V. Marenich, C.J. Cramer, D.G. Truhlar J. Phys. Chem. B, 113, (2009), 6378 

Your calculation utilizes the semiempirical GFN2-xTB method
Please cite in your paper:
C. Bannwarth, Ehlert S., S. Grimme,  J. Chem. Theory Comput., 15, (2019), 1652.
   

----- Orbital basis set information -----
Your calculation utilizes the basis: def2-SVP
   F. Weigend and R. Ahlrichs, Phys. Chem. Chem. Phys. 7, 3297 (2005).

================================================================================
                                        WARNINGS
                       Please study these warnings very carefully!
================================================================================

WARNING: Gradients needed for Numerical Frequencies
  ===> : Setting RunTyp to EnGrad

WARNING: The environment variable RSH_COMMAND is not set!
  ===> : All Displacements for the Numerical Hessian calculation
         will be started on localhost

WARNING: Found dipole moment calculation with XTB calculation
  ===> : Switching off dipole moment calculation


INFO   : the flag for use of LIBINT has been found!

================================================================================
                                       INPUT FILE
================================================================================
NAME = /tmp/slurm-scratch/freq.162/freq.inp
|  1> ! XTB2 NumFreq
|  2> %maxcore 1450
|  3> 
|  4> * xyzfile 0 1 init.xyz
|  5> 
|  6> %cpcm
|  7>  smd true
|  8>  smdsolvent "ch2cl2"
|  9> end
| 10> %pal nprocs 8 end
| 11> 
| 12>                          ****END OF INPUT****
================================================================================

                     *******************************
                     * Energy+Gradient Calculation *
                     *******************************

      -----------------------------------------------------------      
     |                   =====================                   |     
     |                           x T B                           |     
     |                   =====================                   |     
     |                         S. Grimme                         |     
     |          Mulliken Center for Theoretical Chemistry        |     
     |                    University of Bonn                     |     
      -----------------------------------------------------------      

   * xtb version 6.3.0 (preview) compiled by 'ehlert@majestix' on 2020-01-15

   This program is distributed in the hope that it will be useful,
   but WITHOUT ANY WARRANTY; without even the implied warranty of
   MERCHANTABILITY or FITNESS FOR A PARTICULAR PURPOSE.
   
   FOR NON-COMMERCIAL, ACADEMIA USE ONLY.
   
   Cite this work as:
   * S. Grimme, C. Bannwarth, P. Shushkov, J. Chem. Theory Comput., 2017,
     13, 1989-2009. DOI: 10.1021/acs.jctc.7b00118
   * C. Bannwarth, S. Ehlert and S. Grimme., J. Chem. Theory Comput., 2019,
     15, 1652-1671. DOI: 10.1021/acs.jctc.8b01176
   * P. Pracht, E. Caldeweyher, S. Ehlert, S. Grimme, ChemRxiv, 2019, preprint.
     DOI: 10.26434/chemrxiv.8326202.v1
   * S. Grimme, S. Spicher unpublished
   
   for DFT-D4:
   * E. Caldeweyher, C. Bannwarth and S. Grimme, J. Chem. Phys., 2017,
     147, 034112. DOI: 10.1063/1.4993215
   * E. Caldeweyher, S. Ehlert, A. Hansen, H. Neugebauer, S. Spicher,
     C. Bannwarth and S. Grimme, J. Chem. Phys., 2019, 150, 154122.
     DOI: 10.1063/1.5090222
   
   for sTDA-xTB:
   * S. Grimme and C. Bannwarth, J. Chem. Phys., 2016, 145, 054103.
     DOI: 10.1063/1.4959605
   
   in the mass-spec context:
   * V. Asgeirsson, C. Bauer and S. Grimme, Chem. Sci., 2017, 8, 4879.
     DOI: 10.1039/c7sc00601b
   
   for metadynamics refer to:
   * S. Grimme, J. Chem. Theory Comput., 2019, 155, 2847-2862
     DOI: 10.1021/acs.jctc.9b00143
   
   with help from (in alphabetical order)
   C. Bannwarth, F. Bohle, G. Brandenburg, E. Caldeweyher, M. Checinski,
   S. Dohm, S. Ehlert, S. Ehrlich, F. März, H. Neugebauer, J. Pisarek,
   P. Pracht, P. Shushkov, and S. Spicher.
   
 * started run on 2020/08/27 at 17:30:54.922     

           -------------------------------------------------
          |                Calculation Setup                |
           -------------------------------------------------

          program call               : /opt/orca/otool_xtb /tmp/slurm-scratch/freq.162/freq_XTB.xyz --grad -c 0 -u 0 -P 8 --namespace /tmp/slurm-scratch/freq.162/freq --gbsa CH2Cl2
          hostname                   : headnode-pbs
          calculation namespace      : /tmp/slurm-scratch/freq.162/freq
          coordinate file            : /tmp/slurm-scratch/freq.162/freq_XTB.xyz
          omp threads                :                     8
          number of atoms            :                    46
          number of electrons        :                   104
          charge                     :                     0
          spin                       :                   0.0
          first test random number   :      0.29868925567185


molecular fragmentation (1/2 indicates fragments):
1111111112222222111222222112222222222222222222
# atoms in fragment 1/2:    14    32
 fragment masses (1/2) :      106.12      146.27
CMA distance (Bohr)    :   9.413
constraining FC (au)   :  0.0500

########################################################################
# WARNING! Please study the warnings concerning your input carefully
#  - Process number higher than OMP_NUM_THREADS, I hope you know what you are doing.
########################################################################

           ------------------------------------------------- 
          |                 G F N 2 - x T B                 |
          | Geometry, Frequencies, Noncovalent interactions |
          |            JCTC 2019 parametrisation            |
           ------------------------------------------------- 
             k(s)              :                1.8500
             k(p)              :                2.2300
             k(d)              :                2.2300
             k(f)              :                2.0000
             kEN (H0ij)        :               -2.0000
             D4 a1             :                0.5200
             D4 a2             :                5.0000
             D4 s6             :                1.0000
             D4 s8             :                2.7000
             D4 s9             :                5.0000
             alphaj            :                2.0000

  Z AO/shell   Hii/eV     exponent
  1     Wed Apr 25 08:07:45 CEST 2018   EN: 2.200 GM2: 0.406  GM3: 0.0800  RAES: 1.40
     1s    -10.707211    1.230000
  6     Wed Apr 25 08:07:45 CEST 2018   EN: 2.550 GM2: 0.538  GM3: 0.1500  RAES: 3.00
     2s    -13.970922    2.096432
     2p    -10.063292    1.800000
  7     Wed Apr 25 08:07:45 CEST 2018   EN: 3.040 GM2: 0.461  GM3:-0.0640  RAES: 1.90
     2s    -16.686243    2.339881
     2p    -12.523956    2.014332
  8     Wed Apr 25 08:07:45 CEST 2018   EN: 3.440 GM2: 0.452  GM3:-0.0517  RAES: 1.80
     2s    -20.229985    2.439742
     2p    -15.503117    2.137023

 Solvent             : CH2Cl2
 Using internal parameter file: .param_gbsa2_CH2Cl2
 Gsolv ref. state (COSMO-RS): gsolv [1 M gas/solution]
 temperature (mdtemp)       :    298.150000000000     
 dielectric constant        :    8.93000000000000     
 rho                        :    1.33000000000000     
 mass                       :    84.9300000000000     
 surface tension            :    15.5689454083859     
 probe radius               :   0.719875900000000     
 Gshift (Eh)                :   4.440829173451759E-003
 c1                         :    1.49173776000000     
 soset                      :   0.000000000000000E+000
 HB correction              :  F
           ------------------------------------------------- 
          |        Self-Consistent Charge Iterations        |
           ------------------------------------------------- 

          ...................................................
          :                      SETUP                      :
          :.................................................:
          :  # basis functions                 100          :
          :  # atomic orbitals                 100          :
          :  # shells                           64          :
          :  # electrons                       104          :
          :  max. iterations                   250          :
          :  Hamiltonian                  GFN2-xTB          :
          :  GBSA solvation                   true          :
          :  PC potential                    false          :
          :  electronic temp.          300.0000000     K    :
          :  accuracy                    1.0000000          :
          :  -> integral cutoff          0.2500000E+02      :
          :  -> integral neglect         0.1000000E-07      :
          :  -> SCF convergence          0.1000000E-05 Eh   :
          :  -> wf. convergence          0.1000000E-03 e    :
          :  Broyden damping             0.4000000          :
          ...................................................
  Checking positiv definite overlap ...  done.
 

 iter      E             dE          RMSdq      gap      omega  full diag
   1    -56.9872411 -0.569872E+02  0.343E+00    2.37       0.0  T
   2    -57.0762347 -0.889936E-01  0.180E+00    2.14       1.0  T
   3    -57.0781684 -0.193364E-02  0.895E-01    2.24       1.0  T
   4    -57.0822708 -0.410240E-02  0.211E-01    2.03       1.0  T
   5    -57.0831846 -0.913867E-03  0.665E-02    2.05       1.0  T
   6    -57.0832266 -0.419657E-04  0.321E-02    2.06       1.0  T
   7    -57.0832426 -0.160401E-04  0.116E-02    2.06       1.3  T
   8    -57.0832436 -0.961832E-06  0.319E-03    2.06       4.6  T
   9    -57.0832437 -0.106318E-06  0.122E-03    2.06      12.1  T
  10    -57.0832437 -0.159504E-07  0.574E-04    2.06      25.7  T
  11    -57.0832437 -0.332146E-08  0.256E-04    2.06      57.5  T

   *** convergence criteria satisfied after 11 iterations ***

         #    Occupation            Energy/Eh            Energy/eV
      -------------------------------------------------------------
         1        2.0000           -0.7142367             -19.4354
       ...           ...                  ...                  ...
        46        2.0000           -0.4253630             -11.5747
        47        2.0000           -0.4227072             -11.5024
        48        2.0000           -0.4188303             -11.3970
        49        2.0000           -0.4169587             -11.3460
        50        2.0000           -0.4028738             -10.9628
        51        2.0000           -0.3792769             -10.3206
        52        2.0000           -0.3685379             -10.0284 (HOMO)
        53                         -0.2927317              -7.9656 (LUMO)
        54                         -0.2362066              -6.4275
        55                         -0.2030030              -5.5240
        56                         -0.0967438              -2.6325
        57                          0.0178655               0.4861
       ...                                ...                  ...
       100                          0.6485539              17.6481
      -------------------------------------------------------------
                  HL-Gap            0.0758062 Eh            2.0628 eV
             Fermi-level           -0.3306348 Eh           -8.9970 eV

 SCC (total)                   0 d,  0 h,  0 min,  0.079 sec
 SCC setup                      ...        0 min,  0.014 sec ( 17.398%)
 Dispersion                     ...        0 min,  0.001 sec (  0.853%)
 integral evaluation            ...        0 min,  0.012 sec ( 14.548%)
 zeroth order Hamiltonian       ...        0 min,  0.000 sec (  0.019%)
 iterations                     ...        0 min,  0.039 sec ( 49.792%)
 molecular gradient             ...        0 min,  0.013 sec ( 16.791%)
 printout                       ...        0 min,  0.000 sec (  0.547%)

         :::::::::::::::::::::::::::::::::::::::::::::::::::::
         ::                     SUMMARY                     ::
         :::::::::::::::::::::::::::::::::::::::::::::::::::::
         :: total energy             -56.280809766548 Eh    ::
         :: total w/o Gsasa/hb       -56.256417794313 Eh    ::
         :: gradient norm              0.026989946676 Eh/a0 ::
         :: HOMO-LUMO gap              2.062791640860 eV    ::
         ::.................................................::
         :: SCC energy               -57.107635689173 Eh    ::
         :: -> isotropic ES            0.060447289086 Eh    ::
         :: -> anisotropic ES          0.007330346028 Eh    ::
         :: -> anisotropic XC          0.038421759121 Eh    ::
         :: -> dispersion             -0.035491308843 Eh    ::
         :: -> Gsolv                  -0.032488928223 Eh    ::
         ::    -> Gborn               -0.008096955988 Eh    ::
         ::    -> Gsasa               -0.028832801408 Eh    ::
         ::    -> Ghb                  0.000000000000 Eh    ::
         ::    -> Gshift               0.004440829173 Eh    ::
         :: repulsion energy           0.826530843414 Eh    ::
         :: add. restraining           0.000000000000 Eh    ::
         :::::::::::::::::::::::::::::::::::::::::::::::::::::

           -------------------------------------------------
          |                Property Printout                |
           -------------------------------------------------

    * Orbital Energies and Occupations

         #    Occupation            Energy/Eh            Energy/eV
      -------------------------------------------------------------
         1        2.0000           -0.7142367             -19.4354
       ...           ...                  ...                  ...
        40        2.0000           -0.4458322             -12.1317
        41        2.0000           -0.4403503             -11.9825
        42        2.0000           -0.4382486             -11.9254
        43        2.0000           -0.4352246             -11.8431
        44        2.0000           -0.4344414             -11.8218
        45        2.0000           -0.4327344             -11.7753
        46        2.0000           -0.4253630             -11.5747
        47        2.0000           -0.4227072             -11.5024
        48        2.0000           -0.4188303             -11.3970
        49        2.0000           -0.4169587             -11.3460
        50        2.0000           -0.4028738             -10.9628
        51        2.0000           -0.3792769             -10.3206
        52        2.0000           -0.3685379             -10.0284 (HOMO)
        53                         -0.2927317              -7.9656 (LUMO)
        54                         -0.2362066              -6.4275
        55                         -0.2030030              -5.5240
        56                         -0.0967438              -2.6325
        57                          0.0178655               0.4861
        58                          0.0364910               0.9930
        59                          0.0731110               1.9895
        60                          0.0865559               2.3553
        61                          0.0935406               2.5454
        62                          0.1043017               2.8382
        63                          0.1124916               3.0611
       ...                                ...                  ...
       100                          0.6485539              17.6481
      -------------------------------------------------------------
                  HL-Gap            0.0758062 Eh            2.0628 eV
             Fermi-level           -0.3306348 Eh           -8.9970 eV

     #   Z        covCN         q      C6AA      α(0)
     1   6 C      2.913    -0.024    28.595     8.769
     2   6 C      2.921    -0.021    28.536     8.760
     3   6 C      2.968    -0.009    28.248     8.718
     4   6 C      2.918    -0.015    28.377     8.735
     5   6 C      2.914    -0.026    28.652     8.777
     6   6 C      2.917    -0.017    28.443     8.746
     7   1 H      0.925     0.055     2.263     2.352
     8   1 H      0.925     0.047     2.352     2.398
     9   1 H      0.925     0.055     2.262     2.352
    10   7 N      2.628    -0.379    29.808     8.109
    11   1 H      0.860     0.163     1.316     1.797
    12   6 C      3.731     0.025    20.250     6.423
    13   1 H      0.923     0.001     3.041     2.727
    14   1 H      0.924     0.029     2.596     2.520
    15   1 H      0.860     0.141     1.463     1.895
    16   1 H      0.860     0.162     1.323     1.802
    17   6 C      2.767     0.213    23.498     7.939
    18   1 H      0.923     0.032     2.556     2.500
    19   8 O      0.856    -0.403    21.739     6.251
    20   6 C      3.802    -0.063    21.710     6.634
    21   1 H      0.924     0.039     2.465     2.455
    22   1 H      0.924     0.034     2.532     2.489
    23   6 C      3.800    -0.053    21.521     6.605
    24   1 H      0.924     0.029     2.595     2.519
    25   1 H      0.924     0.030     2.592     2.518
    26   1 H      0.925     0.050     2.314     2.379
    27   1 H      0.925     0.055     2.264     2.353
    28   1 H      0.860     0.143     1.450     1.886
    29   6 C      3.731     0.017    20.373     6.443
    30   1 H      0.924     0.031     2.566     2.505
    31   1 H      0.924     0.029     2.607     2.525
    32   6 C      3.800    -0.066    21.762     6.642
    33   1 H      0.924     0.029     2.602     2.523
    34   1 H      0.924     0.029     2.597     2.520
    35   6 C      3.799    -0.053    21.535     6.607
    36   1 H      0.924     0.031     2.570     2.507
    37   1 H      0.924     0.030     2.590     2.517
    38   7 N      2.627    -0.381    29.852     8.115
    39   6 C      3.749    -0.101    22.494     6.764
    40   1 H      0.924     0.037     2.492     2.469
    41   1 H      0.924     0.035     2.516     2.481
    42   1 H      0.924     0.034     2.526     2.485
    43   6 C      3.750    -0.102    22.507     6.766
    44   1 H      0.924     0.037     2.496     2.471
    45   1 H      0.924     0.036     2.504     2.475
    46   1 H      0.924     0.036     2.506     2.476

 Mol. C6AA /au·bohr⁶  :      17445.977213
 Mol. C8AA /au·bohr⁸  :     381490.565058
 Mol. α(0) /au        :        202.696854


Wiberg/Mayer (AO) data.
largest (>0.10) Wiberg bond orders for each atom
          total WBO             WBO to atom ...
     1  C   3.991        C    2 1.458    C    6 1.431    H   27 0.969    C    4 0.105
     2  C   3.988        C    1 1.458    C    3 1.369    H    7 0.966    C    5 0.104
     3  C   3.989        C    2 1.369    C    4 1.366    C   17 1.071
     4  C   3.990        C    5 1.463    C    3 1.366    H    8 0.967    C    1 0.105
     5  C   3.991        C    4 1.463    C    6 1.425    H   26 0.969    C    2 0.104
     6  C   3.988        C    1 1.431    C    5 1.425    H    9 0.970
     7  H   0.997        C    2 0.966
     8  H   0.998        C    4 0.967
     9  H   0.997        C    6 0.970
    10  N   3.007        C   12 1.020    H   15 0.967    H   11 0.944
    11  H   0.973        N   10 0.944
    12  C   3.985        N   10 1.020    C   20 1.005    H   14 0.974    H   13 0.970
    13  H   1.000        C   12 0.970
    14  H   0.999        C   12 0.974
    15  H   0.980        N   10 0.967
    16  H   0.974        N   38 0.949
    17  C   3.908        O   19 1.807    C    3 1.071    H   18 0.934
    18  H   0.998        C   17 0.934
    19  O   2.034        C   17 1.807
    20  C   3.996        C   23 1.007    C   12 1.005    H   22 0.976    H   21 0.975
    21  H   0.998        C   20 0.975
    22  H   0.999        C   20 0.976
    23  C   3.997        C   43 1.020    C   20 1.007    H   25 0.978    H   24 0.978
    24  H   0.999        C   23 0.978
    25  H   0.999        C   23 0.978
    26  H   0.997        C    5 0.969
    27  H   0.997        C    1 0.969
    28  H   0.980        N   38 0.966
    29  C   3.983        N   38 1.020    C   32 0.997    H   30 0.976    H   31 0.975
    30  H   0.999        C   29 0.976
    31  H   0.999        C   29 0.975
    32  C   3.997        C   35 1.007    C   29 0.997    H   33 0.977    H   34 0.977
    33  H   0.999        C   32 0.977
    34  H   0.999        C   32 0.977
    35  C   3.997        C   39 1.019    C   32 1.007    H   37 0.978    H   36 0.978
    36  H   0.999        C   35 0.978
    37  H   0.999        C   35 0.978
    38  N   3.014        C   29 1.020    H   28 0.966    H   16 0.949
    39  C   3.996        C   35 1.019    H   41 0.988    H   42 0.988    H   40 0.987
    40  H   0.998        C   39 0.987
    41  H   0.999        C   39 0.988
    42  H   0.999        C   39 0.988
    43  C   3.996        C   23 1.020    H   46 0.988    H   45 0.988    H   44 0.987
    44  H   0.998        C   43 0.987
    45  H   0.999        C   43 0.988
    46  H   0.999        C   43 0.988

molecular dipole:
                 x           y           z       tot (Debye)
 q only:        0.027       0.663      -1.229
   full:        0.130       0.334      -1.168       3.106
molecular quadrupole (traceless):
                xx          xy          yy          xz          yz          zz
 q only:        2.396      -1.777       2.492      -6.414      -1.605      -4.887
  q+dip:        4.013      -3.653       2.849      -6.782      -2.248      -6.862
   full:        3.336      -1.900       3.912      -5.840      -1.200      -7.248

           -------------------------------------------------
          |                Property Printout                |
           -------------------------------------------------

    * Orbital Energies and Occupations

         #    Occupation            Energy/Eh            Energy/eV
      -------------------------------------------------------------
         1        2.0000           -0.7142367             -19.4354
       ...           ...                  ...                  ...
        40        2.0000           -0.4458322             -12.1317
        41        2.0000           -0.4403503             -11.9825
        42        2.0000           -0.4382486             -11.9254
        43        2.0000           -0.4352246             -11.8431
        44        2.0000           -0.4344414             -11.8218
        45        2.0000           -0.4327344             -11.7753
        46        2.0000           -0.4253630             -11.5747
        47        2.0000           -0.4227072             -11.5024
        48        2.0000           -0.4188303             -11.3970
        49        2.0000           -0.4169587             -11.3460
        50        2.0000           -0.4028738             -10.9628
        51        2.0000           -0.3792769             -10.3206
        52        2.0000           -0.3685379             -10.0284 (HOMO)
        53                         -0.2927317              -7.9656 (LUMO)
        54                         -0.2362066              -6.4275
        55                         -0.2030030              -5.5240
        56                         -0.0967438              -2.6325
        57                          0.0178655               0.4861
        58                          0.0364910               0.9930
        59                          0.0731110               1.9895
        60                          0.0865559               2.3553
        61                          0.0935406               2.5454
        62                          0.1043017               2.8382
        63                          0.1124916               3.0611
       ...                                ...                  ...
       100                          0.6485539              17.6481
      -------------------------------------------------------------
                  HL-Gap            0.0758062 Eh            2.0628 eV
             Fermi-level           -0.3306348 Eh           -8.9970 eV

     #   Z        covCN         q      C6AA      α(0)
     1   6 C      2.913    -0.024    28.595     8.769
     2   6 C      2.921    -0.021    28.536     8.760
     3   6 C      2.968    -0.009    28.248     8.718
     4   6 C      2.918    -0.015    28.377     8.735
     5   6 C      2.914    -0.026    28.652     8.777
     6   6 C      2.917    -0.017    28.443     8.746
     7   1 H      0.925     0.055     2.263     2.352
     8   1 H      0.925     0.047     2.352     2.398
     9   1 H      0.925     0.055     2.262     2.352
    10   7 N      2.628    -0.379    29.808     8.109
    11   1 H      0.860     0.163     1.316     1.797
    12   6 C      3.731     0.025    20.250     6.423
    13   1 H      0.923     0.001     3.041     2.727
    14   1 H      0.924     0.029     2.596     2.520
    15   1 H      0.860     0.141     1.463     1.895
    16   1 H      0.860     0.162     1.323     1.802
    17   6 C      2.767     0.213    23.498     7.939
    18   1 H      0.923     0.032     2.556     2.500
    19   8 O      0.856    -0.403    21.739     6.251
    20   6 C      3.802    -0.063    21.710     6.634
    21   1 H      0.924     0.039     2.465     2.455
    22   1 H      0.924     0.034     2.532     2.489
    23   6 C      3.800    -0.053    21.521     6.605
    24   1 H      0.924     0.029     2.595     2.519
    25   1 H      0.924     0.030     2.592     2.518
    26   1 H      0.925     0.050     2.314     2.379
    27   1 H      0.925     0.055     2.264     2.353
    28   1 H      0.860     0.143     1.450     1.886
    29   6 C      3.731     0.017    20.373     6.443
    30   1 H      0.924     0.031     2.566     2.505
    31   1 H      0.924     0.029     2.607     2.525
    32   6 C      3.800    -0.066    21.762     6.642
    33   1 H      0.924     0.029     2.602     2.523
    34   1 H      0.924     0.029     2.597     2.520
    35   6 C      3.799    -0.053    21.535     6.607
    36   1 H      0.924     0.031     2.570     2.507
    37   1 H      0.924     0.030     2.590     2.517
    38   7 N      2.627    -0.381    29.852     8.115
    39   6 C      3.749    -0.101    22.494     6.764
    40   1 H      0.924     0.037     2.492     2.469
    41   1 H      0.924     0.035     2.516     2.481
    42   1 H      0.924     0.034     2.526     2.485
    43   6 C      3.750    -0.102    22.507     6.766
    44   1 H      0.924     0.037     2.496     2.471
    45   1 H      0.924     0.036     2.504     2.475
    46   1 H      0.924     0.036     2.506     2.476

 Mol. C6AA /au·bohr⁶  :      17445.977213
 Mol. C8AA /au·bohr⁸  :     381490.565058
 Mol. α(0) /au        :        202.696854


Wiberg/Mayer (AO) data.
largest (>0.10) Wiberg bond orders for each atom
          total WBO             WBO to atom ...
     1  C   3.991        C    2 1.458    C    6 1.431    H   27 0.969    C    4 0.105
     2  C   3.988        C    1 1.458    C    3 1.369    H    7 0.966    C    5 0.104
     3  C   3.989        C    2 1.369    C    4 1.366    C   17 1.071
     4  C   3.990        C    5 1.463    C    3 1.366    H    8 0.967    C    1 0.105
     5  C   3.991        C    4 1.463    C    6 1.425    H   26 0.969    C    2 0.104
     6  C   3.988        C    1 1.431    C    5 1.425    H    9 0.970
     7  H   0.997        C    2 0.966
     8  H   0.998        C    4 0.967
     9  H   0.997        C    6 0.970
    10  N   3.007        C   12 1.020    H   15 0.967    H   11 0.944
    11  H   0.973        N   10 0.944
    12  C   3.985        N   10 1.020    C   20 1.005    H   14 0.974    H   13 0.970
    13  H   1.000        C   12 0.970
    14  H   0.999        C   12 0.974
    15  H   0.980        N   10 0.967
    16  H   0.974        N   38 0.949
    17  C   3.908        O   19 1.807    C    3 1.071    H   18 0.934
    18  H   0.998        C   17 0.934
    19  O   2.034        C   17 1.807
    20  C   3.996        C   23 1.007    C   12 1.005    H   22 0.976    H   21 0.975
    21  H   0.998        C   20 0.975
    22  H   0.999        C   20 0.976
    23  C   3.997        C   43 1.020    C   20 1.007    H   25 0.978    H   24 0.978
    24  H   0.999        C   23 0.978
    25  H   0.999        C   23 0.978
    26  H   0.997        C    5 0.969
    27  H   0.997        C    1 0.969
    28  H   0.980        N   38 0.966
    29  C   3.983        N   38 1.020    C   32 0.997    H   30 0.976    H   31 0.975
    30  H   0.999        C   29 0.976
    31  H   0.999        C   29 0.975
    32  C   3.997        C   35 1.007    C   29 0.997    H   33 0.977    H   34 0.977
    33  H   0.999        C   32 0.977
    34  H   0.999        C   32 0.977
    35  C   3.997        C   39 1.019    C   32 1.007    H   37 0.978    H   36 0.978
    36  H   0.999        C   35 0.978
    37  H   0.999        C   35 0.978
    38  N   3.014        C   29 1.020    H   28 0.966    H   16 0.949
    39  C   3.996        C   35 1.019    H   41 0.988    H   42 0.988    H   40 0.987
    40  H   0.998        C   39 0.987
    41  H   0.999        C   39 0.988
    42  H   0.999        C   39 0.988
    43  C   3.996        C   23 1.020    H   46 0.988    H   45 0.988    H   44 0.987
    44  H   0.998        C   43 0.987
    45  H   0.999        C   43 0.988
    46  H   0.999        C   43 0.988

molecular dipole:
                 x           y           z       tot (Debye)
 q only:        0.027       0.663      -1.229
   full:        0.130       0.334      -1.168       3.106
molecular quadrupole (traceless):
                xx          xy          yy          xz          yz          zz
 q only:        2.396      -1.777       2.492      -6.414      -1.605      -4.887
  q+dip:        4.013      -3.653       2.849      -6.782      -2.248      -6.862
   full:        3.336      -1.900       3.912      -5.840      -1.200      -7.248


           -------------------------------------------------
          | TOTAL ENERGY              -56.280809766548 Eh   |
          | GRADIENT NORM               0.026989946676 Eh/α |
          | HOMO-LUMO GAP               2.062791640860 eV   |
           -------------------------------------------------

------------------------------------------------------------------------
 * finished run on 2020/08/27 at 17:30:55.049     
------------------------------------------------------------------------
 total:
 * wall-time:     0 d,  0 h,  0 min,  0.126 sec
 *  cpu-time:     0 d,  0 h,  0 min,  0.700 sec
 * ratio c/w:     5.543 speedup
 SCF:
 * wall-time:     0 d,  0 h,  0 min,  0.080 sec
 *  cpu-time:     0 d,  0 h,  0 min,  0.406 sec
 * ratio c/w:     5.098 speedup


-------------------------   --------------------
FINAL SINGLE POINT ENERGY       -56.280809766550
-------------------------   --------------------


----------------------------------------------------------------------------
                           ORCA NUMERICAL FREQUENCIES
                              (8-process run)
----------------------------------------------------------------------------

Number of atoms                ... 46
Central differences            ... used
Number of displacements        ... 276
Numerical increment            ... 5.000e-03 bohr
IR-spectrum generation         ... on
Raman-spectrum generation      ... off
Surface Crossing Hessian       ... off
List of participating nodes    ...  /tmp/slurm-scratch/freq.162/freq.hostnames

The output will be reduced. Please look at the following files:
SCF program output             ... >/tmp/slurm-scratch/freq.162/freq.lastscf
Integral program output        ... >/tmp/slurm-scratch/freq.162/freq.lastint
Gradient program output        ... >/tmp/slurm-scratch/freq.162/freq.lastgrad
Dipole moment program output   ... >/tmp/slurm-scratch/freq.162/freq.lastmom
AutoCI program output          ... >/tmp/slurm-scratch/freq.162/freq.lastautoci


         <<< Energy and Gradient at the input geometry >>>

        <<< Energy and Gradient at displaced geometries >>>
             <<<Displacing   1/coordinate 1 (+)>>>
             <<<Displacing   2/coordinate 3 (+)>>>
             <<<Displacing   3/coordinate 1 (+)>>>
             <<<Displacing   1/coordinate 2 (+)>>>
             <<<Displacing   3/coordinate 2 (+)>>>
             <<<Displacing   2/coordinate 2 (+)>>>
             <<<Displacing   2/coordinate 1 (+)>>>
             <<<Displacing   1/coordinate 3 (+)>>>
             <<<Displacing   2/coordinate 3 (-)>>>
             <<<Displacing   3/coordinate 2 (-)>>>
             <<<Displacing   1/coordinate 1 (-)>>>
             <<<Displacing   1/coordinate 2 (-)>>>
             <<<Displacing   3/coordinate 1 (-)>>>
             <<<Displacing   2/coordinate 2 (-)>>>
             <<<Displacing   2/coordinate 1 (-)>>>
             <<<Displacing   1/coordinate 3 (-)>>>
             <<<Displacing   5/coordinate 1 (+)>>>
             <<<Displacing   4/coordinate 1 (+)>>>
             <<<Displacing   4/coordinate 3 (+)>>>
             <<<Displacing   5/coordinate 1 (-)>>>
             <<<Displacing   4/coordinate 2 (+)>>>
             <<<Displacing   4/coordinate 1 (-)>>>
             <<<Displacing   4/coordinate 3 (-)>>>
             <<<Displacing   5/coordinate 2 (+)>>>
             <<<Displacing   3/coordinate 3 (+)>>>
             <<<Displacing   4/coordinate 2 (-)>>>
             <<<Displacing   5/coordinate 3 (+)>>>
             <<<Displacing   5/coordinate 2 (-)>>>
             <<<Displacing   3/coordinate 3 (-)>>>
             <<<Displacing   5/coordinate 3 (-)>>>
             <<<Displacing   6/coordinate 1 (+)>>>
             <<<Displacing   6/coordinate 1 (-)>>>
             <<<Displacing   6/coordinate 2 (+)>>>
             <<<Displacing   6/coordinate 3 (+)>>>
             <<<Displacing   7/coordinate 1 (+)>>>
             <<<Displacing   7/coordinate 2 (+)>>>
             <<<Displacing   6/coordinate 2 (-)>>>
             <<<Displacing   6/coordinate 3 (-)>>>
             <<<Displacing   7/coordinate 1 (-)>>>
             <<<Displacing   8/coordinate 1 (+)>>>
             <<<Displacing   8/coordinate 2 (+)>>>
             <<<Displacing   7/coordinate 2 (-)>>>
             <<<Displacing   7/coordinate 3 (+)>>>
             <<<Displacing   8/coordinate 2 (-)>>>
             <<<Displacing   8/coordinate 1 (-)>>>
             <<<Displacing   7/coordinate 3 (-)>>>
             <<<Displacing   8/coordinate 3 (+)>>>
             <<<Displacing   8/coordinate 3 (-)>>>
             <<<Displacing   9/coordinate 1 (+)>>>
             <<<Displacing  10/coordinate 1 (+)>>>
             <<<Displacing   9/coordinate 1 (-)>>>
             <<<Displacing   9/coordinate 2 (+)>>>
             <<<Displacing   9/coordinate 3 (+)>>>
             <<<Displacing  10/coordinate 1 (-)>>>
             <<<Displacing  10/coordinate 2 (+)>>>
             <<<Displacing   9/coordinate 2 (-)>>>
             <<<Displacing   9/coordinate 3 (-)>>>
             <<<Displacing  10/coordinate 3 (+)>>>
             <<<Displacing  10/coordinate 2 (-)>>>
             <<<Displacing  11/coordinate 1 (+)>>>
             <<<Displacing  11/coordinate 2 (+)>>>
             <<<Displacing  10/coordinate 3 (-)>>>
             <<<Displacing  11/coordinate 1 (-)>>>
             <<<Displacing  11/coordinate 2 (-)>>>
             <<<Displacing  12/coordinate 1 (+)>>>
             <<<Displacing  12/coordinate 2 (+)>>>
             <<<Displacing  13/coordinate 1 (+)>>>
             <<<Displacing  12/coordinate 1 (-)>>>
             <<<Displacing  12/coordinate 2 (-)>>>
             <<<Displacing  13/coordinate 1 (-)>>>
             <<<Displacing  11/coordinate 3 (+)>>>
             <<<Displacing  13/coordinate 2 (+)>>>
             <<<Displacing  12/coordinate 3 (+)>>>
             <<<Displacing  13/coordinate 3 (+)>>>
             <<<Displacing  12/coordinate 3 (-)>>>
             <<<Displacing  11/coordinate 3 (-)>>>
             <<<Displacing  13/coordinate 3 (-)>>>
             <<<Displacing  13/coordinate 2 (-)>>>
             <<<Displacing  14/coordinate 1 (+)>>>
             <<<Displacing  14/coordinate 1 (-)>>>
             <<<Displacing  14/coordinate 2 (+)>>>
             <<<Displacing  14/coordinate 3 (+)>>>
             <<<Displacing  14/coordinate 2 (-)>>>
             <<<Displacing  15/coordinate 1 (+)>>>
             <<<Displacing  15/coordinate 3 (+)>>>
             <<<Displacing  14/coordinate 3 (-)>>>
             <<<Displacing  15/coordinate 1 (-)>>>
             <<<Displacing  15/coordinate 2 (+)>>>
             <<<Displacing  15/coordinate 3 (-)>>>
             <<<Displacing  16/coordinate 2 (+)>>>
             <<<Displacing  15/coordinate 2 (-)>>>
             <<<Displacing  16/coordinate 1 (+)>>>
             <<<Displacing  16/coordinate 3 (+)>>>
             <<<Displacing  16/coordinate 2 (-)>>>
             <<<Displacing  16/coordinate 1 (-)>>>
             <<<Displacing  16/coordinate 3 (-)>>>
             <<<Displacing  17/coordinate 1 (+)>>>
             <<<Displacing  17/coordinate 1 (-)>>>
             <<<Displacing  17/coordinate 3 (+)>>>
             <<<Displacing  18/coordinate 1 (+)>>>
             <<<Displacing  17/coordinate 2 (+)>>>
             <<<Displacing  18/coordinate 1 (-)>>>
             <<<Displacing  17/coordinate 3 (-)>>>
             <<<Displacing  17/coordinate 2 (-)>>>
             <<<Displacing  19/coordinate 2 (+)>>>
             <<<Displacing  18/coordinate 2 (+)>>>
             <<<Displacing  18/coordinate 3 (+)>>>
             <<<Displacing  19/coordinate 1 (+)>>>
             <<<Displacing  19/coordinate 2 (-)>>>
             <<<Displacing  18/coordinate 2 (-)>>>
             <<<Displacing  18/coordinate 3 (-)>>>
             <<<Displacing  19/coordinate 1 (-)>>>
             <<<Displacing  19/coordinate 3 (+)>>>
             <<<Displacing  19/coordinate 3 (-)>>>
             <<<Displacing  20/coordinate 3 (+)>>>
             <<<Displacing  20/coordinate 2 (+)>>>
             <<<Displacing  20/coordinate 3 (-)>>>
             <<<Displacing  20/coordinate 2 (-)>>>
             <<<Displacing  20/coordinate 1 (+)>>>
             <<<Displacing  21/coordinate 2 (+)>>>
             <<<Displacing  22/coordinate 1 (+)>>>
             <<<Displacing  21/coordinate 1 (+)>>>
             <<<Displacing  20/coordinate 1 (-)>>>
             <<<Displacing  21/coordinate 2 (-)>>>
             <<<Displacing  22/coordinate 1 (-)>>>
             <<<Displacing  21/coordinate 1 (-)>>>
             <<<Displacing  21/coordinate 3 (+)>>>
             <<<Displacing  21/coordinate 3 (-)>>>
             <<<Displacing  22/coordinate 2 (+)>>>
             <<<Displacing  22/coordinate 2 (-)>>>
             <<<Displacing  22/coordinate 3 (+)>>>
             <<<Displacing  23/coordinate 1 (+)>>>
             <<<Displacing  22/coordinate 3 (-)>>>
             <<<Displacing  23/coordinate 1 (-)>>>
             <<<Displacing  24/coordinate 2 (+)>>>
             <<<Displacing  23/coordinate 2 (+)>>>
             <<<Displacing  23/coordinate 3 (+)>>>
             <<<Displacing  24/coordinate 1 (+)>>>
             <<<Displacing  24/coordinate 2 (-)>>>
             <<<Displacing  23/coordinate 2 (-)>>>
             <<<Displacing  23/coordinate 3 (-)>>>
             <<<Displacing  24/coordinate 3 (+)>>>
             <<<Displacing  24/coordinate 1 (-)>>>
             <<<Displacing  24/coordinate 3 (-)>>>
             <<<Displacing  25/coordinate 1 (+)>>>
             <<<Displacing  25/coordinate 1 (-)>>>
             <<<Displacing  25/coordinate 2 (+)>>>
             <<<Displacing  25/coordinate 3 (+)>>>
             <<<Displacing  25/coordinate 2 (-)>>>
             <<<Displacing  25/coordinate 3 (-)>>>
             <<<Displacing  26/coordinate 2 (+)>>>
             <<<Displacing  27/coordinate 1 (+)>>>
             <<<Displacing  26/coordinate 1 (+)>>>
             <<<Displacing  26/coordinate 3 (+)>>>
             <<<Displacing  27/coordinate 1 (-)>>>
             <<<Displacing  26/coordinate 2 (-)>>>
             <<<Displacing  26/coordinate 1 (-)>>>
             <<<Displacing  26/coordinate 3 (-)>>>
             <<<Displacing  27/coordinate 2 (+)>>>
             <<<Displacing  27/coordinate 2 (-)>>>
             <<<Displacing  27/coordinate 3 (+)>>>
             <<<Displacing  28/coordinate 1 (+)>>>
             <<<Displacing  27/coordinate 3 (-)>>>
             <<<Displacing  28/coordinate 1 (-)>>>
             <<<Displacing  28/coordinate 2 (+)>>>
             <<<Displacing  29/coordinate 2 (+)>>>
             <<<Displacing  28/coordinate 2 (-)>>>
             <<<Displacing  29/coordinate 1 (+)>>>
             <<<Displacing  28/coordinate 3 (+)>>>
             <<<Displacing  29/coordinate 3 (+)>>>
             <<<Displacing  29/coordinate 2 (-)>>>
             <<<Displacing  29/coordinate 1 (-)>>>
             <<<Displacing  28/coordinate 3 (-)>>>
             <<<Displacing  29/coordinate 3 (-)>>>
             <<<Displacing  30/coordinate 1 (+)>>>
             <<<Displacing  30/coordinate 1 (-)>>>
             <<<Displacing  30/coordinate 2 (+)>>>
             <<<Displacing  30/coordinate 3 (+)>>>
             <<<Displacing  30/coordinate 2 (-)>>>
             <<<Displacing  30/coordinate 3 (-)>>>
             <<<Displacing  31/coordinate 1 (+)>>>
             <<<Displacing  31/coordinate 2 (+)>>>
             <<<Displacing  32/coordinate 1 (+)>>>
             <<<Displacing  31/coordinate 1 (-)>>>
             <<<Displacing  31/coordinate 2 (-)>>>
             <<<Displacing  32/coordinate 1 (-)>>>
             <<<Displacing  32/coordinate 2 (+)>>>
             <<<Displacing  31/coordinate 3 (+)>>>
             <<<Displacing  32/coordinate 3 (+)>>>
             <<<Displacing  32/coordinate 2 (-)>>>
             <<<Displacing  31/coordinate 3 (-)>>>
             <<<Displacing  32/coordinate 3 (-)>>>
             <<<Displacing  33/coordinate 1 (+)>>>
             <<<Displacing  33/coordinate 2 (+)>>>
             <<<Displacing  33/coordinate 1 (-)>>>
             <<<Displacing  33/coordinate 2 (-)>>>
             <<<Displacing  33/coordinate 3 (+)>>>
             <<<Displacing  34/coordinate 1 (+)>>>
             <<<Displacing  33/coordinate 3 (-)>>>
             <<<Displacing  34/coordinate 1 (-)>>>
             <<<Displacing  34/coordinate 2 (+)>>>
             <<<Displacing  34/coordinate 2 (-)>>>
             <<<Displacing  34/coordinate 3 (+)>>>
             <<<Displacing  35/coordinate 1 (+)>>>
             <<<Displacing  34/coordinate 3 (-)>>>
             <<<Displacing  35/coordinate 1 (-)>>>
             <<<Displacing  35/coordinate 2 (+)>>>
             <<<Displacing  35/coordinate 2 (-)>>>
             <<<Displacing  35/coordinate 3 (+)>>>
             <<<Displacing  36/coordinate 1 (+)>>>
             <<<Displacing  35/coordinate 3 (-)>>>
             <<<Displacing  36/coordinate 1 (-)>>>
             <<<Displacing  36/coordinate 3 (+)>>>
             <<<Displacing  36/coordinate 2 (+)>>>
             <<<Displacing  37/coordinate 1 (+)>>>
             <<<Displacing  36/coordinate 3 (-)>>>
             <<<Displacing  36/coordinate 2 (-)>>>
             <<<Displacing  37/coordinate 1 (-)>>>
             <<<Displacing  37/coordinate 3 (+)>>>
             <<<Displacing  37/coordinate 2 (+)>>>
             <<<Displacing  37/coordinate 3 (-)>>>
             <<<Displacing  37/coordinate 2 (-)>>>
             <<<Displacing  38/coordinate 1 (+)>>>
             <<<Displacing  38/coordinate 1 (-)>>>
             <<<Displacing  38/coordinate 2 (+)>>>
             <<<Displacing  38/coordinate 2 (-)>>>
             <<<Displacing  38/coordinate 3 (+)>>>
             <<<Displacing  38/coordinate 3 (-)>>>
             <<<Displacing  39/coordinate 2 (+)>>>
             <<<Displacing  39/coordinate 1 (+)>>>
             <<<Displacing  39/coordinate 2 (-)>>>
             <<<Displacing  39/coordinate 3 (+)>>>
             <<<Displacing  39/coordinate 1 (-)>>>
             <<<Displacing  39/coordinate 3 (-)>>>
             <<<Displacing  40/coordinate 1 (+)>>>
             <<<Displacing  40/coordinate 2 (+)>>>
             <<<Displacing  40/coordinate 1 (-)>>>
             <<<Displacing  40/coordinate 2 (-)>>>
             <<<Displacing  40/coordinate 3 (+)>>>
             <<<Displacing  40/coordinate 3 (-)>>>
             <<<Displacing  41/coordinate 1 (+)>>>
             <<<Displacing  41/coordinate 2 (+)>>>
             <<<Displacing  41/coordinate 1 (-)>>>
             <<<Displacing  41/coordinate 2 (-)>>>
             <<<Displacing  41/coordinate 3 (+)>>>
             <<<Displacing  42/coordinate 1 (+)>>>
             <<<Displacing  41/coordinate 3 (-)>>>
             <<<Displacing  42/coordinate 1 (-)>>>
             <<<Displacing  42/coordinate 2 (+)>>>
             <<<Displacing  42/coordinate 2 (-)>>>
             <<<Displacing  42/coordinate 3 (+)>>>
             <<<Displacing  43/coordinate 1 (+)>>>
             <<<Displacing  42/coordinate 3 (-)>>>
             <<<Displacing  43/coordinate 1 (-)>>>
             <<<Displacing  43/coordinate 2 (+)>>>
             <<<Displacing  43/coordinate 2 (-)>>>
             <<<Displacing  44/coordinate 1 (+)>>>
             <<<Displacing  44/coordinate 1 (-)>>>
             <<<Displacing  43/coordinate 3 (+)>>>
             <<<Displacing  44/coordinate 3 (+)>>>
             <<<Displacing  43/coordinate 3 (-)>>>
             <<<Displacing  44/coordinate 2 (+)>>>
             <<<Displacing  44/coordinate 3 (-)>>>
             <<<Displacing  44/coordinate 2 (-)>>>
             <<<Displacing  45/coordinate 1 (+)>>>
             <<<Displacing  45/coordinate 1 (-)>>>
             <<<Displacing  45/coordinate 2 (+)>>>
             <<<Displacing  45/coordinate 2 (-)>>>
             <<<Displacing  45/coordinate 3 (+)>>>
             <<<Displacing  46/coordinate 1 (+)>>>
             <<<Displacing  45/coordinate 3 (-)>>>
             <<<Displacing  46/coordinate 1 (-)>>>
             <<<Displacing  46/coordinate 2 (+)>>>
             <<<Displacing  46/coordinate 2 (-)>>>
             <<<Displacing  46/coordinate 3 (+)>>>
             <<<Displacing  46/coordinate 3 (-)>>>

-----------------------
VIBRATIONAL FREQUENCIES
-----------------------

Scaling factor for frequencies =  1.000000000 (already applied!)

   0:         0.00 cm**-1
   1:         0.00 cm**-1
   2:         0.00 cm**-1
   3:         0.00 cm**-1
   4:         0.00 cm**-1
   5:         0.00 cm**-1
   6:       -52.61 cm**-1 ***imaginary mode***
   7:       -29.59 cm**-1 ***imaginary mode***
   8:        26.26 cm**-1
   9:        32.75 cm**-1
  10:        40.55 cm**-1
  11:        43.43 cm**-1
  12:        49.63 cm**-1
  13:        56.47 cm**-1
  14:        63.52 cm**-1
  15:        76.36 cm**-1
  16:        82.46 cm**-1
  17:        84.74 cm**-1
  18:       111.59 cm**-1
  19:       116.18 cm**-1
  20:       133.92 cm**-1
  21:       139.96 cm**-1
  22:       151.36 cm**-1
  23:       203.13 cm**-1
  24:       205.15 cm**-1
  25:       217.31 cm**-1
  26:       256.87 cm**-1
  27:       261.38 cm**-1
  28:       273.71 cm**-1
  29:       319.28 cm**-1
  30:       380.74 cm**-1
  31:       391.56 cm**-1
  32:       392.84 cm**-1
  33:       396.90 cm**-1
  34:       426.06 cm**-1
  35:       432.27 cm**-1
  36:       438.82 cm**-1
  37:       444.00 cm**-1
  38:       587.08 cm**-1
  39:       627.13 cm**-1
  40:       659.90 cm**-1
  41:       745.21 cm**-1
  42:       768.51 cm**-1
  43:       771.29 cm**-1
  44:       816.35 cm**-1
  45:       822.54 cm**-1
  46:       827.48 cm**-1
  47:       878.25 cm**-1
  48:       898.30 cm**-1
  49:       919.29 cm**-1
  50:       920.54 cm**-1
  51:       922.33 cm**-1
  52:       933.41 cm**-1
  53:       934.12 cm**-1
  54:       936.28 cm**-1
  55:       938.34 cm**-1
  56:       971.99 cm**-1
  57:       980.84 cm**-1
  58:       985.00 cm**-1
  59:      1011.30 cm**-1
  60:      1015.90 cm**-1
  61:      1059.48 cm**-1
  62:      1065.97 cm**-1
  63:      1068.33 cm**-1
  64:      1086.72 cm**-1
  65:      1099.77 cm**-1
  66:      1103.40 cm**-1
  67:      1113.32 cm**-1
  68:      1123.19 cm**-1
  69:      1135.46 cm**-1
  70:      1149.97 cm**-1
  71:      1175.09 cm**-1
  72:      1181.50 cm**-1
  73:      1203.23 cm**-1
  74:      1206.37 cm**-1
  75:      1209.12 cm**-1
  76:      1236.07 cm**-1
  77:      1261.51 cm**-1
  78:      1269.29 cm**-1
  79:      1272.52 cm**-1
  80:      1276.84 cm**-1
  81:      1279.65 cm**-1
  82:      1281.83 cm**-1
  83:      1294.06 cm**-1
  84:      1302.49 cm**-1
  85:      1309.73 cm**-1
  86:      1336.74 cm**-1
  87:      1354.01 cm**-1
  88:      1359.73 cm**-1
  89:      1372.86 cm**-1
  90:      1379.67 cm**-1
  91:      1426.81 cm**-1
  92:      1427.38 cm**-1
  93:      1427.75 cm**-1
  94:      1448.85 cm**-1
  95:      1492.23 cm**-1
  96:      1502.60 cm**-1
  97:      1503.39 cm**-1
  98:      1505.11 cm**-1
  99:      1505.85 cm**-1
 100:      1506.62 cm**-1
 101:      1508.56 cm**-1
 102:      1508.69 cm**-1
 103:      1512.07 cm**-1
 104:      1512.13 cm**-1
 105:      1556.17 cm**-1
 106:      1561.20 cm**-1
 107:      1568.66 cm**-1
 108:      1569.51 cm**-1
 109:      1666.01 cm**-1
 110:      2834.88 cm**-1
 111:      2850.62 cm**-1
 112:      2928.24 cm**-1
 113:      2929.02 cm**-1
 114:      2941.99 cm**-1
 115:      2942.70 cm**-1
 116:      2952.84 cm**-1
 117:      2955.60 cm**-1
 118:      2960.83 cm**-1
 119:      2963.16 cm**-1
 120:      2965.15 cm**-1
 121:      2974.74 cm**-1
 122:      2977.54 cm**-1
 123:      2978.25 cm**-1
 124:      2978.65 cm**-1
 125:      2983.46 cm**-1
 126:      2983.80 cm**-1
 127:      2995.86 cm**-1
 128:      2995.92 cm**-1
 129:      3057.21 cm**-1
 130:      3061.10 cm**-1
 131:      3066.31 cm**-1
 132:      3072.39 cm**-1
 133:      3078.07 cm**-1
 134:      3321.66 cm**-1
 135:      3380.82 cm**-1
 136:      3401.90 cm**-1
 137:      3410.04 cm**-1


------------
NORMAL MODES
------------

These modes are the cartesian displacements weighted by the diagonal matrix
M(i,i)=1/sqrt(m[i]) where m[i] is the mass of the displaced atom
Thus, these vectors are normalized but *not* orthogonal

                  0          1          2          3          4          5    
      0       0.000000   0.000000   0.000000   0.000000   0.000000   0.000000
      1       0.000000   0.000000   0.000000   0.000000   0.000000   0.000000
      2       0.000000   0.000000   0.000000   0.000000   0.000000   0.000000
      3       0.000000   0.000000   0.000000   0.000000   0.000000   0.000000
      4       0.000000   0.000000   0.000000   0.000000   0.000000   0.000000
      5       0.000000   0.000000   0.000000   0.000000   0.000000   0.000000
      6       0.000000   0.000000   0.000000   0.000000   0.000000   0.000000
      7       0.000000   0.000000   0.000000   0.000000   0.000000   0.000000
      8       0.000000   0.000000   0.000000   0.000000   0.000000   0.000000
      9       0.000000   0.000000   0.000000   0.000000   0.000000   0.000000
     10       0.000000   0.000000   0.000000   0.000000   0.000000   0.000000
     11       0.000000   0.000000   0.000000   0.000000   0.000000   0.000000
     12       0.000000   0.000000   0.000000   0.000000   0.000000   0.000000
     13       0.000000   0.000000   0.000000   0.000000   0.000000   0.000000
     14       0.000000   0.000000   0.000000   0.000000   0.000000   0.000000
     15       0.000000   0.000000   0.000000   0.000000   0.000000   0.000000
     16       0.000000   0.000000   0.000000   0.000000   0.000000   0.000000
     17       0.000000   0.000000   0.000000   0.000000   0.000000   0.000000
     18       0.000000   0.000000   0.000000   0.000000   0.000000   0.000000
     19       0.000000   0.000000   0.000000   0.000000   0.000000   0.000000
     20       0.000000   0.000000   0.000000   0.000000   0.000000   0.000000
     21       0.000000   0.000000   0.000000   0.000000   0.000000   0.000000
     22       0.000000   0.000000   0.000000   0.000000   0.000000   0.000000
     23       0.000000   0.000000   0.000000   0.000000   0.000000   0.000000
     24       0.000000   0.000000   0.000000   0.000000   0.000000   0.000000
     25       0.000000   0.000000   0.000000   0.000000   0.000000   0.000000
     26       0.000000   0.000000   0.000000   0.000000   0.000000   0.000000
     27       0.000000   0.000000   0.000000   0.000000   0.000000   0.000000
     28       0.000000   0.000000   0.000000   0.000000   0.000000   0.000000
     29       0.000000   0.000000   0.000000   0.000000   0.000000   0.000000
     30       0.000000   0.000000   0.000000   0.000000   0.000000   0.000000
     31       0.000000   0.000000   0.000000   0.000000   0.000000   0.000000
     32       0.000000   0.000000   0.000000   0.000000   0.000000   0.000000
     33       0.000000   0.000000   0.000000   0.000000   0.000000   0.000000
     34       0.000000   0.000000   0.000000   0.000000   0.000000   0.000000
     35       0.000000   0.000000   0.000000   0.000000   0.000000   0.000000
     36       0.000000   0.000000   0.000000   0.000000   0.000000   0.000000
     37       0.000000   0.000000   0.000000   0.000000   0.000000   0.000000
     38       0.000000   0.000000   0.000000   0.000000   0.000000   0.000000
     39       0.000000   0.000000   0.000000   0.000000   0.000000   0.000000
     40       0.000000   0.000000   0.000000   0.000000   0.000000   0.000000
     41       0.000000   0.000000   0.000000   0.000000   0.000000   0.000000
     42       0.000000   0.000000   0.000000   0.000000   0.000000   0.000000
     43       0.000000   0.000000   0.000000   0.000000   0.000000   0.000000
     44       0.000000   0.000000   0.000000   0.000000   0.000000   0.000000
     45       0.000000   0.000000   0.000000   0.000000   0.000000   0.000000
     46       0.000000   0.000000   0.000000   0.000000   0.000000   0.000000
     47       0.000000   0.000000   0.000000   0.000000   0.000000   0.000000
     48       0.000000   0.000000   0.000000   0.000000   0.000000   0.000000
     49       0.000000   0.000000   0.000000   0.000000   0.000000   0.000000
     50       0.000000   0.000000   0.000000   0.000000   0.000000   0.000000
     51       0.000000   0.000000   0.000000   0.000000   0.000000   0.000000
     52       0.000000   0.000000   0.000000   0.000000   0.000000   0.000000
     53       0.000000   0.000000   0.000000   0.000000   0.000000   0.000000
     54       0.000000   0.000000   0.000000   0.000000   0.000000   0.000000
     55       0.000000   0.000000   0.000000   0.000000   0.000000   0.000000
     56       0.000000   0.000000   0.000000   0.000000   0.000000   0.000000
     57       0.000000   0.000000   0.000000   0.000000   0.000000   0.000000
     58       0.000000   0.000000   0.000000   0.000000   0.000000   0.000000
     59       0.000000   0.000000   0.000000   0.000000   0.000000   0.000000
     60       0.000000   0.000000   0.000000   0.000000   0.000000   0.000000
     61       0.000000   0.000000   0.000000   0.000000   0.000000   0.000000
     62       0.000000   0.000000   0.000000   0.000000   0.000000   0.000000
     63       0.000000   0.000000   0.000000   0.000000   0.000000   0.000000
     64       0.000000   0.000000   0.000000   0.000000   0.000000   0.000000
     65       0.000000   0.000000   0.000000   0.000000   0.000000   0.000000
     66       0.000000   0.000000   0.000000   0.000000   0.000000   0.000000
     67       0.000000   0.000000   0.000000   0.000000   0.000000   0.000000
     68       0.000000   0.000000   0.000000   0.000000   0.000000   0.000000
     69       0.000000   0.000000   0.000000   0.000000   0.000000   0.000000
     70       0.000000   0.000000   0.000000   0.000000   0.000000   0.000000
     71       0.000000   0.000000   0.000000   0.000000   0.000000   0.000000
     72       0.000000   0.000000   0.000000   0.000000   0.000000   0.000000
     73       0.000000   0.000000   0.000000   0.000000   0.000000   0.000000
     74       0.000000   0.000000   0.000000   0.000000   0.000000   0.000000
     75       0.000000   0.000000   0.000000   0.000000   0.000000   0.000000
     76       0.000000   0.000000   0.000000   0.000000   0.000000   0.000000
     77       0.000000   0.000000   0.000000   0.000000   0.000000   0.000000
     78       0.000000   0.000000   0.000000   0.000000   0.000000   0.000000
     79       0.000000   0.000000   0.000000   0.000000   0.000000   0.000000
     80       0.000000   0.000000   0.000000   0.000000   0.000000   0.000000
     81       0.000000   0.000000   0.000000   0.000000   0.000000   0.000000
     82       0.000000   0.000000   0.000000   0.000000   0.000000   0.000000
     83       0.000000   0.000000   0.000000   0.000000   0.000000   0.000000
     84       0.000000   0.000000   0.000000   0.000000   0.000000   0.000000
     85       0.000000   0.000000   0.000000   0.000000   0.000000   0.000000
     86       0.000000   0.000000   0.000000   0.000000   0.000000   0.000000
     87       0.000000   0.000000   0.000000   0.000000   0.000000   0.000000
     88       0.000000   0.000000   0.000000   0.000000   0.000000   0.000000
     89       0.000000   0.000000   0.000000   0.000000   0.000000   0.000000
     90       0.000000   0.000000   0.000000   0.000000   0.000000   0.000000
     91       0.000000   0.000000   0.000000   0.000000   0.000000   0.000000
     92       0.000000   0.000000   0.000000   0.000000   0.000000   0.000000
     93       0.000000   0.000000   0.000000   0.000000   0.000000   0.000000
     94       0.000000   0.000000   0.000000   0.000000   0.000000   0.000000
     95       0.000000   0.000000   0.000000   0.000000   0.000000   0.000000
     96       0.000000   0.000000   0.000000   0.000000   0.000000   0.000000
     97       0.000000   0.000000   0.000000   0.000000   0.000000   0.000000
     98       0.000000   0.000000   0.000000   0.000000   0.000000   0.000000
     99       0.000000   0.000000   0.000000   0.000000   0.000000   0.000000
    100       0.000000   0.000000   0.000000   0.000000   0.000000   0.000000
    101       0.000000   0.000000   0.000000   0.000000   0.000000   0.000000
    102       0.000000   0.000000   0.000000   0.000000   0.000000   0.000000
    103       0.000000   0.000000   0.000000   0.000000   0.000000   0.000000
    104       0.000000   0.000000   0.000000   0.000000   0.000000   0.000000
    105       0.000000   0.000000   0.000000   0.000000   0.000000   0.000000
    106       0.000000   0.000000   0.000000   0.000000   0.000000   0.000000
    107       0.000000   0.000000   0.000000   0.000000   0.000000   0.000000
    108       0.000000   0.000000   0.000000   0.000000   0.000000   0.000000
    109       0.000000   0.000000   0.000000   0.000000   0.000000   0.000000
    110       0.000000   0.000000   0.000000   0.000000   0.000000   0.000000
    111       0.000000   0.000000   0.000000   0.000000   0.000000   0.000000
    112       0.000000   0.000000   0.000000   0.000000   0.000000   0.000000
    113       0.000000   0.000000   0.000000   0.000000   0.000000   0.000000
    114       0.000000   0.000000   0.000000   0.000000   0.000000   0.000000
    115       0.000000   0.000000   0.000000   0.000000   0.000000   0.000000
    116       0.000000   0.000000   0.000000   0.000000   0.000000   0.000000
    117       0.000000   0.000000   0.000000   0.000000   0.000000   0.000000
    118       0.000000   0.000000   0.000000   0.000000   0.000000   0.000000
    119       0.000000   0.000000   0.000000   0.000000   0.000000   0.000000
    120       0.000000   0.000000   0.000000   0.000000   0.000000   0.000000
    121       0.000000   0.000000   0.000000   0.000000   0.000000   0.000000
    122       0.000000   0.000000   0.000000   0.000000   0.000000   0.000000
    123       0.000000   0.000000   0.000000   0.000000   0.000000   0.000000
    124       0.000000   0.000000   0.000000   0.000000   0.000000   0.000000
    125       0.000000   0.000000   0.000000   0.000000   0.000000   0.000000
    126       0.000000   0.000000   0.000000   0.000000   0.000000   0.000000
    127       0.000000   0.000000   0.000000   0.000000   0.000000   0.000000
    128       0.000000   0.000000   0.000000   0.000000   0.000000   0.000000
    129       0.000000   0.000000   0.000000   0.000000   0.000000   0.000000
    130       0.000000   0.000000   0.000000   0.000000   0.000000   0.000000
    131       0.000000   0.000000   0.000000   0.000000   0.000000   0.000000
    132       0.000000   0.000000   0.000000   0.000000   0.000000   0.000000
    133       0.000000   0.000000   0.000000   0.000000   0.000000   0.000000
    134       0.000000   0.000000   0.000000   0.000000   0.000000   0.000000
    135       0.000000   0.000000   0.000000   0.000000   0.000000   0.000000
    136       0.000000   0.000000   0.000000   0.000000   0.000000   0.000000
    137       0.000000   0.000000   0.000000   0.000000   0.000000   0.000000
                  6          7          8          9         10         11    
      0       0.040675   0.019803   0.009637  -0.071200  -0.114699  -0.039835
      1       0.003768   0.021315  -0.111674   0.092847  -0.111587  -0.065641
      2      -0.013037   0.008078   0.046057   0.068436   0.036194  -0.036110
      3       0.059594   0.019097   0.006905  -0.050288  -0.075302  -0.025004
      4       0.021344   0.018813  -0.093068   0.060723  -0.076225  -0.026241
      5      -0.000423   0.006841   0.050718   0.066271   0.062314  -0.018025
      6       0.078398   0.012665   0.008688  -0.041277  -0.026862  -0.009717
      7       0.040103   0.007245  -0.076634   0.033282  -0.020058   0.007223
      8       0.005971  -0.000467   0.068749   0.025522   0.084512   0.008115
      9       0.072697   0.007653   0.013802  -0.053719  -0.022834  -0.012687
     10       0.034138  -0.000561  -0.078647   0.039730  -0.004681  -0.004053
     11      -0.003744  -0.005301   0.082814  -0.011682   0.078372   0.012786
     12       0.051254   0.008757   0.016072  -0.074031  -0.064618  -0.028959
     13       0.014761   0.003484  -0.097414   0.073424  -0.042838  -0.045486
     14      -0.017581  -0.003382   0.077707  -0.008338   0.050419  -0.006671
     15       0.036483   0.014486   0.013939  -0.083238  -0.109666  -0.041663
     16       0.001207   0.013604  -0.114109   0.099197  -0.094852  -0.075033
     17      -0.020800   0.003109   0.059476   0.031297   0.030369  -0.030332
     18       0.061580   0.022860   0.002977  -0.040800  -0.079566  -0.023965
     19       0.020811   0.024144  -0.092657   0.056163  -0.090803  -0.019339
     20       0.004842   0.010596   0.040348   0.094017   0.066182  -0.022618
     21       0.083208   0.000691   0.017748  -0.050918   0.015729  -0.001562
     22       0.044781  -0.010491  -0.063181   0.015307   0.040239   0.021258
     23      -0.000734  -0.010730   0.097468  -0.042909   0.095667   0.031777
     24       0.021752   0.014928   0.015988  -0.099651  -0.140507  -0.053142
     25      -0.012416   0.015264  -0.128449   0.123421  -0.121652  -0.105121
     26      -0.030792   0.003827   0.055740   0.032605   0.009930  -0.044307
     27      -0.217121  -0.095714  -0.113418  -0.047940   0.061958   0.035000
     28      -0.149148  -0.043941   0.009905  -0.095324  -0.025505  -0.012763
     29      -0.074889  -0.050156  -0.025733  -0.101569  -0.113541   0.085469
     30      -0.102809  -0.099621  -0.135220  -0.038805   0.099686   0.072059
     31      -0.038793  -0.032772  -0.012758  -0.098365   0.012543   0.016666
     32      -0.015004  -0.081896  -0.031632  -0.066982  -0.100163   0.122130
     33      -0.041020  -0.032394  -0.132379  -0.035987   0.087363   0.049215
     34      -0.028313  -0.037311   0.020514  -0.025195  -0.029936   0.043926
     35       0.028148  -0.023157  -0.030219  -0.077417  -0.105358   0.107042
     36       0.099869  -0.040998  -0.217616  -0.073343   0.124890   0.144510
     37      -0.081832  -0.033115   0.055377  -0.008055  -0.045288   0.006506
     38       0.222903   0.002189  -0.050175  -0.026367  -0.087163   0.184585
     39       0.020171   0.000814  -0.127407  -0.023212   0.092112   0.036320
     40       0.187258  -0.042425  -0.064981  -0.028115   0.009260   0.177981
     41      -0.050955  -0.063488  -0.034747  -0.093403  -0.112072   0.120283
     42      -0.250164  -0.125901  -0.114402  -0.049304   0.065479   0.042226
     43      -0.449056  -0.061175   0.045821  -0.148655  -0.085999  -0.101429
     44      -0.003606  -0.016328  -0.028855  -0.093377  -0.109694   0.088721
     45       0.049341  -0.114680  -0.068075  -0.021382   0.097650   0.060770
     46       0.016806   0.009326   0.025173  -0.083395   0.069912   0.044732
     47      -0.011280   0.000532  -0.072168   0.085549  -0.048613   0.102681
     48       0.091965   0.005957  -0.001017  -0.020938   0.010863   0.005799
     49       0.050436  -0.003722  -0.063400  -0.008006   0.013125   0.051847
     50       0.010814  -0.008249   0.068220   0.019259   0.107540   0.027024
     51       0.058274   0.006743   0.003679  -0.027420   0.007094   0.005015
     52       0.012473  -0.003440  -0.051761  -0.030184   0.007629   0.058084
     53      -0.011791  -0.005359   0.061361   0.041188   0.108383   0.015215
     54       0.098812  -0.011358  -0.020993  -0.008934   0.034349   0.015934
     55       0.063573  -0.025108  -0.074259  -0.024534   0.038629   0.079959
     56       0.018857  -0.020499   0.069362  -0.008754   0.119898   0.052751
     57      -0.126881  -0.001817  -0.049232   0.009982   0.059963  -0.050242
     58      -0.096476  -0.025525   0.097334   0.034823  -0.059561  -0.012691
     59      -0.020392   0.021583  -0.003070  -0.099077  -0.105217   0.002830
     60      -0.243565   0.007231   0.033555   0.035822   0.006965  -0.141729
     61      -0.054070  -0.030305   0.063689   0.020154  -0.041027   0.021952
     62      -0.171173   0.001933   0.026697  -0.182364  -0.190990  -0.088054
     63      -0.169524  -0.030108  -0.048378  -0.019060   0.020209  -0.040831
     64      -0.275936  -0.017636   0.186830   0.013316  -0.143915  -0.155856
     65       0.036086   0.055548  -0.006343  -0.063220  -0.054783  -0.004865
     66       0.000291   0.051617  -0.079077   0.062616   0.162614  -0.040513
     67       0.015468  -0.017215   0.098802   0.142041   0.001653   0.078161
     68       0.047043   0.042142  -0.013350  -0.058755  -0.056889   0.024676
     69       0.069179   0.050437  -0.135845   0.037827   0.196501   0.024844
     70      -0.007432  -0.015883   0.121100   0.155627  -0.008811   0.054808
     71       0.180695   0.063304  -0.036646   0.025401   0.026193   0.109729
     72       0.051620   0.077274  -0.085005   0.093087   0.208317  -0.045807
     73       0.139592  -0.015542   0.038260   0.164135   0.065205   0.192621
     74      -0.018856   0.010677  -0.004447  -0.096526  -0.114391   0.028050
     75       0.046018   0.004594   0.019700  -0.083611  -0.061623  -0.031173
     76       0.010918  -0.001942  -0.098704   0.078652  -0.030863  -0.054005
     77      -0.026203  -0.007726   0.087986  -0.037321   0.045095  -0.003148
     78       0.028728   0.024342   0.008503  -0.078326  -0.149030  -0.050043
     79      -0.009075   0.028659  -0.124166   0.112026  -0.151715  -0.088917
     80      -0.016986   0.012739   0.032191   0.098193   0.020225  -0.054495
     81      -0.100531   0.189508  -0.039724   0.064440  -0.005777   0.204708
     82      -0.018676   0.082589   0.061038  -0.064740   0.031074   0.135281
     83      -0.037790   0.058084  -0.087001   0.102316  -0.057787   0.087391
     84      -0.037884   0.053137   0.031285   0.048513  -0.023406   0.103669
     85       0.049319  -0.055402  -0.000876  -0.112209   0.113539   0.011815
     86       0.055605  -0.139440  -0.079738   0.055827  -0.010177  -0.070651
     87      -0.144074   0.299782   0.079669   0.082471  -0.109026   0.215566
     88       0.065276  -0.093286  -0.021619  -0.112331   0.131430   0.037357
     89       0.091028  -0.220310  -0.080153   0.038477   0.012650  -0.156381
     90       0.033951  -0.116097   0.016349   0.028786   0.022409   0.018154
     91       0.105113  -0.177721  -0.053613  -0.143628   0.182071  -0.065748
     92       0.126566  -0.309363  -0.079544   0.042018   0.023063  -0.150608
     93       0.001373  -0.045648   0.065909   0.046514  -0.027783   0.031464
     94      -0.013380   0.088133   0.074114  -0.096569   0.039781   0.009096
     95      -0.039007   0.090300  -0.080819   0.069584  -0.051764   0.029144
     96      -0.066683   0.120603   0.077432   0.067768  -0.076260   0.122653
     97      -0.067811   0.220694   0.121296  -0.053076  -0.046256   0.106268
     98      -0.105823   0.253684  -0.082378   0.081429  -0.083294   0.110594
     99       0.102381  -0.289700   0.020327   0.008254   0.065941  -0.089591
    100      -0.027680   0.117709   0.097593  -0.104284   0.030941  -0.027135
    101      -0.072377   0.176817  -0.085733   0.097634  -0.087918   0.131808
    102      -0.006647  -0.033117   0.143223   0.068307  -0.093197   0.001389
    103       0.015618   0.014626   0.056728  -0.130588   0.092788  -0.076236
    104       0.002294  -0.017378  -0.073569   0.027503   0.000269  -0.115214
    105      -0.063691   0.116163   0.178434   0.092984  -0.160893   0.090418
    106       0.013602   0.020151   0.037008  -0.117055   0.090847  -0.028047
    107       0.032968  -0.097915  -0.068266  -0.000385   0.036101  -0.214999
    108       0.029828  -0.130884   0.136995   0.056558  -0.062343  -0.065649
    109       0.058726  -0.093838   0.013468  -0.170892   0.172005  -0.164569
    110       0.034307  -0.105501  -0.066310   0.026544   0.012176  -0.170640
    111      -0.036986   0.057205  -0.041513   0.031708   0.029926   0.138914
    112       0.026959  -0.008525   0.018121  -0.096522   0.086291   0.070177
    113       0.022143  -0.067770  -0.076748   0.073836  -0.032573   0.030096
    114       0.010309  -0.084052   0.178547   0.072142  -0.107679  -0.054438
    115      -0.007116   0.070842   0.120310  -0.130666   0.047234  -0.108952
    116      -0.035199   0.087997  -0.083243   0.022380  -0.008074  -0.058221
    117       0.008412  -0.084737   0.226027   0.082258  -0.143754  -0.082203
    118       0.003955   0.041865   0.111241  -0.146667   0.072574  -0.147172
    119      -0.019082   0.042911  -0.072981   0.002848   0.012611  -0.131452
    120      -0.017495  -0.007625   0.183970   0.079268  -0.131037  -0.003607
    121      -0.031339   0.133205   0.154048  -0.105335  -0.006699  -0.058366
    122      -0.061887   0.163207  -0.090610   0.020956  -0.015966  -0.012082
    123       0.051687  -0.195567   0.151052   0.057633  -0.058783  -0.117402
    124      -0.010509   0.078256   0.141805  -0.140215   0.042880  -0.144783
    125      -0.051573   0.133993  -0.093061   0.039694  -0.027058   0.010812
    126      -0.028265   0.070265  -0.029944   0.108227   0.164028  -0.106176
    127      -0.006167  -0.012695   0.147136   0.198642  -0.004732   0.051543
    128       0.028589   0.075170  -0.005522  -0.076974  -0.040543  -0.066611
    129       0.029821   0.100698  -0.045093   0.132205   0.219310  -0.110851
    130       0.044943  -0.011080   0.151120   0.257573   0.024794   0.104742
    131       0.058485   0.085368  -0.009551  -0.056482  -0.016279  -0.056675
    132      -0.078575   0.073313   0.019505   0.137687   0.141430  -0.161657
    133       0.012291  -0.014052   0.128084   0.186431   0.003354   0.072295
    134      -0.056154   0.062354   0.007538  -0.138026  -0.096379  -0.130043
    135      -0.057060   0.050040  -0.028793   0.087453   0.132198  -0.093576
    136      -0.091557  -0.009963   0.197009   0.192622  -0.046822  -0.041883
    137       0.070846   0.102384  -0.009022  -0.048668   0.004103  -0.079992
                 12         13         14         15         16         17    
      0      -0.107622   0.004317  -0.077824  -0.066629  -0.010666   0.001855
      1       0.034387   0.007077  -0.101574  -0.079002  -0.016564  -0.014366
      2       0.097051  -0.001787  -0.072757  -0.028200  -0.003683  -0.040926
      3       0.002147  -0.044293  -0.076940  -0.051375  -0.008670   0.010212
      4      -0.010193  -0.045402  -0.116526  -0.093775  -0.003645   0.074168
      5       0.125202  -0.036966  -0.077109  -0.027207   0.001091  -0.009325
      6       0.078017  -0.042596   0.005895   0.020600  -0.005453   0.005139
      7      -0.028857  -0.029833  -0.004693  -0.011887   0.006646   0.112475
      8       0.032849  -0.020406  -0.019487   0.004054   0.010185   0.041181
      9       0.040119   0.011352   0.083273   0.072856  -0.003445  -0.010811
     10      -0.002411   0.043579   0.117632   0.080531   0.005972   0.059238
     11      -0.088224   0.034642   0.040152   0.034222   0.016580   0.059432
     12      -0.069459   0.060691   0.082431   0.061431  -0.004764  -0.020753
     13       0.043704   0.096492   0.133772   0.102504  -0.005861  -0.031996
     14      -0.115029   0.070350   0.044780   0.036617   0.012322   0.026701
     15      -0.143863   0.057378   0.004153  -0.007044  -0.008974  -0.015265
     16       0.061327   0.078616   0.027186   0.024176  -0.017926  -0.069031
     17      -0.023168   0.052224  -0.009744   0.006833   0.001901  -0.023536
     18       0.030338  -0.083105  -0.136794  -0.092757  -0.010374   0.021115
     19      -0.032491  -0.097796  -0.213293  -0.170171  -0.004023   0.114663
     20       0.216306  -0.077232  -0.123318  -0.050050  -0.003030  -0.023943
     21       0.096874   0.014531   0.140685   0.118819  -0.000606  -0.019615
     22      -0.018657   0.058240   0.197763   0.134557   0.014767   0.085554
     23      -0.158786   0.049143   0.081817   0.056319   0.024196   0.098621
     24      -0.229159   0.095670   0.005569  -0.015157  -0.010773  -0.024296
     25       0.095438   0.120567   0.043602   0.042300  -0.027900  -0.139715
     26      -0.045380   0.080319  -0.004068   0.009384  -0.001989  -0.049455
     27       0.027952   0.063397  -0.056340   0.030927  -0.071195   0.011732
     28      -0.009632  -0.118026  -0.023289   0.095964   0.174770  -0.060719
     29       0.048772   0.104390  -0.007405  -0.019311  -0.056863   0.012016
[...]
  13:        56.47    0.000000  (  0.000000   0.000000   0.000000)
  14:        63.52    0.000000  (  0.000000   0.000000   0.000000)
  15:        76.36    0.000000  (  0.000000   0.000000   0.000000)
  16:        82.46    0.000000  (  0.000000   0.000000   0.000000)
  17:        84.74    0.000000  (  0.000000   0.000000   0.000000)
  18:       111.59    0.000000  (  0.000000   0.000000   0.000000)
  19:       116.18    0.000000  (  0.000000   0.000000   0.000000)
  20:       133.92    0.000000  (  0.000000   0.000000   0.000000)
  21:       139.96    0.000000  (  0.000000   0.000000   0.000000)
  22:       151.36    0.000000  (  0.000000   0.000000   0.000000)
  23:       203.13    0.000000  (  0.000000   0.000000   0.000000)
  24:       205.15    0.000000  (  0.000000   0.000000   0.000000)
  25:       217.31    0.000000  (  0.000000   0.000000   0.000000)
  26:       256.87    0.000000  (  0.000000   0.000000   0.000000)
  27:       261.38    0.000000  (  0.000000   0.000000   0.000000)
  28:       273.71    0.000000  (  0.000000   0.000000   0.000000)
  29:       319.28    0.000000  (  0.000000   0.000000   0.000000)
  30:       380.74    0.000000  (  0.000000   0.000000   0.000000)
  31:       391.56    0.000000  (  0.000000   0.000000   0.000000)
  32:       392.84    0.000000  (  0.000000   0.000000   0.000000)
  33:       396.90    0.000000  (  0.000000   0.000000   0.000000)
  34:       426.06    0.000000  (  0.000000   0.000000   0.000000)
  35:       432.27    0.000000  (  0.000000   0.000000   0.000000)
  36:       438.82    0.000000  (  0.000000   0.000000   0.000000)
  37:       444.00    0.000000  (  0.000000   0.000000   0.000000)
  38:       587.08    0.000000  (  0.000000   0.000000   0.000000)
  39:       627.13    0.000000  (  0.000000   0.000000   0.000000)
  40:       659.90    0.000000  (  0.000000   0.000000   0.000000)
  41:       745.21    0.000000  (  0.000000   0.000000   0.000000)
  42:       768.51    0.000000  (  0.000000   0.000000   0.000000)
  43:       771.29    0.000000  (  0.000000   0.000000   0.000000)
  44:       816.35    0.000000  (  0.000000   0.000000   0.000000)
  45:       822.54    0.000000  (  0.000000   0.000000   0.000000)
  46:       827.48    0.000000  (  0.000000   0.000000   0.000000)
  47:       878.25    0.000000  (  0.000000   0.000000   0.000000)
  48:       898.30    0.000000  (  0.000000   0.000000   0.000000)
  49:       919.29    0.000000  (  0.000000   0.000000   0.000000)
  50:       920.54    0.000000  (  0.000000   0.000000   0.000000)
  51:       922.33    0.000000  (  0.000000   0.000000   0.000000)
  52:       933.41    0.000000  (  0.000000   0.000000   0.000000)
  53:       934.12    0.000000  (  0.000000   0.000000   0.000000)
  54:       936.28    0.000000  (  0.000000   0.000000   0.000000)
  55:       938.34    0.000000  (  0.000000   0.000000   0.000000)
  56:       971.99    0.000000  (  0.000000   0.000000   0.000000)
  57:       980.84    0.000000  (  0.000000   0.000000   0.000000)
  58:       985.00    0.000000  (  0.000000   0.000000   0.000000)
  59:      1011.30    0.000000  (  0.000000   0.000000   0.000000)
  60:      1015.90    0.000000  (  0.000000   0.000000   0.000000)
  61:      1059.48    0.000000  (  0.000000   0.000000   0.000000)
  62:      1065.97    0.000000  (  0.000000   0.000000   0.000000)
  63:      1068.33    0.000000  (  0.000000   0.000000   0.000000)
  64:      1086.72    0.000000  (  0.000000   0.000000   0.000000)
  65:      1099.77    0.000000  (  0.000000   0.000000   0.000000)
  66:      1103.40    0.000000  (  0.000000   0.000000   0.000000)
  67:      1113.32    0.000000  (  0.000000   0.000000   0.000000)
  68:      1123.19    0.000000  (  0.000000   0.000000   0.000000)
  69:      1135.46    0.000000  (  0.000000   0.000000   0.000000)
  70:      1149.97    0.000000  (  0.000000   0.000000   0.000000)
  71:      1175.09    0.000000  (  0.000000   0.000000   0.000000)
  72:      1181.50    0.000000  (  0.000000   0.000000   0.000000)
  73:      1203.23    0.000000  (  0.000000   0.000000   0.000000)
  74:      1206.37    0.000000  (  0.000000   0.000000   0.000000)
  75:      1209.12    0.000000  (  0.000000   0.000000   0.000000)
  76:      1236.07    0.000000  (  0.000000   0.000000   0.000000)
  77:      1261.51    0.000000  (  0.000000   0.000000   0.000000)
  78:      1269.29    0.000000  (  0.000000   0.000000   0.000000)
  79:      1272.52    0.000000  (  0.000000   0.000000   0.000000)
  80:      1276.84    0.000000  (  0.000000   0.000000   0.000000)
  81:      1279.65    0.000000  (  0.000000   0.000000   0.000000)
  82:      1281.83    0.000000  (  0.000000   0.000000   0.000000)
  83:      1294.06    0.000000  (  0.000000   0.000000   0.000000)
  84:      1302.49    0.000000  (  0.000000   0.000000   0.000000)
  85:      1309.73    0.000000  (  0.000000   0.000000   0.000000)
  86:      1336.74    0.000000  (  0.000000   0.000000   0.000000)
  87:      1354.01    0.000000  (  0.000000   0.000000   0.000000)
  88:      1359.73    0.000000  (  0.000000   0.000000   0.000000)
  89:      1372.86    0.000000  (  0.000000   0.000000   0.000000)
  90:      1379.67    0.000000  (  0.000000   0.000000   0.000000)
  91:      1426.81    0.000000  (  0.000000   0.000000   0.000000)
  92:      1427.38    0.000000  (  0.000000   0.000000   0.000000)
  93:      1427.75    0.000000  (  0.000000   0.000000   0.000000)
  94:      1448.85    0.000000  (  0.000000   0.000000   0.000000)
  95:      1492.23    0.000000  (  0.000000   0.000000   0.000000)
  96:      1502.60    0.000000  (  0.000000   0.000000   0.000000)
  97:      1503.39    0.000000  (  0.000000   0.000000   0.000000)
  98:      1505.11    0.000000  (  0.000000   0.000000   0.000000)
  99:      1505.85    0.000000  (  0.000000   0.000000   0.000000)
 100:      1506.62    0.000000  (  0.000000   0.000000   0.000000)
 101:      1508.56    0.000000  (  0.000000   0.000000   0.000000)
 102:      1508.69    0.000000  (  0.000000   0.000000   0.000000)
 103:      1512.07    0.000000  (  0.000000   0.000000   0.000000)
 104:      1512.13    0.000000  (  0.000000   0.000000   0.000000)
 105:      1556.17    0.000000  (  0.000000   0.000000   0.000000)
 106:      1561.20    0.000000  (  0.000000   0.000000   0.000000)
 107:      1568.66    0.000000  (  0.000000   0.000000   0.000000)
 108:      1569.51    0.000000  (  0.000000   0.000000   0.000000)
 109:      1666.01    0.000000  (  0.000000   0.000000   0.000000)
 110:      2834.88    0.000000  (  0.000000   0.000000   0.000000)
 111:      2850.62    0.000000  (  0.000000   0.000000   0.000000)
 112:      2928.24    0.000000  (  0.000000   0.000000   0.000000)
 113:      2929.02    0.000000  (  0.000000   0.000000   0.000000)
 114:      2941.99    0.000000  (  0.000000   0.000000   0.000000)
 115:      2942.70    0.000000  (  0.000000   0.000000   0.000000)
 116:      2952.84    0.000000  (  0.000000   0.000000   0.000000)
 117:      2955.60    0.000000  (  0.000000   0.000000   0.000000)
 118:      2960.83    0.000000  (  0.000000   0.000000   0.000000)
 119:      2963.16    0.000000  (  0.000000   0.000000   0.000000)
 120:      2965.15    0.000000  (  0.000000   0.000000   0.000000)
 121:      2974.74    0.000000  (  0.000000   0.000000   0.000000)
 122:      2977.54    0.000000  (  0.000000   0.000000   0.000000)
 123:      2978.25    0.000000  (  0.000000   0.000000   0.000000)
 124:      2978.65    0.000000  (  0.000000   0.000000   0.000000)
 125:      2983.46    0.000000  (  0.000000   0.000000   0.000000)
 126:      2983.80    0.000000  (  0.000000   0.000000   0.000000)
 127:      2995.86    0.000000  (  0.000000   0.000000   0.000000)
 128:      2995.92    0.000000  (  0.000000   0.000000   0.000000)
 129:      3057.21    0.000000  (  0.000000   0.000000   0.000000)
 130:      3061.10    0.000000  (  0.000000   0.000000   0.000000)
 131:      3066.31    0.000000  (  0.000000   0.000000   0.000000)
 132:      3072.39    0.000000  (  0.000000   0.000000   0.000000)
 133:      3078.07    0.000000  (  0.000000   0.000000   0.000000)
 134:      3321.66    0.000000  (  0.000000   0.000000   0.000000)
 135:      3380.82    0.000000  (  0.000000   0.000000   0.000000)
 136:      3401.90    0.000000  (  0.000000   0.000000   0.000000)
 137:      3410.04    0.000000  (  0.000000   0.000000   0.000000)

The first frequency considered to be a vibration is 8
The total number of vibrations considered is 130


--------------------------
THERMOCHEMISTRY AT 298.15K
--------------------------

Temperature         ... 298.15 K
Pressure            ... 1.00 atm
Total Mass          ... 252.40 AMU

Throughout the following assumptions are being made:
  (1) The electronic state is orbitally nondegenerate
  (2) There are no thermally accessible electronically excited states
  (3) Hindered rotations indicated by low frequency modes are not
      treated as such but are treated as vibrations and this may
      cause some error
  (4) All equations used are the standard statistical mechanics
      equations for an ideal gas
  (5) All vibrations are strictly harmonic

freq.      26.26  E(vib)   ...       0.56 
freq.      32.75  E(vib)   ...       0.55 
freq.      40.55  E(vib)   ...       0.54 
freq.      43.43  E(vib)   ...       0.53 
freq.      49.63  E(vib)   ...       0.52 
freq.      56.47  E(vib)   ...       0.52 
freq.      63.52  E(vib)   ...       0.51 
freq.      76.36  E(vib)   ...       0.49 
freq.      82.46  E(vib)   ...       0.48 
freq.      84.74  E(vib)   ...       0.48 
freq.     111.59  E(vib)   ...       0.45 
freq.     116.18  E(vib)   ...       0.44 
freq.     133.92  E(vib)   ...       0.42 
freq.     139.96  E(vib)   ...       0.41 
freq.     151.36  E(vib)   ...       0.40 
freq.     203.13  E(vib)   ...       0.35 
freq.     205.15  E(vib)   ...       0.35 
freq.     217.31  E(vib)   ...       0.34 
freq.     256.87  E(vib)   ...       0.30 
freq.     261.38  E(vib)   ...       0.30 
freq.     273.71  E(vib)   ...       0.28 
freq.     319.28  E(vib)   ...       0.25 
freq.     380.74  E(vib)   ...       0.21 
freq.     391.56  E(vib)   ...       0.20 
freq.     392.84  E(vib)   ...       0.20 
freq.     396.90  E(vib)   ...       0.20 
freq.     426.06  E(vib)   ...       0.18 
freq.     432.27  E(vib)   ...       0.18 
freq.     438.82  E(vib)   ...       0.17 
freq.     444.00  E(vib)   ...       0.17 
freq.     587.08  E(vib)   ...       0.10 
freq.     627.13  E(vib)   ...       0.09 
freq.     659.90  E(vib)   ...       0.08 
freq.     745.21  E(vib)   ...       0.06 
freq.     768.51  E(vib)   ...       0.06 
freq.     771.29  E(vib)   ...       0.05 
freq.     816.35  E(vib)   ...       0.05 
freq.     822.54  E(vib)   ...       0.05 
freq.     827.48  E(vib)   ...       0.04 
freq.     878.25  E(vib)   ...       0.04 
freq.     898.30  E(vib)   ...       0.03 
freq.     919.29  E(vib)   ...       0.03 
freq.     920.54  E(vib)   ...       0.03 
freq.     922.33  E(vib)   ...       0.03 
freq.     933.41  E(vib)   ...       0.03 
freq.     934.12  E(vib)   ...       0.03 
freq.     936.28  E(vib)   ...       0.03 
freq.     938.34  E(vib)   ...       0.03 
freq.     971.99  E(vib)   ...       0.03 
freq.     980.84  E(vib)   ...       0.02 
freq.     985.00  E(vib)   ...       0.02 
freq.    1011.30  E(vib)   ...       0.02 
freq.    1015.90  E(vib)   ...       0.02 
freq.    1059.48  E(vib)   ...       0.02 
freq.    1065.97  E(vib)   ...       0.02 
freq.    1068.33  E(vib)   ...       0.02 
freq.    1086.72  E(vib)   ...       0.02 
freq.    1099.77  E(vib)   ...       0.02 
freq.    1103.40  E(vib)   ...       0.02 
freq.    1113.32  E(vib)   ...       0.01 
freq.    1123.19  E(vib)   ...       0.01 
freq.    1135.46  E(vib)   ...       0.01 
freq.    1149.97  E(vib)   ...       0.01 
freq.    1175.09  E(vib)   ...       0.01 
freq.    1181.50  E(vib)   ...       0.01 
freq.    1203.23  E(vib)   ...       0.01 
freq.    1206.37  E(vib)   ...       0.01 
freq.    1209.12  E(vib)   ...       0.01 
freq.    1236.07  E(vib)   ...       0.01 
freq.    1261.51  E(vib)   ...       0.01 
freq.    1269.29  E(vib)   ...       0.01 
freq.    1272.52  E(vib)   ...       0.01 
freq.    1276.84  E(vib)   ...       0.01 
freq.    1279.65  E(vib)   ...       0.01 
freq.    1281.83  E(vib)   ...       0.01 
freq.    1294.06  E(vib)   ...       0.01 
freq.    1302.49  E(vib)   ...       0.01 
freq.    1309.73  E(vib)   ...       0.01 
freq.    1336.74  E(vib)   ...       0.01 
freq.    1354.01  E(vib)   ...       0.01 
freq.    1359.73  E(vib)   ...       0.01 
freq.    1372.86  E(vib)   ...       0.01 
freq.    1379.67  E(vib)   ...       0.01 
freq.    1426.81  E(vib)   ...       0.00 
freq.    1427.38  E(vib)   ...       0.00 
freq.    1427.75  E(vib)   ...       0.00 
freq.    1448.85  E(vib)   ...       0.00 
freq.    1492.23  E(vib)   ...       0.00 
freq.    1502.60  E(vib)   ...       0.00 
freq.    1503.39  E(vib)   ...       0.00 
freq.    1505.11  E(vib)   ...       0.00 
freq.    1505.85  E(vib)   ...       0.00 
freq.    1506.62  E(vib)   ...       0.00 
freq.    1508.56  E(vib)   ...       0.00 
freq.    1508.69  E(vib)   ...       0.00 
freq.    1512.07  E(vib)   ...       0.00 
freq.    1512.13  E(vib)   ...       0.00 
freq.    1556.17  E(vib)   ...       0.00 
freq.    1561.20  E(vib)   ...       0.00 
freq.    1568.66  E(vib)   ...       0.00 
freq.    1569.51  E(vib)   ...       0.00 
freq.    1666.01  E(vib)   ...       0.00 
freq.    2834.88  E(vib)   ...       0.00 
freq.    2850.62  E(vib)   ...       0.00 
freq.    2928.24  E(vib)   ...       0.00 
freq.    2929.02  E(vib)   ...       0.00 
freq.    2941.99  E(vib)   ...       0.00 
freq.    2942.70  E(vib)   ...       0.00 
freq.    2952.84  E(vib)   ...       0.00 
freq.    2955.60  E(vib)   ...       0.00 
freq.    2960.83  E(vib)   ...       0.00 
freq.    2963.16  E(vib)   ...       0.00 
freq.    2965.15  E(vib)   ...       0.00 
freq.    2974.74  E(vib)   ...       0.00 
freq.    2977.54  E(vib)   ...       0.00 
freq.    2978.25  E(vib)   ...       0.00 
freq.    2978.65  E(vib)   ...       0.00 
freq.    2983.46  E(vib)   ...       0.00 
freq.    2983.80  E(vib)   ...       0.00 
freq.    2995.86  E(vib)   ...       0.00 
freq.    2995.92  E(vib)   ...       0.00 
freq.    3057.21  E(vib)   ...       0.00 
freq.    3061.10  E(vib)   ...       0.00 
freq.    3066.31  E(vib)   ...       0.00 
freq.    3072.39  E(vib)   ...       0.00 
freq.    3078.07  E(vib)   ...       0.00 
freq.    3321.66  E(vib)   ...       0.00 
freq.    3380.82  E(vib)   ...       0.00 
freq.    3401.90  E(vib)   ...       0.00 
freq.    3410.04  E(vib)   ...       0.00 

------------
INNER ENERGY
------------

The inner energy is: U= E(el) + E(ZPE) + E(vib) + E(rot) + E(trans)
    E(el)   - is the total energy from the electronic structure calculation
              = E(kin-el) + E(nuc-el) + E(el-el) + E(nuc-nuc)
    E(ZPE)  - the the zero temperature vibrational energy from the frequency calculation
    E(vib)  - the the finite temperature correction to E(ZPE) due to population
              of excited vibrational states
    E(rot)  - is the rotational thermal energy
    E(trans)- is the translational thermal energy

Summary of contributions to the inner energy U:
Electronic energy                ...    -56.28080977 Eh
Zero point energy                ...      0.40173412 Eh     252.09 kcal/mol
Thermal vibrational correction   ...      0.01961759 Eh      12.31 kcal/mol
Thermal rotational correction    ...      0.00141627 Eh       0.89 kcal/mol
Thermal translational correction ...      0.00141627 Eh       0.89 kcal/mol
-----------------------------------------------------------------------
Total thermal energy                    -55.85662551 Eh


Summary of corrections to the electronic energy:
(perhaps to be used in another calculation)
Total thermal correction                  0.02245014 Eh      14.09 kcal/mol
Non-thermal (ZPE) correction              0.40173412 Eh     252.09 kcal/mol
-----------------------------------------------------------------------
Total correction                          0.42418426 Eh     266.18 kcal/mol


--------
ENTHALPY
--------

The enthalpy is H = U + kB*T
                kB is Boltzmann's constant
Total free energy                 ...    -55.85662551 Eh 
Thermal Enthalpy correction       ...      0.00094421 Eh       0.59 kcal/mol
-----------------------------------------------------------------------
Total Enthalpy                    ...    -55.85568130 Eh


Note: Only C1 symmetry has been detected, increase convergence thresholds 
      if your molecule has a higher symmetry. Symmetry factor of 1.0 is   
      used for the rotational entropy correction. 
 

Note: Rotational entropy computed according to Herzberg 
Infrared and Raman Spectra, Chapter V,1, Van Nostrand Reinhold, 1945 
Point Group:  C1, Symmetry Number:   1  
Rotational constants in cm-1:     0.009391     0.007464     0.004549 

Vibrational entropy computed according to the QRRHO of S. Grimme
Chem.Eur.J. 2012 18 9955


-------
ENTROPY
-------

The entropy contributions are T*S = T*(S(el)+S(vib)+S(rot)+S(trans))
     S(el)   - electronic entropy
     S(vib)  - vibrational entropy
     S(rot)  - rotational entropy
     S(trans)- translational entropy
The entropies will be listed as mutliplied by the temperature to get
units of energy

Electronic entropy                ...      0.00000000 Eh      0.00 kcal/mol
Vibrational entropy               ...      0.03605665 Eh     22.63 kcal/mol
Rotational entropy                ...      0.01657257 Eh     10.40 kcal/mol
Translational entropy             ...      0.02018250 Eh     12.66 kcal/mol
-----------------------------------------------------------------------
Final entropy term                ...      0.07281173 Eh     45.69 kcal/mol

In case the symmetry of your molecule has not been determined correctly
or in case you have a reason to use a different symmetry number we print 
out the resulting rotational entropy values for sn=1,12 :
 --------------------------------------------------------
|  sn= 1 | S(rot)=       0.01657257 Eh     10.40 kcal/mol|
|  sn= 2 | S(rot)=       0.01591812 Eh      9.99 kcal/mol|
|  sn= 3 | S(rot)=       0.01553528 Eh      9.75 kcal/mol|
|  sn= 4 | S(rot)=       0.01526366 Eh      9.58 kcal/mol|
|  sn= 5 | S(rot)=       0.01505297 Eh      9.45 kcal/mol|
|  sn= 6 | S(rot)=       0.01488083 Eh      9.34 kcal/mol|
|  sn= 7 | S(rot)=       0.01473528 Eh      9.25 kcal/mol|
|  sn= 8 | S(rot)=       0.01460920 Eh      9.17 kcal/mol|
|  sn= 9 | S(rot)=       0.01449799 Eh      9.10 kcal/mol|
|  sn=10 | S(rot)=       0.01439851 Eh      9.04 kcal/mol|
|  sn=11 | S(rot)=       0.01430852 Eh      8.98 kcal/mol|
|  sn=12 | S(rot)=       0.01422637 Eh      8.93 kcal/mol|
 --------------------------------------------------------


-------------------
GIBBS FREE ENERGY
-------------------

The Gibbs free energy is G = H - T*S

Total enthalpy                    ...    -55.85568130 Eh 
Total entropy correction          ...     -0.07281173 Eh    -45.69 kcal/mol
-----------------------------------------------------------------------
Final Gibbs free energy         ...    -55.92849302 Eh

For completeness - the Gibbs free energy minus the electronic energy
G-E(el)                           ...      0.35231674 Eh    221.08 kcal/mol


Total Time for Numerical Frequencies  :       112.170 sec
Time for Reference State(s)           :         0.126 sec
Time for Displacements                :        99.045 sec

Timings for individual modules:

Sum of individual times         ...        0.259 sec (=   0.004 min)
XTB module                      ...        0.259 sec (=   0.004 min) 100.0 %
                             ****ORCA TERMINATED NORMALLY****
TOTAL RUN TIME: 0 days 0 hours 1 minutes 52 seconds 944 msec
(SLURM) EXECUTION TIME: 112.998800216 seconds.
