
                                 *****************
                                 * O   R   C   A *
                                 *****************

           --- An Ab Initio, DFT and Semiempirical electronic structure package ---

                  #######################################################
                  #                        -***-                        #
                  #          Department of theory and spectroscopy      #
                  #               Directorship: Frank Neese             #
                  #        Max Planck Institute fuer Kohlenforschung    #
                  #                Kaiser Wilhelm Platz 1               #
                  #                 D-45470 Muelheim/Ruhr               #
                  #                      Germany                        #
                  #                                                     #
                  #                  All rights reserved                #
                  #                        -***-                        #
                  #######################################################


                         Program Version 4.2.1 -  RELEASE  -


 With contributions from (in alphabetic order):
   Daniel Aravena         : Magnetic Suceptibility
   Michael Atanasov       : Ab Initio Ligand Field Theory (pilot matlab implementation)
   Alexander A. Auer      : GIAO ZORA, VPT2
   Ute Becker             : Parallelization
   Giovanni Bistoni       : ED, misc. LED, open-shell LED, HFLD
   Martin Brehm           : Molecular dynamics
   Dmytro Bykov           : SCF Hessian
   Vijay G. Chilkuri      : MRCI spin determinant printing, contributions to CSF-ICE
   Dipayan Datta          : RHF DLPNO-CCSD density
   Achintya Kumar Dutta   : EOM-CC, STEOM-CC
   Dmitry Ganyushin       : Spin-Orbit,Spin-Spin,Magnetic field MRCI
   Miquel Garcia          : C-PCM Hessian, Gaussian charge scheme
   Yang Guo               : DLPNO-NEVPT2, CIM, IAO-localization
   Andreas Hansen         : Spin unrestricted coupled pair/coupled cluster methods
   Benjamin Helmich-Paris : CASSCF linear response (MC-RPA)
   Lee Huntington         : MR-EOM, pCC
   Robert Izsak           : Overlap fitted RIJCOSX, COSX-SCS-MP3, EOM
   Christian Kollmar      : KDIIS, OOCD, Brueckner-CCSD(T), CCSD density
   Simone Kossmann        : Meta GGA functionals, TD-DFT gradient, OOMP2, MP2 Hessian
   Martin Krupicka        : AUTO-CI
   Lucas Lang             : DCDCAS
   Dagmar Lenk            : GEPOL surface, SMD
   Dimitrios Liakos       : Extrapolation schemes; Compound Job, initial MDCI parallelization
   Dimitrios Manganas     : Further ROCIS development; embedding schemes
   Dimitrios Pantazis     : SARC Basis sets
   Taras Petrenko         : DFT Hessian,TD-DFT gradient, ASA, ECA, R-Raman, ABS, FL, XAS/XES, NRVS
   Peter Pinski           : DLPNO-MP2, DLPNO-MP2 Gradient
   Christoph Reimann      : Effective Core Potentials
   Marius Retegan         : Local ZFS, SOC
   Christoph Riplinger    : Optimizer, TS searches, QM/MM, DLPNO-CCSD(T), (RO)-DLPNO pert. Triples
   Tobias Risthaus        : Range-separated hybrids, TD-DFT gradient, RPA, STAB
   Michael Roemelt        : Original ROCIS implementation
   Masaaki Saitow         : Open-shell DLPNO-CCSD energy and density
   Barbara Sandhoefer     : DKH picture change effects
   Avijit Sen             : IP-ROCIS
   Kantharuban Sivalingam : CASSCF convergence, NEVPT2, FIC-MRCI
   Bernardo de Souza      : ESD, SOC TD-DFT
   Georgi Stoychev        : AutoAux, RI-MP2 NMR
   Willem Van den Heuvel  : Paramagnetic NMR
   Boris Wezisla          : Elementary symmetry handling
   Frank Wennmohs         : Technical directorship


 We gratefully acknowledge several colleagues who have allowed us to
 interface, adapt or use parts of their codes:
   Stefan Grimme, W. Hujo, H. Kruse,             : VdW corrections, initial TS optimization,
                  C. Bannwarth                     DFT functionals, gCP, sTDA/sTD-DF
   Ed Valeev, F. Pavosevic, A. Kumar             : LibInt (2-el integral package), F12 methods
   Garnet Chan, S. Sharma, J. Yang, R. Olivares  : DMRG
   Ulf Ekstrom                                   : XCFun DFT Library
   Mihaly Kallay                                 : mrcc  (arbitrary order and MRCC methods)
   Andreas Klamt, Michael Diedenhofen            : otool_cosmo (COSMO solvation model)
   Jiri Pittner, Ondrej Demel                    : Mk-CCSD
   Frank Weinhold                                : gennbo (NPA and NBO analysis)
   Christopher J. Cramer and Donald G. Truhlar   : smd solvation model
   Lars Goerigk                                  : TD-DFT with DH, B97 family of functionals
   V. Asgeirsson, H. Jonsson                     : NEB implementation
   FAccTs GmbH                                   : IRC, NEB, NEB-TS, Multilevel, MM, QM/MM, CI optimization
   S Lehtola, MJT Oliveira, MAL Marques          : LibXC Library


 Your calculation uses the libint2 library for the computation of 2-el integrals
 For citations please refer to: http://libint.valeyev.net

 Your ORCA version has been built with support for libXC version: 4.2.3
 For citations please refer to: https://tddft.org/programs/libxc/

 This ORCA versions uses:
   CBLAS   interface :  Fast vector & matrix operations
   LAPACKE interface :  Fast linear algebra routines
   SCALAPACK package :  Parallel linear algebra routines


----- Orbital basis set information -----
Your calculation utilizes the basis: 6-311G(2d,2p)
   H, Li - Ne  : R. Krishnan, J. S. Binkley, R. Seeger and J. A. Pople, J. Chem. Phys. 72, 650 (1980).
   Na - Ar     : A. D. McLean and G. S. Chandler J. Chem. Phys. 72, 5639, (1980).
   K  - Ca     : J.-P. Blaudeau, M. P. McGrath, L. A. Curtiss and L. Radom, J. Chem. Phys. 107, 5016 (1997).
   Ga - Kr     : L. A. Curtiss, M. P. McGrath, J.-P. Blandeau, N. E. Davis, R. C. Binning and L. Radom, J. Chem. Phys. 103, 6104 (1995).
   Pol./Diff.
   H, Li - Cl  : T. Clark, J. Chandrasekhar and P. v. R. Schleyer, J. Comp. Chem. 4, 294 (1983).
   H - Ne      : M. J. Frisch, J. A. Pople and J. S. Binkley, J. Chem. Phys. 80, 3265 (1984).

================================================================================
                                        WARNINGS
                       Please study these warnings very carefully!
================================================================================


WARNING: Geometry Optimization
  ===> : Switching off AutoStart
         For restart on a previous wavefunction, please use MOREAD

WARNING: Post HF methods need fully converged wavefunctions
  ===> : Setting SCFConvForced true
         You can overwrite this default with %scf ConvForced false 


INFO   : the flag for use of LIBINT has been found!

================================================================================
                                       INPUT FILE
================================================================================
NAME = H3CHCl‡.inp
|  1> ! UHF MP2 6-311G(2d,2p) OptTS Freq IRC NoFrozenCore TightOpt TightSCF Grid4 FinalGrid5 PrintBasis PrintMOs NBO
|  2> %maxcore 2000
|  3> 
|  4> *xyz 0 2
|  5>   C   0.00005468831664     -0.00000559580161      1.93601537537498
|  6>   H   -1.05703454181289      0.00008075588911      2.15573343429073
|  7>   H   0.52858240498983     -0.91548317740192      2.15572708662685
|  8>   H   -0.00006407152077     -0.00019733782514      0.59605671160218
|  9>   H   0.52867354777137      0.91548262611360      2.15546221644432
| 10>   Cl  -0.00021002774417      0.00012272902596     -0.85470582433906
| 11> *
| 12> 
| 13> %pal
| 14>  nprocs 12
| 15> end
| 16> 
| 17> %geom
| 18>  inhess read
| 19>  inhessname "freq.hess"
| 20>  ts_mode
| 21>   {B 0 3}
| 22>  end
| 23>  ts_active_atoms
| 24>   {0 3 5}
| 25>  end
| 26>  modify_internal
| 27>   {B 0 3 A}
| 28>   {B 3 5 A}
| 29>  end
| 30> end
| 31> 
| 32> %irc
| 33>  maxiter 1000
| 34>  de_init_displ 0.25
| 35> end
| 36> 
| 37>                          ****END OF INPUT****
================================================================================

                       *****************************
                       * Geometry Optimization Run *
                       *****************************

Geometry optimization settings:
Update method            Update   .... Bofill
Choice of coordinates    CoordSys .... Z-matrix Internals
Initial Hessian          InHess   .... Read

Convergence Tolerances:
Energy Change            TolE     ....  1.0000e-06 Eh
Max. Gradient            TolMAXG  ....  1.0000e-04 Eh/bohr
RMS Gradient             TolRMSG  ....  3.0000e-05 Eh/bohr
Max. Displacement        TolMAXD  ....  1.0000e-03 bohr
RMS Displacement         TolRMSD  ....  6.0000e-04 bohr
Strict Convergence                ....  False
------------------------------------------------------------------------------
                        ORCA OPTIMIZATION COORDINATE SETUP
------------------------------------------------------------------------------

The optimization will be done in new redundant internal coordinates
Making redundant internal coordinates   ...  (new redundants) Bond   3,  0 is already included
Bond   5,  3 is already included
done
Following TS mode number                ...    internal coordinate number:  3
TS-active-atoms for coordinate setup... 0 3 5 
Evaluating the initial hessian          ... (Reading Exact Hessian)...  
InHessName: freq.hess	The file <freq.hess> is opened as a .hess file
done
done
Diagonalizing the Hessian               .... done
Dimension of the hessian                .... 14
Lowest eigenvalues of the non projected Hessian:
 -0.028644101 -0.000000000 -0.000000000  0.001915762  0.024222026
done
Evaluating the coordinates              ...  done
Calculating the B-matrix                .... done
Calculating the G-matrix                .... done
Diagonalizing the G-matrix              .... done
The first mode is                       ....    2
The number of degrees of freedom        ....   12

    -----------------------------------------------------------------
                    Redundant Internal Coordinates


    -----------------------------------------------------------------
         Definition                    Initial Value    d2E/dq (diagonal element)
    -----------------------------------------------------------------
      1. B(H   1,C   0)                  1.0797         0.369466   
      2. B(H   2,C   0)                  1.0797         0.369468   
      3. B(H   3,C   0)                  1.3400        -0.009533   
      4. B(H   4,C   0)                  1.0797         0.369469   
      5. B(Cl  5,C   0)                  2.7907         0.039989   
      6. B(Cl  5,H   3)                  1.4508         0.015899   
      7. A(H   1,C   0,H   2)          115.9721         0.084142   
      8. A(H   1,C   0,H   4)          115.9719         0.084143   
      9. A(H   1,C   0,H   3)          101.7368         0.068690   
     10. A(H   2,C   0,H   4)          115.9721         0.084144   
     11. A(H   3,C   0,H   4)          101.7368         0.068694   
     12. A(H   2,C   0,H   3)          101.7369         0.068685   
     13. L(C   0,H   3,Cl  5,H   1, 1) 179.9993         0.024580   
     14. L(C   0,H   3,Cl  5,H   1, 2) 179.9629         0.001934   
    -----------------------------------------------------------------

Number of atoms                         .... 6
Number of degrees of freedom            .... 14

         *************************************************************
         *                GEOMETRY OPTIMIZATION CYCLE   1            *
         *************************************************************
---------------------------------
CARTESIAN COORDINATES (ANGSTROEM)
---------------------------------
  C      0.000055   -0.000006    1.936015
  H     -1.057035    0.000081    2.155733
  H      0.528582   -0.915483    2.155727
  H     -0.000064   -0.000197    0.596057
  H      0.528674    0.915483    2.155462
  Cl    -0.000210    0.000123   -0.854706

----------------------------
CARTESIAN COORDINATES (A.U.)
----------------------------
  NO LB      ZA    FRAG     MASS         X           Y           Z
   0 C     6.0000    0    12.011    0.000103   -0.000011    3.658539
   1 H     1.0000    0     1.008   -1.997506    0.000153    4.073746
   2 H     1.0000    0     1.008    0.998876   -1.730012    4.073734
   3 H     1.0000    0     1.008   -0.000121   -0.000373    1.126384
   4 H     1.0000    0     1.008    0.999048    1.730011    4.073233
   5 Cl   17.0000    0    35.453   -0.000397    0.000232   -1.615160

--------------------------------
INTERNAL COORDINATES (ANGSTROEM)
--------------------------------
 C      0   0   0     0.000000000000     0.00000000     0.00000000
 H      1   0   0     1.079682209414     0.00000000     0.00000000
 H      1   2   0     1.079682354105   115.97211770     0.00000000
 H      1   2   3     1.339958682754   101.73677494   109.40892566
 H      1   2   3     1.079682128727   115.97192867   218.81759741
 Cl     4   1   2     1.450762578590   179.97914936    88.11096460

---------------------------
INTERNAL COORDINATES (A.U.)
---------------------------
 C      0   0   0     0.000000000000     0.00000000     0.00000000
 H      1   0   0     2.040303687460     0.00000000     0.00000000
 H      1   2   0     2.040303960886   115.97211770     0.00000000
 H      1   2   3     2.532154941176   101.73677494   109.40892566
 H      1   2   3     2.040303534983   115.97192867   218.81759741
 Cl     4   1   2     2.741543958876   179.97914936    88.11096460

---------------------
BASIS SET INFORMATION
---------------------
There are 3 groups of distinct atoms

 Group   1 Type C   : 11s5p2d contracted to 4s3p2d pattern {6311/311/11}
 Group   2 Type H   : 5s2p contracted to 3s2p pattern {311/11}
 Group   3 Type Cl  : 13s10p2d contracted to 6s5p2d pattern {631111/52111/11}

Atom   0C    basis set group =>   1
Atom   1H    basis set group =>   2
Atom   2H    basis set group =>   2
Atom   3H    basis set group =>   2
Atom   4H    basis set group =>   2
Atom   5Cl   basis set group =>   3

-------------------------
BASIS SET IN INPUT FORMAT
-------------------------

 # Basis set for element : H 
 NewGTO H 
 S 3 
   1      33.8650000000      0.0254938145
   2       5.0947900000      0.1903731086
   3       1.1587900000      0.8521614860
 S 1 
   1       0.3258400000      1.0000000000
 S 1 
   1       0.1027410000      1.0000000000
 P 1 
   1       1.5000000000      1.0000000000
 P 1 
   1       0.3750000000      1.0000000000
  end;

 # Basis set for element : C 
 NewGTO C 
 S 6 
   1    4563.2400000000      0.0019666502
   2     682.0240000000      0.0152306019
   3     154.9730000000      0.0761269097
   4      44.4553000000      0.2608010331
   5      13.0290000000      0.6164620782
   6       1.8277300000      0.2210060280
 S 3 
   1      20.9642000000      0.1146600807
   2       4.8033100000      0.9199996477
   3       1.4593300000     -0.0030306821
 P 3 
   1      20.9642000000      0.0402486927
   2       4.8033100000      0.2375939567
   3       1.4593300000      0.8158538515
 S 1 
   1       0.4834560000      1.0000000000
 P 1 
   1       0.4834560000      1.0000000000
 S 1 
   1       0.1455850000      1.0000000000
 P 1 
   1       0.1455850000      1.0000000000
 D 1 
   1       1.2520000000      1.0000000000
 D 1 
   1       0.3130000000      1.0000000000
  end;

 # Basis set for element : Cl
 NewGTO Cl
 S 6 
   1  105819.0000000000      0.0007380002
   2   15872.0000000000      0.0057180019
   3    3619.6500000000      0.0294950099
   4    1030.8000000000      0.1172860392
   5     339.9080000000      0.3629491212
   6     124.5380000000      0.5841491951
 S 3 
   1     124.5380000000      0.1341769734
   2      49.5135000000      0.6242498762
   3      20.8056000000      0.2917559421
 S 1 
   1       6.5834600000      1.0000000000
 S 1 
   1       2.5646800000      1.0000000000
 S 1 
   1       0.5597630000      1.0000000000
 S 1 
   1       0.1832730000      1.0000000000
 P 5 
   1     589.7760000000      0.0023909997
   2     139.8490000000      0.0185039976
   3      45.1413000000      0.0813769893
   4      16.8733000000      0.2215519708
   5       6.7411000000      0.7725688983
 P 2 
   1       6.7411000000     -1.5722438126
   2       2.7715200000      0.9923888817
 P 1 
   1       1.0238700000      1.0000000000
 P 1 
   1       0.3813680000      1.0000000000
 P 1 
   1       0.1094370000      1.0000000000
 D 1 
   1       1.5000000000      1.0000000000
 D 1 
   1       0.3750000000      1.0000000000
  end;



           ************************************************************
           *        Program running with 12 parallel MPI-processes    *
           *              working on a common directory               *
           ************************************************************
------------------------------------------------------------------------------
                           ORCA GTO INTEGRAL CALCULATION
------------------------------------------------------------------------------

                         BASIS SET STATISTICS AND STARTUP INFO

 # of primitive gaussian shells          ...   71
 # of primitive gaussian functions       ...  133
 # of contracted shells                  ...   42
 # of contracted basis functions         ...   90
 Highest angular momentum                ...    2
 Maximum contraction depth               ...    6
 Integral package used                   ... LIBINT
 Integral threshhold            Thresh   ...  2.500e-11
 Primitive cut-off              TCut     ...  2.500e-12


------------------------------ INTEGRAL EVALUATION ----------------------------


 * One electron integrals 
 Pre-screening matrix                    ... done
 Shell pair data                         ... done (   0.000 sec)



           ************************************************************
           *        Program running with 12 parallel MPI-processes    *
           *              working on a common directory               *
           ************************************************************
-------------------------------------------------------------------------------
                                 ORCA SCF
-------------------------------------------------------------------------------

------------
SCF SETTINGS
------------
Hamiltonian:
 Ab initio Hamiltonian  Method          .... Hartree-Fock(GTOs)


General Settings:
 Integral files         IntName         .... H3CHCl‡
 Hartree-Fock type      HFTyp           .... UHF
 Total Charge           Charge          ....    0
 Multiplicity           Mult            ....    2
 Number of Electrons    NEL             ....   27
 Basis Dimension        Dim             ....   90
 Nuclear Repulsion      ENuc            ....     46.9022527593 Eh

Convergence Acceleration:
 DIIS                   CNVDIIS         .... on
   Start iteration      DIISMaxIt       ....    12
   Startup error        DIISStart       ....  0.200000
   # of expansion vecs  DIISMaxEq       ....     5
   Bias factor          DIISBfac        ....   1.050
   Max. coefficient     DIISMaxC        ....  10.000
 Newton-Raphson         CNVNR           .... off
 SOSCF                  CNVSOSCF        .... off
 Level Shifting         CNVShift        .... on
   Level shift para.    LevelShift      ....    0.2500
   Turn off err/grad.   ShiftErr        ....    0.0010
 Zerner damping         CNVZerner       .... off
 Static damping         CNVDamp         .... on
   Fraction old density DampFac         ....    0.7000
   Max. Damping (<1)    DampMax         ....    0.9800
   Min. Damping (>=0)   DampMin         ....    0.0000
   Turn off err/grad.   DampErr         ....    0.1000
 Fernandez-Rico         CNVRico         .... off

SCF Procedure:
 Maximum # iterations   MaxIter         ....   125
 SCF integral mode      SCFMode         .... Direct
   Integral package                     .... LIBINT
 Reset frequency        DirectResetFreq ....    20
 Integral Threshold     Thresh          ....  2.500e-11 Eh
 Primitive CutOff       TCut            ....  2.500e-12 Eh

Convergence Tolerance:
 Convergence Check Mode ConvCheckMode   .... Total+1el-Energy
 Convergence forced     ConvForced      .... 1
 Energy Change          TolE            ....  1.000e-08 Eh
 1-El. energy change                    ....  1.000e-05 Eh
 DIIS Error             TolErr          ....  5.000e-07


Diagonalization of the overlap matrix:
Smallest eigenvalue                        ... 3.415e-03
Time for diagonalization                   ...    0.005 sec
Threshold for overlap eigenvalues          ... 1.000e-08
Number of eigenvalues below threshold      ... 0
Time for construction of square roots      ...    0.050 sec
Total time needed                          ...    0.054 sec

-------------------
DFT GRID GENERATION
-------------------

General Integration Accuracy     IntAcc      ...  4.670
Radial Grid Type                 RadialGrid  ... Gauss-Chebyshev
Angular Grid (max. acc.)         AngularGrid ... Lebedev-302
Angular grid pruning method      GridPruning ... 3 (G Style)
Weight generation scheme         WeightScheme... Becke
Basis function cutoff            BFCut       ...    1.0000e-11
Integration weight cutoff        WCut        ...    1.0000e-14
Grids for H and He will be reduced by one unit

# of grid points (after initial pruning)     ...  26526 (   0.0 sec)
# of grid points (after weights+screening)   ...  25707 (   0.0 sec)
nearest neighbour list constructed           ...    0.0 sec
Grid point re-assignment to atoms done       ...    0.0 sec
Grid point division into batches done        ...    0.2 sec
Reduced shell lists constructed in    0.2 sec

Total number of grid points                  ...    25707
Total number of batches                      ...      405
Average number of points per batch           ...       63
Average number of grid points per atom       ...     4284
Average number of shells per batch           ...    34.20 (81.43%)
Average number of basis functions per batch  ...    74.37 (82.63%)
Average number of large shells per batch     ...    32.43 (94.82%)
Average number of large basis fcns per batch ...    69.00 (92.78%)
Maximum spatial batch extension              ...   1.47,  1.65,  3.00 au
Average spatial batch extension              ...   0.08,  0.08,  0.08 au

Time for grid setup =    0.400 sec

------------------------------
INITIAL GUESS: MODEL POTENTIAL
------------------------------
Loading Hartree-Fock densities                     ... done
Calculating cut-offs                               ... done
Setting up the integral package                    ... done
Initializing the effective Hamiltonian             ... done
Starting the Coulomb interaction                   ... done (   0.0 sec)
Reading the grid                                   ... done
Mapping shells                                     ... done
Starting the XC term evaluation                    ... done (   0.1 sec)
Transforming the Hamiltonian                       ... done (   0.0 sec)
Diagonalizing the Hamiltonian                      ... done (   0.0 sec)
Back transforming the eigenvectors                 ... done (   0.0 sec)
Now organizing SCF variables                       ... done
                      ------------------
                      INITIAL GUESS DONE (   0.7 sec)
                      ------------------
--------------
SCF ITERATIONS
--------------
ITER       Energy         Delta-E        Max-DP      RMS-DP      [F,P]     Damp
               ***  Starting incremental Fock matrix formation  ***
  0   -499.5484898320   0.000000000000 0.02720486  0.00057472  0.6491337 0.7000
  1   -499.5813913605  -0.032901528509 0.01893813  0.00044238  0.4562266 0.7000
  2   -499.6026658122  -0.021274451717 0.01117958  0.00029720  0.3206014 0.7000
  3   -499.6168312931  -0.014165480873 0.00628246  0.00020107  0.2253446 0.7000
                               ***Turning on DIIS***
  4   -499.6267051668  -0.009873873704 0.00372900  0.00014361  0.1584161 0.7000
  5   -499.7059780596  -0.079272892792 0.00376883  0.00012173  0.1113773 0.7000
  6   -499.7000194404   0.005958619178 0.01175375  0.00035849  0.0781120 0.0000
  7   -499.6542209333   0.045798507085 0.00294318  0.00008949  0.0054988 0.0000
  8   -499.6499025946   0.004318338704 0.00271116  0.00008877  0.0037968 0.0000
  9   -499.6521887463  -0.002286151647 0.00142806  0.00005046  0.0022022 0.0000
 10   -499.6515569193   0.000631827031 0.00072467  0.00002775  0.0011561 0.0000
 11   -499.6520961255  -0.000539206249 0.00093279  0.00002535  0.0006345 0.0000
 12   -499.6522850985  -0.000188972971 0.00035356  0.00000850  0.0001390 0.0000
 13   -499.6523691694  -0.000084070878 0.00024062  0.00000482  0.0000748 0.0000
 14   -499.6524844379  -0.000115268530 0.00010775  0.00000239  0.0000260 0.0000
 15   -499.6525108041  -0.000026366191 0.00002284  0.00000082  0.0000108 0.0000
 16   -499.6525369919  -0.000026187811 0.00001352  0.00000043  0.0000035 0.0000
 17   -499.6525348982   0.000002093654 0.00000390  0.00000013  0.0000011 0.0000
                            ***DIIS convergence achieved***

               *****************************************************
               *                     SUCCESS                       *
               *           SCF CONVERGED AFTER  18 CYCLES          *
               *****************************************************


----------------
TOTAL SCF ENERGY
----------------

Total Energy       :         -499.65253666 Eh          -13596.23674 eV

Components:
Nuclear Repulsion  :           46.90225276 Eh            1276.27518 eV
Electronic Energy  :         -546.55478942 Eh          -14872.51192 eV
One Electron Energy:         -781.81175893 Eh          -21274.17952 eV
Two Electron Energy:          235.25696951 Eh            6401.66759 eV

Virial components:
Potential Energy   :         -999.35450743 Eh          -27193.81865 eV
Kinetic Energy     :          499.70197077 Eh           13597.58191 eV
Virial Ratio       :            1.99990107


---------------
SCF CONVERGENCE
---------------

  Last Energy change         ...   -1.7581e-06  Tolerance :   1.0000e-08
  Last MAX-Density change    ...    1.8629e-06  Tolerance :   1.0000e-07
  Last RMS-Density change    ...    5.4134e-08  Tolerance :   5.0000e-09
  Last DIIS Error            ...    2.5870e-07  Tolerance :   5.0000e-07

             **** THE GBW FILE WAS UPDATED (H3CHCl‡.gbw) ****
             **** DENSITY FILE WAS UPDATED (H3CHCl‡.scfp) ****
             **** ENERGY FILE WAS UPDATED (H3CHCl‡.en.tmp) ****
----------------------
UHF SPIN CONTAMINATION
----------------------

Expectation value of <S**2>     :     0.784692
Ideal value S*(S+1) for S=0.5   :     0.750000
Deviation                       :     0.034692

             **** THE GBW FILE WAS UPDATED (H3CHCl‡.gbw) ****
             **** DENSITY FILE WAS UPDATED (H3CHCl‡.scfp) ****
----------------
ORBITAL ENERGIES
----------------
                 SPIN UP ORBITALS
  NO   OCC          E(Eh)            E(eV) 
   0   1.0000    -104.822972     -2852.3781 
   1   1.0000     -11.280213      -306.9502 
   2   1.0000     -10.548986      -287.0525 
   3   1.0000      -8.026514      -218.4125 
   4   1.0000      -8.012505      -218.0313 
   5   1.0000      -8.012505      -218.0313 
   6   1.0000      -1.103721       -30.0338 
   7   1.0000      -1.002608       -27.2823 
   8   1.0000      -0.648034       -17.6339 
   9   1.0000      -0.618724       -16.8363 
  10   1.0000      -0.618723       -16.8363 
  11   1.0000      -0.454573       -12.3696 
  12   1.0000      -0.454573       -12.3696 
  13   1.0000      -0.420350       -11.4383 
  14   0.0000       0.136309         3.7091 
  15   0.0000       0.200224         5.4484 
  16   0.0000       0.200227         5.4485 
  17   0.0000       0.266497         7.2518 
  18   0.0000       0.328142         8.9292 
  19   0.0000       0.377230        10.2649 
  20   0.0000       0.377238        10.2652 
  21   0.0000       0.440029        11.9738 
  22   0.0000       0.454775        12.3751 
  23   0.0000       0.454787        12.3754 
  24   0.0000       0.510976        13.9044 
  25   0.0000       0.561083        15.2679 
  26   0.0000       0.561089        15.2680 
  27   0.0000       0.640362        17.4251 
  28   0.0000       0.640368        17.4253 
  29   0.0000       0.641643        17.4600 
  30   0.0000       0.692779        18.8515 
  31   0.0000       0.692780        18.8515 
  32   0.0000       0.749168        20.3859 
  33   0.0000       0.749181        20.3863 
  34   0.0000       0.849754        23.1230 
  35   0.0000       0.947685        25.7878 
  36   0.0000       1.005794        27.3691 
  37   0.0000       1.104573        30.0570 
  38   0.0000       1.104595        30.0576 
  39   0.0000       1.137049        30.9407 
  40   0.0000       1.168438        31.7948 
  41   0.0000       1.168441        31.7949 
  42   0.0000       1.267879        34.5007 
  43   0.0000       1.384328        37.6695 
  44   0.0000       1.384367        37.6705 
  45   0.0000       1.397006        38.0145 
  46   0.0000       1.526307        41.5329 
  47   0.0000       1.526315        41.5331 
  48   0.0000       1.593709        43.3670 
  49   0.0000       1.593712        43.3671 
  50   0.0000       1.694550        46.1110 
  51   0.0000       1.969698        53.5982 
  52   0.0000       2.517483        68.5042 
  53   0.0000       2.517485        68.5042 
  54   0.0000       2.705647        73.6244 
  55   0.0000       2.712243        73.8039 
  56   0.0000       2.712276        73.8048 
  57   0.0000       2.763038        75.1861 
  58   0.0000       2.763044        75.1862 
  59   0.0000       2.779264        75.6276 
  60   0.0000       2.871432        78.1356 
  61   0.0000       2.871479        78.1369 
  62   0.0000       3.032554        82.5200 
  63   0.0000       3.253441        88.5306 
  64   0.0000       3.417770        93.0022 
  65   0.0000       3.417774        93.0023 
  66   0.0000       3.560593        96.8887 
  67   0.0000       3.572490        97.2124 
  68   0.0000       3.572495        97.2125 
  69   0.0000       3.908017       106.3425 
  70   0.0000       3.933725       107.0421 
  71   0.0000       3.933727       107.0421 
  72   0.0000       4.111671       111.8843 
  73   0.0000       4.241302       115.4117 
  74   0.0000       4.241328       115.4124 
  75   0.0000       4.265436       116.0684 
  76   0.0000       4.265449       116.0688 
  77   0.0000       4.382395       119.2510 
  78   0.0000       4.413163       120.0883 
  79   0.0000       4.413165       120.0883 
  80   0.0000       4.581086       124.6577 
  81   0.0000       4.887660       133.0000 
  82   0.0000       5.407162       147.1364 
  83   0.0000       5.407163       147.1364 
  84   0.0000      10.494370       285.5663 
  85   0.0000      25.089269       682.7137 
  86   0.0000      26.337456       716.6786 
  87   0.0000      26.337467       716.6789 
  88   0.0000      27.434033       746.5180 
  89   0.0000     219.346883      5968.7321 

                 SPIN DOWN ORBITALS
  NO   OCC          E(Eh)            E(eV) 
   0   1.0000    -104.816712     -2852.2077 
   1   1.0000     -11.261763      -306.4481 
   2   1.0000     -10.542419      -286.8738 
   3   1.0000      -8.008867      -217.9323 
   4   1.0000      -8.008867      -217.9323 
   5   1.0000      -8.000799      -217.7128 
   6   1.0000      -1.050412       -28.5832 
   7   1.0000      -0.931053       -25.3353 
   8   1.0000      -0.606610       -16.5067 
   9   1.0000      -0.606610       -16.5067 
  10   1.0000      -0.553006       -15.0480 
  11   1.0000      -0.442852       -12.0506 
  12   1.0000      -0.442852       -12.0506 
  13   0.0000       0.015379         0.4185 
  14   0.0000       0.144508         3.9323 
  15   0.0000       0.204898         5.5756 
  16   0.0000       0.204901         5.5757 
  17   0.0000       0.289837         7.8869 
  18   0.0000       0.339589         9.2407 
  19   0.0000       0.379166        10.3176 
  20   0.0000       0.379174        10.3178 
  21   0.0000       0.460668        12.5354 
  22   0.0000       0.460681        12.5358 
  23   0.0000       0.474917        12.9231 
  24   0.0000       0.578433        15.7400 
  25   0.0000       0.578438        15.7401 
  26   0.0000       0.595139        16.1946 
  27   0.0000       0.655256        17.8304 
  28   0.0000       0.655260        17.8305 
  29   0.0000       0.660347        17.9690 
  30   0.0000       0.696764        18.9599 
  31   0.0000       0.696767        18.9600 
  32   0.0000       0.776581        21.1318 
  33   0.0000       0.776597        21.1323 
  34   0.0000       0.859756        23.3951 
  35   0.0000       0.996648        27.1202 
  36   0.0000       1.004184        27.3252 
  37   0.0000       1.114261        30.3206 
  38   0.0000       1.114283        30.3212 
  39   0.0000       1.155702        31.4483 
  40   0.0000       1.177291        32.0357 
  41   0.0000       1.177292        32.0358 
  42   0.0000       1.286128        34.9973 
  43   0.0000       1.387897        37.7666 
  44   0.0000       1.387937        37.7677 
  45   0.0000       1.418589        38.6018 
  46   0.0000       1.539639        41.8957 
  47   0.0000       1.539646        41.8959 
  48   0.0000       1.600762        43.5589 
  49   0.0000       1.600764        43.5590 
  50   0.0000       1.709328        46.5132 
  51   0.0000       2.010775        54.7160 
  52   0.0000       2.522025        68.6278 
  53   0.0000       2.522027        68.6278 
  54   0.0000       2.717953        73.9593 
  55   0.0000       2.717982        73.9600 
  56   0.0000       2.727713        74.2248 
  57   0.0000       2.766164        75.2711 
  58   0.0000       2.766169        75.2713 
  59   0.0000       2.773268        75.4644 
  60   0.0000       2.884599        78.4939 
  61   0.0000       2.884643        78.4951 
  62   0.0000       3.049834        82.9902 
  63   0.0000       3.263908        88.8154 
  64   0.0000       3.437314        93.5341 
  65   0.0000       3.437316        93.5341 
  66   0.0000       3.592372        97.7534 
  67   0.0000       3.592376        97.7535 
  68   0.0000       3.606540        98.1390 
  69   0.0000       3.937710       107.1505 
  70   0.0000       3.943462       107.3071 
  71   0.0000       3.943464       107.3071 
  72   0.0000       4.109059       111.8132 
  73   0.0000       4.238442       115.3339 
  74   0.0000       4.238468       115.3346 
  75   0.0000       4.270356       116.2023 
  76   0.0000       4.270369       116.2026 
  77   0.0000       4.388241       119.4101 
  78   0.0000       4.416364       120.1754 
  79   0.0000       4.416366       120.1754 
  80   0.0000       4.590476       124.9132 
  81   0.0000       4.900227       133.3420 
  82   0.0000       5.415761       147.3703 
  83   0.0000       5.415762       147.3704 
  84   0.0000      10.503468       285.8139 
  85   0.0000      25.102138       683.0639 
  86   0.0000      26.340305       716.7561 
  87   0.0000      26.340316       716.7564 
  88   0.0000      27.446298       746.8517 
  89   0.0000     219.350364      5968.8269 
------------------
MOLECULAR ORBITALS
------------------
                      0         1         2         3         4         5   
                 -104.82297 -11.28021 -10.54899  -8.02651  -8.01251  -8.01251
                   1.00000   1.00000   1.00000   1.00000   1.00000   1.00000
                  --------  --------  --------  --------  --------  --------
  0C   1s        -0.000001  0.563054 -0.000008 -0.000005  0.000000  0.000000
  0C   2s         0.000001  0.466403 -0.000041  0.000028  0.000000  0.000000
  0C   1pz       -0.000007 -0.000201  0.000332 -0.000036 -0.000000 -0.000000
  0C   1px       -0.000000 -0.000000  0.000000 -0.000000 -0.000011  0.000011
  0C   1py       -0.000000 -0.000000  0.000000 -0.000000  0.000011  0.000011
  0C   3s         0.000005  0.006154 -0.000672 -0.000291  0.000000  0.000000
  0C   2pz        0.000037 -0.000182 -0.001826  0.000391  0.000000  0.000000
  0C   2px        0.000000 -0.000000 -0.000000  0.000000  0.000030 -0.000031
  0C   2py        0.000000  0.000000 -0.000001  0.000000 -0.000031 -0.000030
  0C   4s        -0.000078  0.001185  0.007462  0.001091 -0.000000 -0.000000
  0C   3pz        0.000066  0.000496 -0.005613 -0.000615  0.000000  0.000000
  0C   3px        0.000000  0.000000 -0.000000 -0.000000  0.000197 -0.000206
  0C   3py        0.000000  0.000000 -0.000003 -0.000000 -0.000206 -0.000197
  0C   1dz2      -0.000002  0.000491  0.000062 -0.000072 -0.000000 -0.000000
  0C   1dxz      -0.000000  0.000000  0.000000 -0.000000  0.000018 -0.000018
  0C   1dyz       0.000000  0.000000 -0.000000 -0.000000 -0.000018 -0.000018
  0C   1dx2y2    -0.000000  0.000000  0.000000  0.000000  0.000004 -0.000004
  0C   1dxy      -0.000000  0.000000  0.000000  0.000000  0.000004  0.000004
  0C   2dz2      -0.000030 -0.000283  0.002010  0.000020 -0.000000 -0.000000
  0C   2dxz      -0.000000 -0.000000  0.000000  0.000000 -0.000118  0.000123
  0C   2dyz      -0.000000  0.000000  0.000001 -0.000000  0.000123  0.000118
  0C   2dx2y2     0.000000 -0.000000 -0.000000 -0.000000 -0.000050  0.000053
  0C   2dxy       0.000000  0.000000 -0.000001 -0.000000 -0.000053 -0.000050
  1H   1s        -0.000001  0.000457  0.000100  0.000044 -0.000001  0.000001
  1H   2s        -0.000006 -0.000778 -0.000056 -0.000286  0.000103 -0.000108
  1H   3s        -0.000012 -0.000210  0.001061  0.000109  0.000003 -0.000004
  1H   1pz       -0.000001 -0.000005  0.000059 -0.000007 -0.000012  0.000013
  1H   1px       -0.000000  0.000128  0.000012  0.000001  0.000010 -0.000010
  1H   1py        0.000000 -0.000000 -0.000000 -0.000000 -0.000008 -0.000007
  1H   2pz        0.000001  0.000099 -0.000005  0.000046 -0.000026  0.000027
  1H   2px       -0.000006 -0.000526  0.000227 -0.000093 -0.000018  0.000019
  1H   2py       -0.000000  0.000000  0.000000  0.000000  0.000018  0.000017
  2H   1s        -0.000001  0.000457  0.000100  0.000044  0.000002  0.000000
  2H   2s        -0.000006 -0.000778 -0.000058 -0.000287 -0.000145 -0.000035
  2H   3s        -0.000012 -0.000210  0.001060  0.000109 -0.000005 -0.000001
  2H   1pz       -0.000001 -0.000005  0.000059 -0.000007  0.000017  0.000004
  2H   1px        0.000000 -0.000064 -0.000006 -0.000001  0.000009 -0.000007
  2H   1py       -0.000000  0.000111  0.000010  0.000001 -0.000010 -0.000008
  2H   2pz        0.000001  0.000099 -0.000005  0.000046  0.000037  0.000009
  2H   2px        0.000003  0.000263 -0.000113  0.000046 -0.000018  0.000017
  2H   2py       -0.000005 -0.000456  0.000196 -0.000080  0.000019  0.000017
  3H   1s        -0.000001  0.000172  0.000022 -0.000062 -0.000000 -0.000000
  3H   2s         0.000021  0.000328 -0.002817 -0.001492  0.000000  0.000000
  3H   3s         0.000141  0.000707 -0.012949 -0.001186  0.000000  0.000000
  3H   1pz       -0.000006  0.000168  0.000275 -0.000065 -0.000000 -0.000000
  3H   1px       -0.000000  0.000000  0.000000 -0.000000  0.000018 -0.000019
  3H   1py       -0.000000 -0.000000  0.000000  0.000000 -0.000019 -0.000018
  3H   2pz        0.000091 -0.000737 -0.004523  0.001424  0.000000  0.000000
  3H   2px        0.000000 -0.000000 -0.000000  0.000000 -0.000199  0.000209
  3H   2py       -0.000000  0.000000 -0.000000 -0.000000  0.000209  0.000199
  4H   1s        -0.000001  0.000457  0.000100  0.000044 -0.000001 -0.000002
  4H   2s        -0.000006 -0.000778 -0.000055 -0.000286  0.000042  0.000143
  4H   3s        -0.000012 -0.000210  0.001061  0.000109  0.000001  0.000005
  4H   1pz       -0.000001 -0.000005  0.000059 -0.000007 -0.000005 -0.000017
  4H   1px        0.000000 -0.000064 -0.000006 -0.000001  0.000007 -0.000009
  4H   1py        0.000000 -0.000111 -0.000010 -0.000001 -0.000009 -0.000010
  4H   2pz        0.000001  0.000099 -0.000005  0.000046 -0.000011 -0.000036
  4H   2px        0.000003  0.000263 -0.000114  0.000046 -0.000017  0.000019
  4H   2py        0.000005  0.000456 -0.000197  0.000080  0.000018  0.000019
  5Cl  1s         0.411723  0.000001  0.121961 -0.000459 -0.000000 -0.000000
  5Cl  2s         0.654658  0.000002  0.331580 -0.001266 -0.000000 -0.000000
  5Cl  3s         0.012123 -0.000003 -0.512524  0.002025  0.000000  0.000000
  5Cl  4s        -0.000933  0.000007 -0.604319  0.002496  0.000000  0.000000
  5Cl  5s         0.000226  0.000128 -0.045048 -0.000919  0.000000  0.000000
  5Cl  6s        -0.000140 -0.000846  0.014194  0.001926 -0.000000 -0.000000
  5Cl  1pz        0.000088 -0.000040 -0.004277 -1.230529  0.000234  0.000055
  5Cl  1px        0.000000 -0.000000 -0.000000 -0.000122 -0.850139  0.890711
  5Cl  1py       -0.000000  0.000000  0.000001  0.000207  0.890710  0.850139
  5Cl  2pz        0.000053 -0.000037 -0.001102 -0.327128  0.000062  0.000015
  5Cl  2px        0.000000 -0.000000 -0.000000 -0.000032 -0.225957  0.236741
  5Cl  2py       -0.000000  0.000000  0.000000  0.000055  0.236741  0.225957
  5Cl  3pz       -0.000061  0.000155 -0.000281 -0.050898  0.000009  0.000002
  5Cl  3px       -0.000000  0.000000 -0.000000 -0.000005 -0.033997  0.035620
  5Cl  3py        0.000000 -0.000000 -0.000000  0.000009  0.035620  0.033997
  5Cl  4pz        0.000071 -0.000585 -0.001612  0.003576 -0.000000  0.000000
  5Cl  4px        0.000000 -0.000000 -0.000000  0.000000  0.001482 -0.001552
  5Cl  4py       -0.000000  0.000000  0.000001 -0.000001 -0.001552 -0.001482
  5Cl  5pz       -0.000042 -0.000187  0.003465 -0.000262  0.000000  0.000000
  5Cl  5px       -0.000000 -0.000000  0.000000 -0.000000 -0.000453  0.000474
  5Cl  5py        0.000000  0.000000 -0.000001 -0.000000  0.000474  0.000453
  5Cl  1dz2       0.000003  0.000009 -0.000996 -0.000574  0.000000  0.000000
  5Cl  1dxz       0.000000  0.000000 -0.000000 -0.000000 -0.000344  0.000361
  5Cl  1dyz      -0.000000 -0.000000  0.000000  0.000000  0.000361  0.000344
  5Cl  1dx2y2    -0.000000 -0.000000  0.000000  0.000000  0.000000  0.000000
  5Cl  1dxy      -0.000000 -0.000000  0.000000 -0.000000  0.000000 -0.000000
  5Cl  2dz2       0.000016 -0.000254 -0.000191  0.000803 -0.000000  0.000000
  5Cl  2dxz       0.000000 -0.000000 -0.000000  0.000000  0.000110 -0.000116
  5Cl  2dyz      -0.000000  0.000000  0.000000 -0.000000 -0.000116 -0.000110
  5Cl  2dx2y2     0.000000  0.000000 -0.000000 -0.000000  0.000000 -0.000000
  5Cl  2dxy       0.000000  0.000000 -0.000000  0.000000  0.000000  0.000000
                      6         7         8         9        10        11   
                  -1.10372  -1.00261  -0.64803  -0.61872  -0.61872  -0.45457
                   1.00000   1.00000   1.00000   1.00000   1.00000   1.00000
                  --------  --------  --------  --------  --------  --------
  0C   1s         0.031919  0.101296 -0.013401  0.000001  0.000001 -0.000000
  0C   2s         0.053183  0.168769 -0.021776  0.000002  0.000002 -0.000000
  0C   1pz        0.013537  0.002622  0.129756 -0.000003  0.000022 -0.000015
  0C   1px        0.000001  0.000000  0.000013  0.136653 -0.147763  0.010902
  0C   1py        0.000001  0.000001 -0.000002 -0.147762 -0.136653 -0.011399
  0C   3s        -0.132660 -0.435027  0.049900 -0.000007 -0.000006  0.000001
  0C   2pz        0.040856  0.012557  0.223899 -0.000005  0.000034 -0.000015
  0C   2px        0.000004  0.000001  0.000022  0.210304 -0.227402  0.017492
  0C   2py        0.000006  0.000003  0.000001 -0.227401 -0.210305 -0.018291
  0C   4s        -0.086738 -0.218380  0.023576  0.000000  0.000000  0.000006
  0C   3pz        0.041269 -0.002310  0.147943 -0.000009  0.000015 -0.000015
  0C   3px        0.000003 -0.000000  0.000014  0.121551 -0.131435  0.016673
  0C   3py        0.000020 -0.000001  0.000009 -0.131433 -0.121553 -0.017434
  0C   1dz2      -0.003509 -0.000241 -0.014223  0.000002  0.000003  0.000000
  0C   1dxz      -0.000001 -0.000000 -0.000002  0.003539 -0.003823  0.001496
  0C   1dyz      -0.000000 -0.000000 -0.000004 -0.003825 -0.003534 -0.001564
  0C   1dx2y2    -0.000000  0.000000 -0.000000 -0.011311  0.012228 -0.000933
  0C   1dxy      -0.000000  0.000000 -0.000002 -0.012227 -0.011313 -0.000976
  0C   2dz2      -0.019820 -0.010154 -0.018184  0.000002  0.000002 -0.000005
  0C   2dxz      -0.000003 -0.000002 -0.000003  0.002280 -0.002461 -0.004516
  0C   2dyz      -0.000008 -0.000002 -0.000008 -0.002463 -0.002274  0.004722
  0C   2dx2y2     0.000000 -0.000000 -0.000000 -0.012493  0.013505 -0.002010
  0C   2dxy       0.000003 -0.000001 -0.000001 -0.013505 -0.012494 -0.002100
  1H   1s        -0.021360 -0.079725  0.039357 -0.110609  0.119581 -0.009721
  1H   2s        -0.035598 -0.116684  0.056509 -0.170887  0.184747 -0.016068
  1H   3s        -0.010729 -0.010087  0.018558 -0.058866  0.063643 -0.005989
  1H   1pz        0.000505  0.001708  0.002672  0.002093 -0.002263 -0.000130
  1H   1px       -0.002459 -0.008821  0.003650 -0.008011  0.008660 -0.000543
  1H   1py        0.000001  0.000001 -0.000000 -0.003208 -0.002969 -0.000323
  1H   2pz        0.002207  0.003584  0.006005  0.001995 -0.002156 -0.002208
  1H   2px       -0.008554 -0.018754  0.005657 -0.013846  0.014967 -0.002664
  1H   2py       -0.000000  0.000002 -0.000001 -0.007601 -0.007033 -0.000446
  2H   1s        -0.021360 -0.079725  0.039373  0.158862  0.035991  0.013657
  2H   2s        -0.035589 -0.116686  0.056536  0.245436  0.055604  0.022563
  2H   3s        -0.010725 -0.010088  0.018565  0.084551  0.019156  0.008408
  2H   1pz        0.000504  0.001708  0.002672 -0.003006 -0.000681  0.000181
  2H   1px        0.001229  0.004410 -0.001825 -0.004916 -0.004995 -0.000289
  2H   1py       -0.002129 -0.007640  0.003162  0.010446  0.000126  0.000714
  2H   2pz        0.002205  0.003584  0.006005 -0.002866 -0.000648  0.003103
  2H   2px        0.004276  0.009377 -0.002829 -0.007960 -0.010999 -0.001742
  2H   2py       -0.007407 -0.016242  0.004901  0.018365 -0.001148  0.003311
  3H   1s        -0.068125 -0.035587 -0.128580  0.000013  0.000011 -0.000002
  3H   2s        -0.065325 -0.063368 -0.238451  0.000019  0.000015 -0.000001
  3H   3s         0.064205 -0.006253  0.005600 -0.000006 -0.000005  0.000003
  3H   1pz        0.002474 -0.006405 -0.001979 -0.000000  0.000000  0.000001
  3H   1px        0.000000 -0.000001 -0.000000  0.001950 -0.002108 -0.001153
  3H   1py       -0.000002 -0.000001 -0.000003 -0.002108 -0.001950  0.001205
  3H   2pz        0.022804 -0.034912  0.005051  0.000007  0.000008  0.000024
  3H   2px        0.000002 -0.000003  0.000001  0.009855 -0.010656 -0.022098
  3H   2py       -0.000003 -0.000001 -0.000010 -0.010656 -0.009855  0.023107
  4H   1s        -0.021360 -0.079724  0.039344 -0.048265 -0.155581 -0.003943
  4H   2s        -0.035606 -0.116682  0.056487 -0.074568 -0.240367 -0.006520
  4H   3s        -0.010732 -0.010086  0.018553 -0.025686 -0.082800 -0.002430
  4H   1pz        0.000504  0.001706  0.002674  0.000912  0.002941 -0.000053
  4H   1px        0.001229  0.004411 -0.001824  0.005363  0.004513  0.000482
  4H   1py        0.002130  0.007640 -0.003159  0.000940  0.010406 -0.000024
  4H   2pz        0.002207  0.003579  0.006007  0.000868  0.002800 -0.000896
  4H   2px        0.004278  0.009378 -0.002826  0.011586  0.007082  0.001054
  4H   2py        0.007408  0.016242 -0.004896  0.000287  0.018400  0.000640
  5Cl  1s        -0.033213  0.013154  0.008171 -0.000000 -0.000000  0.000000
  5Cl  2s        -0.096128  0.038136  0.023837 -0.000001 -0.000001  0.000000
  5Cl  3s         0.190163 -0.075969 -0.048723  0.000002  0.000002 -0.000000
  5Cl  4s         0.379278 -0.150159 -0.092718  0.000003  0.000003 -0.000001
  5Cl  5s        -0.568136  0.228068  0.139798 -0.000007 -0.000005  0.000000
  5Cl  6s        -0.529143  0.211049  0.184732  0.000002  0.000002  0.000007
  5Cl  1pz        0.036369  0.013180  0.215367 -0.000010 -0.000010 -0.000056
  5Cl  1px        0.000004  0.000001  0.000021 -0.011969  0.012944  0.230932
  5Cl  1py       -0.000007 -0.000001 -0.000041  0.012942  0.011971 -0.241474
  5Cl  2pz        0.009131  0.003196  0.052565 -0.000002 -0.000002 -0.000013
  5Cl  2px        0.000001  0.000000  0.000005 -0.002911  0.003148  0.055194
  5Cl  2py       -0.000002 -0.000000 -0.000010  0.003148  0.002912 -0.057713
  5Cl  3pz       -0.024464 -0.007875 -0.153927  0.000006  0.000006  0.000039
  5Cl  3px       -0.000002 -0.000001 -0.000015  0.008721 -0.009431 -0.166478
  5Cl  3py        0.000005  0.000000  0.000029 -0.009430 -0.008722  0.174078
  5Cl  4pz       -0.051946 -0.026872 -0.354542  0.000023  0.000022  0.000104
  5Cl  4px       -0.000005 -0.000003 -0.000035  0.019708 -0.021314 -0.409472
  5Cl  4py        0.000008  0.000005  0.000068 -0.021311 -0.019711  0.428165
  5Cl  5pz       -0.024069 -0.002333 -0.139885  0.000010  0.000009  0.000060
  5Cl  5px       -0.000002 -0.000000 -0.000014  0.008339 -0.009019 -0.233323
  5Cl  5py        0.000008  0.000000  0.000028 -0.009017 -0.008341  0.243975
  5Cl  1dz2      -0.012612  0.000384 -0.015721  0.000000  0.000001  0.000001
  5Cl  1dxz      -0.000002  0.000000 -0.000003  0.001206 -0.001305 -0.004179
  5Cl  1dyz       0.000004 -0.000000  0.000006 -0.001305 -0.001207  0.004369
  5Cl  1dx2y2     0.000000 -0.000000  0.000000 -0.000018  0.000020 -0.000004
  5Cl  1dxy      -0.000000  0.000000  0.000000 -0.000020 -0.000018 -0.000003
  5Cl  2dz2      -0.023571 -0.000496 -0.017723  0.000005  0.000004  0.000006
  5Cl  2dxz      -0.000004 -0.000000 -0.000003  0.000452 -0.000489 -0.010101
  5Cl  2dyz       0.000008  0.000001  0.000010 -0.000488 -0.000452  0.010562
  5Cl  2dx2y2     0.000000 -0.000000  0.000000 -0.000179  0.000194 -0.000015
  5Cl  2dxy       0.000000 -0.000000 -0.000000 -0.000194 -0.000180 -0.000014
                     12        13        14        15        16        17   
                  -0.45457  -0.42035   0.13631   0.20022   0.20023   0.26650
                   1.00000   1.00000   0.00000   0.00000   0.00000   0.00000
                  --------  --------  --------  --------  --------  --------
  0C   1s        -0.000000 -0.015767 -0.044551  0.000001 -0.000001  0.006964
  0C   2s        -0.000000 -0.027507 -0.078962  0.000002 -0.000001  0.009756
  0C   1pz       -0.000011 -0.191870  0.039861  0.000002 -0.000016  0.095309
  0C   1px       -0.011401 -0.000017  0.000004  0.076457  0.079685  0.000008
  0C   1py       -0.010903 -0.000021  0.000000 -0.079685  0.076457  0.000019
  0C   3s         0.000001  0.082727  0.169043 -0.000003  0.000002  0.040861
  0C   2pz       -0.000010 -0.311987  0.090262  0.000003 -0.000039  0.102366
  0C   2px       -0.018292 -0.000028  0.000008  0.201305  0.209802  0.000009
  0C   2py       -0.017493 -0.000035  0.000002 -0.209803  0.201304  0.000011
  0C   4s         0.000006  0.135139  3.115090 -0.000077  0.000068 -0.835484
  0C   3pz       -0.000010 -0.294481  0.213137  0.000062 -0.000264  1.353628
  0C   3px       -0.017433 -0.000026  0.000019  1.159743  1.208697  0.000125
  0C   3py       -0.016672 -0.000045 -0.000004 -1.208699  1.159741  0.000026
  0C   1dz2       0.000001  0.009997  0.004293 -0.000000  0.000001  0.019094
  0C   1dxz      -0.001564  0.000001  0.000001 -0.002220 -0.002312  0.000003
  0C   1dyz      -0.001496  0.000004  0.000000  0.002313 -0.002218  0.000007
  0C   1dx2y2     0.000976  0.000000 -0.000000  0.004986  0.005196  0.000000
  0C   1dxy      -0.000934  0.000001 -0.000000  0.005195 -0.004987  0.000004
  0C   2dz2      -0.000006  0.009017 -0.068513  0.000007 -0.000017 -0.061313
  0C   2dxz       0.004723  0.000001 -0.000010  0.036831  0.038355 -0.000011
  0C   2dyz       0.004517  0.000002 -0.000019 -0.038366  0.036782  0.000020
  0C   2dx2y2     0.002095 -0.000000 -0.000000 -0.101000 -0.105242 -0.000001
  0C   2dxy      -0.002003 -0.000001 -0.000002 -0.105239  0.101017 -0.000018
  1H   1s         0.010160 -0.024230  0.002413  0.002483  0.002589 -0.025469
  1H   2s         0.016790 -0.042308 -0.250664  0.208925  0.217709 -0.018737
  1H   3s         0.006255 -0.028790 -1.120092  1.712766  1.784826 -0.494391
  1H   1pz        0.000134 -0.005121 -0.001928  0.004421  0.004604  0.006649
  1H   1px        0.000568 -0.001975  0.018689 -0.014395 -0.014999  0.001795
  1H   1py       -0.000309 -0.000001 -0.000002 -0.009067  0.008703 -0.000000
  1H   2pz        0.002309 -0.012653  0.042921 -0.035383 -0.036859 -0.028531
  1H   2px        0.002782 -0.004481 -0.166355  0.147191  0.153376 -0.000988
  1H   2py       -0.000425 -0.000000  0.000016  0.031139 -0.029906 -0.000008
  2H   1s         0.003334 -0.024236  0.002415 -0.003483  0.000857 -0.025483
  2H   2s         0.005507 -0.042326 -0.250653 -0.292995  0.072064 -0.018859
  2H   3s         0.002051 -0.028799 -1.120161 -2.402069  0.590818 -0.494487
  2H   1pz        0.000044 -0.005121 -0.001928 -0.006199  0.001523  0.006650
  2H   1px       -0.000470  0.000987 -0.009345 -0.007493  0.013052 -0.000896
  2H   1py       -0.000056 -0.001712  0.016187  0.018983  0.001802  0.001553
  2H   2pz        0.000758 -0.012654  0.042924  0.049614 -0.012195 -0.028536
  2H   2px       -0.000973  0.002240  0.083178  0.094277 -0.061692  0.000493
  2H   2py        0.000491 -0.003884 -0.144072 -0.183923  0.023009 -0.000867
  3H   1s        -0.000002  0.035295  0.007661 -0.000003  0.000002  0.063905
  3H   2s        -0.000001  0.035119 -0.058480  0.000004 -0.000003  0.379156
  3H   3s         0.000003  0.026734 -0.333928 -0.000000  0.000001  3.757196
  3H   1pz        0.000000  0.015073  0.007850  0.000001 -0.000002 -0.003962
  3H   1px        0.001205  0.000001  0.000001  0.004079  0.004251  0.000000
  3H   1py        0.001153  0.000000  0.000002 -0.004251  0.004079 -0.000011
  3H   2pz        0.000018  0.093099 -0.087208 -0.000012  0.000015  0.041208
  3H   2px        0.023107  0.000009 -0.000008 -0.024389 -0.025416  0.000002
  3H   2py        0.022098 -0.000010 -0.000006  0.025418 -0.024387  0.000062
  4H   1s        -0.013501 -0.024224  0.002411  0.000999 -0.003446 -0.025456
  4H   2s        -0.022320 -0.042292 -0.250674  0.084096 -0.289796 -0.018629
  4H   3s        -0.008316 -0.028782 -1.120030  0.689392 -2.375723 -0.494306
  4H   1pz       -0.000180 -0.005121 -0.001923  0.001777 -0.006125  0.006648
  4H   1px        0.000269  0.000987 -0.009345  0.013350 -0.006951 -0.000897
  4H   1py        0.000716  0.001709 -0.016185 -0.001018 -0.019043 -0.001554
  4H   2pz       -0.003067 -0.012654  0.042875 -0.014225  0.049017 -0.028526
  4H   2px        0.001701  0.002237  0.083188 -0.065535  0.091676  0.000488
  4H   2py        0.003290  0.003876  0.144070 -0.030576  0.182830  0.000841
  5Cl  1s         0.000000 -0.002098  0.002911 -0.000000  0.000000 -0.013391
  5Cl  2s         0.000000 -0.006093  0.008587 -0.000001  0.000001 -0.040273
  5Cl  3s        -0.000000  0.012220 -0.018371  0.000001 -0.000001  0.092557
  5Cl  4s        -0.000001  0.025129 -0.032332  0.000004 -0.000004  0.126107
  5Cl  5s         0.000000 -0.047253  0.051928 -0.000009  0.000008 -0.063244
  5Cl  6s         0.000006 -0.016293  0.149144 -0.000012  0.000010 -1.614572
  5Cl  1pz       -0.000008  0.253190 -0.020834  0.000001  0.000001 -0.007905
  5Cl  1px       -0.241474  0.000024 -0.000002 -0.009440 -0.009844  0.000001
  5Cl  1py       -0.230932 -0.000017  0.000000  0.009838 -0.009446 -0.000041
  5Cl  2pz       -0.000002  0.061259 -0.005261  0.000000  0.000000  0.001126
  5Cl  2px       -0.057713  0.000006 -0.000000 -0.001637 -0.001708  0.000000
  5Cl  2py       -0.055194 -0.000004  0.000000  0.001707 -0.001639 -0.000010
  5Cl  3pz        0.000005 -0.188615  0.020653  0.000002 -0.000002 -0.017580
  5Cl  3px        0.174078 -0.000018  0.000002  0.002872  0.002999 -0.000003
  5Cl  3py        0.166478  0.000014 -0.000002 -0.002994  0.002878  0.000033
  5Cl  4pz        0.000019 -0.428991  0.013391 -0.000016  0.000008  0.147300
  5Cl  4px        0.428165 -0.000041  0.000001  0.039464  0.041138  0.000011
  5Cl  4py        0.409472  0.000024  0.000006 -0.041130  0.039472  0.000074
  5Cl  5pz        0.000011 -0.249565  0.131600  0.000004 -0.000000 -1.497597
  5Cl  5px        0.243975 -0.000024  0.000012 -0.019314 -0.020109 -0.000150
  5Cl  5py        0.233323  0.000011 -0.000009  0.020130 -0.019294  0.000323
  5Cl  1dz2      -0.000000 -0.002667  0.000410 -0.000002  0.000002  0.036469
  5Cl  1dxz       0.004369 -0.000001  0.000000 -0.000592 -0.000619  0.000007
  5Cl  1dyz       0.004179  0.000002 -0.000001  0.000616 -0.000594 -0.000028
  5Cl  1dx2y2     0.000005  0.000000 -0.000000  0.001766  0.001841 -0.000000
  5Cl  1dxy      -0.000004 -0.000000 -0.000000  0.001840 -0.001767 -0.000000
  5Cl  2dz2       0.000002  0.016954 -0.003674 -0.000013  0.000011  0.000745
  5Cl  2dxz       0.010562  0.000003 -0.000001  0.002131  0.002214  0.000003
  5Cl  2dyz       0.010101 -0.000006  0.000007 -0.002222  0.002126 -0.000075
  5Cl  2dx2y2     0.000019  0.000000 -0.000000  0.008943  0.009323  0.000000
  5Cl  2dxy      -0.000016  0.000000 -0.000001  0.009317 -0.008948  0.000000
                     18        19        20        21        22        23   
                   0.32814   0.37723   0.37724   0.44003   0.45477   0.45479
                   0.00000   0.00000   0.00000   0.00000   0.00000   0.00000
                  --------  --------  --------  --------  --------  --------
  0C   1s        -0.007845  0.000001  0.000001 -0.011937  0.000002  0.000003
  0C   2s        -0.014647  0.000001  0.000001 -0.019619  0.000005  0.000005
  0C   1pz       -0.008682 -0.000002  0.000000  0.008690 -0.000016 -0.000021
  0C   1px       -0.000001  0.012446 -0.012868  0.000001 -0.014132  0.013601
  0C   1py        0.000003 -0.012866 -0.012449 -0.000007 -0.013605 -0.014128
  0C   3s         0.093562  0.000010  0.000009  0.062837 -0.000016 -0.000018
  0C   2pz       -0.007869  0.000004 -0.000008  0.020149 -0.000005  0.000002
  0C   2px       -0.000001 -0.066322  0.068560 -0.000000  0.035752 -0.034420
  0C   2py       -0.000003  0.068557  0.066325  0.000063  0.034418  0.035753
  0C   4s        -0.662283 -0.000209 -0.000190 -0.249200  0.000122  0.000137
  0C   3pz       -0.255041 -0.000216 -0.000409  1.533996 -0.000551 -0.000487
  0C   3px       -0.000016 -1.206840  1.247611  0.000103  0.649422 -0.625336
  0C   3py       -0.000209  1.247498  1.206946  0.001200  0.625207  0.649556
  0C   1dz2      -0.020306 -0.000005 -0.000003  0.022791 -0.000007 -0.000009
  0C   1dxz      -0.000003  0.005262 -0.005434  0.000004 -0.001695  0.001637
  0C   1dyz      -0.000005 -0.005435 -0.005253  0.000002 -0.001630 -0.001698
  0C   1dx2y2     0.000000 -0.019988  0.020658 -0.000001  0.011421 -0.010998
  0C   1dxy       0.000003 -0.020656 -0.019992 -0.000019 -0.010998 -0.011420
  0C   2dz2      -0.005980  0.000000  0.000000 -0.106816 -0.000031 -0.000012
  0C   2dxz      -0.000002  0.001269 -0.001352 -0.000018  0.066392 -0.063940
  0C   2dyz       0.000032 -0.001345 -0.001340  0.000007  0.063896  0.066394
  0C   2dx2y2    -0.000001  0.173109 -0.178898  0.000004 -0.115738  0.111420
  0C   2dxy      -0.000021  0.178886  0.173119  0.000132  0.111468  0.115712
  1H   1s         0.018082 -0.033250  0.034384 -0.050759  0.011277 -0.010831
  1H   2s         0.387614 -0.967205  0.999958 -0.351067  0.588214 -0.566321
  1H   3s        -0.356432 -0.195973  0.202511 -0.223912 -0.062280  0.060112
  1H   1pz       -0.007037  0.001820 -0.001888  0.012874  0.003862 -0.003727
  1H   1px        0.003151 -0.009569  0.009892 -0.002831  0.006109 -0.005880
  1H   1py       -0.000002  0.006288  0.006083  0.000002  0.001044  0.001085
  1H   2pz       -0.007356  0.018147 -0.018753 -0.097969 -0.061568  0.059316
  1H   2px        0.020699 -0.100825  0.104235  0.027285  0.071372 -0.068758
  1H   2py       -0.000006  0.052278  0.050559  0.000097  0.058478  0.060744
  2H   1s         0.018075  0.046407  0.011623 -0.050730  0.003775  0.015198
  2H   2s         0.387498  1.349593  0.337926 -0.350285  0.196382  0.792654
  2H   3s        -0.356454  0.273314  0.068403 -0.223871 -0.020717 -0.083833
  2H   1pz       -0.007036 -0.002546 -0.000640  0.012876  0.001286  0.005204
  2H   1px       -0.001576 -0.008515  0.005679  0.001413  0.000245 -0.004428
  2H   1py        0.002726  0.010501  0.007138 -0.002443  0.002497  0.006947
  2H   2pz       -0.007355 -0.025303 -0.006339 -0.098019 -0.020537 -0.082924
  2H   2px       -0.010348 -0.085627  0.043490 -0.013643  0.058985 -0.065654
  2H   2py        0.017920  0.112994  0.065772  0.023711  0.061546  0.073154
  3H   1s        -0.092123 -0.000013 -0.000012  0.023077 -0.000010 -0.000011
  3H   2s        -1.064089 -0.000082 -0.000072  0.022865  0.000003  0.000002
  3H   3s         1.944893  0.000545  0.000494  1.313820 -0.000503 -0.000558
  3H   1pz       -0.001440  0.000000 -0.000002 -0.023674 -0.000001 -0.000001
  3H   1px        0.000000 -0.011998  0.012401 -0.000002 -0.002902  0.002794
  3H   1py       -0.000010  0.012403  0.011997  0.000008 -0.002794 -0.002902
  3H   2pz       -0.040647 -0.000039 -0.000026  0.544237 -0.000041 -0.000035
  3H   2px       -0.000005  0.044767 -0.046259  0.000053  0.056379 -0.054299
  3H   2py        0.000045 -0.046275 -0.044751 -0.000070  0.054277  0.056403
  4H   1s         0.018088 -0.013133 -0.045986 -0.050785 -0.015005 -0.004316
  4H   2s         0.387715 -0.382095 -1.337623 -0.351765 -0.784481 -0.226207
  4H   3s        -0.356408 -0.077454 -0.271015 -0.223948  0.083326  0.024087
  4H   1pz       -0.007037  0.000717  0.002515  0.012872 -0.005163 -0.001492
  4H   1px       -0.001577 -0.005394  0.008699  0.001421  0.004435 -0.000080
  4H   1py       -0.002732  0.007480  0.010258  0.002461  0.006846  0.002758
  4H   2pz       -0.007352  0.007168  0.025061 -0.097917  0.082168  0.023716
  4H   2px       -0.010352 -0.040637  0.087036 -0.013677  0.067868 -0.056405
  4H   2py       -0.017932  0.069469  0.110778 -0.023567  0.070810  0.064309
  5Cl  1s        -0.001563 -0.000004 -0.000003 -0.002407  0.000001  0.000001
  5Cl  2s        -0.004792 -0.000011 -0.000010 -0.006848  0.000002  0.000002
  5Cl  3s         0.011740  0.000023  0.000021  0.012480 -0.000004 -0.000004
  5Cl  4s         0.011916  0.000045  0.000041  0.037151 -0.000012 -0.000013
  5Cl  5s         0.011279 -0.000075 -0.000067 -0.146792  0.000028  0.000031
  5Cl  6s        -0.542719 -0.000244 -0.000221  0.047429  0.000088  0.000099
  5Cl  1pz       -0.050391 -0.000030 -0.000040  0.141183 -0.000047 -0.000073
  5Cl  1px       -0.000004 -0.072585  0.075017  0.000015 -0.110353  0.106230
  5Cl  1py       -0.000009  0.075030  0.072572 -0.000051 -0.106239 -0.110344
  5Cl  2pz       -0.012391 -0.000004 -0.000006  0.026793 -0.000008 -0.000012
  5Cl  2px       -0.000001 -0.013368  0.013816  0.000003 -0.016585  0.015965
  5Cl  2py       -0.000002  0.013818  0.013366 -0.000009 -0.015967 -0.016583
  5Cl  3pz        0.043265 -0.000003  0.000003 -0.076337  0.000013  0.000018
  5Cl  3px        0.000004  0.030157 -0.031171 -0.000008  0.017507 -0.016850
  5Cl  3py        0.000004 -0.031173 -0.030155  0.000019  0.016854  0.017503
  5Cl  4pz        0.072748  0.000206  0.000240 -0.513341  0.000241  0.000385
  5Cl  4px        0.000005  0.298838 -0.308839 -0.000054  0.616148 -0.593139
  5Cl  4py        0.000046 -0.308907 -0.298773  0.000224  0.593173  0.616112
  5Cl  5pz       -0.099840 -0.000547 -0.000550  1.044137 -0.000324 -0.000523
  5Cl  5px       -0.000008 -0.309485  0.319824  0.000107 -0.859655  0.827578
  5Cl  5py       -0.000028  0.319913  0.309400 -0.000357 -0.827601 -0.859630
  5Cl  1dz2      -0.064739  0.000014  0.000008 -0.046225  0.000013  0.000023
  5Cl  1dxz      -0.000011 -0.015115  0.015626 -0.000008  0.026007 -0.025046
  5Cl  1dyz       0.000019  0.015624  0.015117  0.000021  0.025038  0.026016
  5Cl  1dx2y2     0.000000 -0.000659  0.000683 -0.000000  0.000238 -0.000223
  5Cl  1dxy       0.000000 -0.000679 -0.000658 -0.000001 -0.000225 -0.000227
  5Cl  2dz2      -0.208291  0.000029 -0.000005  0.036975  0.000022  0.000060
  5Cl  2dxz      -0.000035 -0.102924  0.106387  0.000006  0.103589 -0.099775
  5Cl  2dyz       0.000036  0.106393  0.102921  0.000009  0.099727  0.103640
  5Cl  2dx2y2     0.000000 -0.006184  0.006414 -0.000000  0.003119 -0.002982
  5Cl  2dxy       0.000001 -0.006370 -0.006187 -0.000009 -0.002985 -0.003078
                     24        25        26        27        28        29   
                   0.51098   0.56108   0.56109   0.64036   0.64037   0.64164
                   0.00000   0.00000   0.00000   0.00000   0.00000   0.00000
                  --------  --------  --------  --------  --------  --------
  0C   1s        -0.035097  0.000002  0.000003 -0.000240 -0.000214  0.078989
  0C   2s        -0.066892  0.000002  0.000002 -0.000422 -0.000375  0.138880
  0C   1pz       -0.190716 -0.000045 -0.000050  0.000377  0.000367 -0.116884
  0C   1px       -0.000017  0.002268 -0.002126  0.174978 -0.181260  0.000032
  0C   1py       -0.000032  0.002132  0.002262 -0.181254 -0.174981 -0.001059
  0C   3s         0.392910  0.000066  0.000075  0.001532  0.001364 -0.515328
  0C   2pz       -0.398098 -0.000118 -0.000125  0.000441  0.000401 -0.126608
  0C   2px       -0.000035  0.046937 -0.044132  0.041132 -0.042606 -0.000001
  0C   2py       -0.000068  0.044123  0.046945 -0.042608 -0.041130 -0.000277
  0C   4s        -1.094424 -0.000129 -0.000145 -0.013657 -0.012165  4.550761
  0C   3pz        1.645560  0.000145  0.000235 -0.005824 -0.005557  1.834464
  0C   3px        0.000149  0.383799 -0.360911 -2.065377  2.139563 -0.000333
  0C   3py        0.000084  0.360795  0.383915  2.139452  2.065448  0.012545
  0C   1dz2       0.017392 -0.000003 -0.000000  0.000010  0.000006 -0.004313
  0C   1dxz       0.000003  0.009316 -0.008755 -0.009665  0.010009 -0.000003
  0C   1dyz       0.000005  0.008759  0.009315  0.010010  0.009661  0.000051
  0C   1dx2y2     0.000000  0.010339 -0.009727  0.003999 -0.004143  0.000001
  0C   1dxy       0.000007 -0.009721 -0.010343  0.004143  0.004002  0.000026
  0C   2dz2      -0.362719 -0.000156 -0.000137  0.001929  0.001647 -0.636481
  0C   2dxz      -0.000056  0.119399 -0.112281 -0.227216  0.235237 -0.000150
  0C   2dyz      -0.000104  0.112233  0.119427  0.235266  0.226991  0.001132
  0C   2dx2y2     0.000000 -0.054463  0.051228  0.526796 -0.545631  0.000125
  0C   2dxy       0.000002  0.051235  0.054499  0.545568  0.526931  0.003120
  1H   1s        -0.024416  0.003802 -0.003546  0.074207 -0.077407  0.092320
  1H   2s        -0.203954  0.325895 -0.306311 -0.751701  0.782409 -0.660716
  1H   3s         0.039592  0.050576 -0.047673 -1.575555  1.640157 -1.392334
  1H   1pz        0.009380  0.012036 -0.011313 -0.007885  0.008142  0.003484
  1H   1px       -0.004546  0.005658 -0.005317  0.008174 -0.008629  0.027887
  1H   1py        0.000006 -0.008208 -0.008733  0.009176  0.008862  0.000055
  1H   2pz       -0.129419 -0.197930  0.186033  0.218133 -0.226182  0.051314
  1H   2px        0.040997  0.010786 -0.010232 -0.556472  0.580674 -0.731113
  1H   2py       -0.000101  0.166668  0.177354 -0.089046 -0.086080 -0.000527
  2H   1s        -0.024431  0.001204  0.005077 -0.104346 -0.026185  0.091912
  2H   2s        -0.204130  0.102452  0.435527  1.054803  0.264131 -0.656590
  2H   3s         0.039674  0.015863  0.067645  2.211225  0.553785 -1.383622
  2H   1pz        0.009378  0.003783  0.016079  0.010987  0.002728  0.003522
  2H   1px        0.002277 -0.010993 -0.001402  0.003141  0.012196 -0.013895
  2H   1py       -0.003938 -0.004291  0.007921 -0.011607  0.003633  0.024123
  2H   2pz       -0.129387 -0.062226 -0.264435 -0.305062 -0.076094  0.050202
  2H   2px       -0.020552  0.203484 -0.055508 -0.365424 -0.202318  0.363755
  2H   2py        0.035487  0.121344 -0.015371  0.692823  0.110083 -0.630633
  3H   1s        -0.141036 -0.000022 -0.000025 -0.000024 -0.000021  0.010397
  3H   2s         0.594998  0.000259  0.000293 -0.001110 -0.000987  0.330754
  3H   3s         1.071026 -0.000107 -0.000124 -0.003525 -0.003139  1.122622
  3H   1pz       -0.020398 -0.000004 -0.000001  0.000018  0.000014 -0.007260
  3H   1px       -0.000002  0.019725 -0.018544 -0.011598  0.012013 -0.000003
  3H   1py       -0.000012  0.018543  0.019726  0.012014  0.011597  0.000064
  3H   2pz        0.573364  0.000089  0.000036 -0.000673 -0.000570  0.238056
  3H   2px        0.000047 -0.332097  0.312209  0.156201 -0.161799  0.000057
  3H   2py        0.000190 -0.312194 -0.332111 -0.161804 -0.156195 -0.000827
  4H   1s        -0.024403 -0.004965 -0.001484  0.029289  0.102834  0.092674
  4H   2s        -0.203795 -0.428107 -0.128946 -0.297244 -1.041321 -0.664304
  4H   3s         0.039519 -0.066556 -0.020101 -0.622927 -2.182596 -1.399908
  4H   1pz        0.009381 -0.015817 -0.004765 -0.003136 -0.010901  0.003459
  4H   1px        0.002271  0.000720  0.011056 -0.012216 -0.002632 -0.013991
  4H   1py        0.003938  0.008161 -0.003801  0.003366 -0.011593 -0.024170
  4H   2pz       -0.129437  0.260061  0.078349  0.086448  0.301720  0.052087
  4H   2px       -0.020476  0.067961 -0.199635  0.212910  0.356111  0.367203
  4H   2py       -0.035546 -0.022697  0.120306  0.130638  0.685024  0.635330
  5Cl  1s         0.000799  0.000003  0.000003  0.000005  0.000004 -0.001786
  5Cl  2s         0.002116  0.000008  0.000009  0.000015  0.000013 -0.005319
  5Cl  3s        -0.002512 -0.000012 -0.000014 -0.000033 -0.000030  0.011796
  5Cl  4s        -0.017173 -0.000051 -0.000058 -0.000056 -0.000050  0.019823
  5Cl  5s         0.031881  0.000144  0.000164  0.000091  0.000080 -0.039291
  5Cl  6s        -0.084153 -0.000033 -0.000037  0.000740  0.000660 -0.208930
  5Cl  1pz       -0.140843 -0.000027 -0.000033 -0.000084 -0.000077  0.030603
  5Cl  1px       -0.000014 -0.012180  0.011460 -0.012047  0.012480  0.000000
  5Cl  1py        0.000030 -0.011450 -0.012190  0.012479  0.012048  0.000067
  5Cl  2pz       -0.028036 -0.000006 -0.000008 -0.000014 -0.000013  0.005525
  5Cl  2px       -0.000003 -0.002488  0.002340 -0.003080  0.003190 -0.000000
  5Cl  2py        0.000005 -0.002339 -0.002489  0.003190  0.003079  0.000017
  5Cl  3pz        0.064876  0.000020  0.000025  0.000029  0.000028 -0.016267
  5Cl  3px        0.000006  0.006895 -0.006482  0.012501 -0.012948  0.000001
  5Cl  3py       -0.000002  0.006482  0.006896 -0.012949 -0.012499 -0.000065
  5Cl  4pz        0.642638  0.000096  0.000116  0.000410  0.000370 -0.118654
  5Cl  4px        0.000066  0.033998 -0.032022  0.022461 -0.023282 -0.000005
  5Cl  4py       -0.000187  0.031959  0.034062 -0.023267 -0.022476 -0.000150
  5Cl  5pz       -0.592731 -0.000051 -0.000042 -0.000355 -0.000325  0.128114
  5Cl  5px       -0.000060  0.083487 -0.078397 -0.053422  0.055377 -0.000002
  5Cl  5py        0.000165  0.078485  0.083397  0.055338  0.053459  0.000375
  5Cl  1dz2      -0.078610 -0.000019 -0.000049  0.000017  0.000010 -0.003475
  5Cl  1dxz      -0.000014 -0.079781  0.074994 -0.017514  0.018124 -0.000005
  5Cl  1dyz       0.000035 -0.075000 -0.079774  0.018147  0.017501  0.000111
  5Cl  1dx2y2     0.000000  0.002915 -0.002774 -0.024513  0.025386 -0.000006
  5Cl  1dxy       0.000000 -0.002755 -0.002964 -0.025381 -0.024511 -0.000154
  5Cl  2dz2      -0.288643 -0.000088 -0.000211  0.000018 -0.000020  0.023795
  5Cl  2dxz      -0.000050 -0.329055  0.309291 -0.117206  0.121318 -0.000024
  5Cl  2dyz       0.000087 -0.309333 -0.329006  0.121434  0.117139  0.000701
  5Cl  2dx2y2     0.000000  0.019456 -0.018424 -0.127491  0.132053 -0.000032
  5Cl  2dxy       0.000004 -0.018350 -0.019651 -0.132000 -0.127495 -0.000799
                     30        31        32        33        34        35   
                   0.69278   0.69278   0.74917   0.74918   0.84975   0.94769
                   0.00000   0.00000   0.00000   0.00000   0.00000   0.00000
                  --------  --------  --------  --------  --------  --------
  0C   1s         0.000003  0.000004  0.000016  0.000014  0.013641  0.031051
  0C   2s         0.000006  0.000007  0.000031  0.000028  0.031585  0.061392
  0C   1pz        0.000006 -0.000001  0.000006 -0.000004 -0.003365  0.137236
  0C   1px       -0.039670  0.038812 -0.053162  0.055308  0.000001  0.000012
  0C   1py       -0.038817 -0.039665  0.055330  0.053140 -0.000026  0.000023
  0C   3s        -0.000021 -0.000023 -0.000317 -0.000282 -0.707813 -0.564622
  0C   2pz        0.000001 -0.000000  0.000002 -0.000006  0.020373  0.324358
  0C   2px       -0.004953  0.004842 -0.046967  0.048892  0.000003  0.000027
  0C   2py       -0.004846 -0.004948  0.048883  0.046976 -0.000028  0.000099
  0C   4s         0.000092  0.000104  0.002603  0.002317  6.462703  3.478338
  0C   3pz       -0.000034  0.000066 -0.000110  0.000041 -0.564148 -1.992928
  0C   3px        0.534867 -0.523201  0.779788 -0.811198 -0.000060 -0.000186
  0C   3py        0.523368  0.534689 -0.811596 -0.779404  0.000179 -0.000004
  0C   1dz2      -0.000001 -0.000001  0.000001 -0.000003  0.004198  0.017027
  0C   1dxz       0.001732 -0.001695 -0.012484  0.012993  0.000001  0.000003
  0C   1dyz       0.001695  0.001732  0.012993  0.012484 -0.000009 -0.000003
  0C   1dx2y2     0.002328 -0.002280 -0.002292  0.002386 -0.000000  0.000000
  0C   1dxy      -0.002278 -0.002329 -0.002382 -0.002291 -0.000000  0.000001
  0C   2dz2      -0.000042 -0.000022 -0.000014 -0.000047 -0.283683  0.397358
  0C   2dxz       0.072949 -0.071517 -0.112123  0.116833 -0.000042  0.000059
  0C   2dyz       0.071351  0.073058  0.116722  0.112279 -0.000067  0.000182
  0C   2dx2y2    -0.171549  0.167862 -0.128978  0.134007  0.000001  0.000003
  0C   2dxy       0.167925  0.171509 -0.134176 -0.128773  0.000029  0.000095
  1H   1s        -0.014569  0.014260 -0.002832  0.002954 -0.010128 -0.020492
  1H   2s         0.228731 -0.223791  0.297673 -0.310595 -1.653389 -0.461535
  1H   3s         0.408975 -0.400237  0.410317 -0.427323 -0.495250  0.089655
  1H   1pz       -0.000073  0.000066 -0.016835  0.017520  0.001878 -0.007368
  1H   1px        0.000213 -0.000208 -0.007701  0.008025  0.002590  0.005471
  1H   1py        0.000677  0.000687 -0.006609 -0.006346 -0.000001 -0.000001
  1H   2pz       -0.039226  0.038452  0.262946 -0.273599  0.030378  0.184661
  1H   2px        0.127910 -0.125190  0.231760 -0.241433 -0.301649 -0.176736
  1H   2py        0.012882  0.013257  0.102425  0.098405  0.000035  0.000040
  2H   1s        -0.005061 -0.019742  0.003980  0.000984 -0.010122 -0.020502
  2H   2s         0.079484  0.309943 -0.418410 -0.103489 -1.653286 -0.461318
  2H   3s         0.142082  0.554171 -0.575694 -0.142124 -0.495151  0.089742
  2H   1pz       -0.000025 -0.000089  0.023592  0.005821  0.001871 -0.007379
  2H   1px        0.000774 -0.000352 -0.003497 -0.009038 -0.001293 -0.002735
  2H   1py        0.000533  0.000132  0.010454 -0.002136  0.002239  0.004736
  2H   2pz       -0.013637 -0.053271 -0.368379 -0.090874  0.030520  0.184871
  2H   2px       -0.006740 -0.090649  0.133063  0.159590  0.150763  0.088335
  2H   2py        0.047414  0.147800 -0.298641 -0.000592 -0.261136 -0.152960
  3H   1s         0.000002  0.000002 -0.000008 -0.000007 -0.085893  0.102098
  3H   2s         0.000022  0.000024 -0.000292 -0.000260 -1.073413  0.096549
  3H   3s         0.000056  0.000062 -0.000197 -0.000176 -0.590404 -2.649946
  3H   1pz       -0.000002 -0.000002  0.000021  0.000019  0.051418  0.049408
  3H   1px        0.003109 -0.003037  0.000817 -0.000849  0.000005  0.000004
  3H   1py        0.003042  0.003104 -0.000851 -0.000816  0.000001  0.000006
  3H   2pz        0.000036  0.000031 -0.000328 -0.000295 -0.799615 -0.790644
  3H   2px       -0.043066  0.042079 -0.009664  0.010036 -0.000075 -0.000067
  3H   2py       -0.042140 -0.043002  0.010059  0.009643 -0.000012 -0.000195
  4H   1s         0.019638  0.005491 -0.001133 -0.003925 -0.010133 -0.020484
  4H   2s        -0.308210 -0.086148  0.119121  0.412647 -1.653479 -0.461727
  4H   3s        -0.551213 -0.154108  0.164460  0.568632 -0.495338  0.089577
  4H   1pz        0.000099  0.000026 -0.006756 -0.023340  0.001885 -0.007357
  4H   1px        0.000369 -0.000763  0.009164  0.003132 -0.001296 -0.002738
  4H   1py        0.000116  0.000532 -0.001729  0.010518 -0.002247 -0.004741
  4H   2pz        0.052797  0.014788  0.105564  0.364625  0.030176  0.184426
  4H   2px        0.090515  0.008662 -0.164567 -0.126400  0.150887  0.088444
  4H   2py        0.146839  0.050670 -0.012208 -0.297895  0.261329  0.153175
  5Cl  1s        -0.000000 -0.000000  0.000003  0.000003  0.010962 -0.006498
  5Cl  2s        -0.000001 -0.000001  0.000009  0.000008  0.030763 -0.017402
  5Cl  3s         0.000001  0.000001 -0.000015 -0.000014 -0.052456  0.022343
  5Cl  4s         0.000002  0.000002 -0.000053 -0.000048 -0.188907  0.139874
  5Cl  5s        -0.000007 -0.000008  0.000191  0.000171  0.649316 -0.435333
  5Cl  6s         0.000004  0.000004 -0.000219 -0.000196 -0.614032  0.675139
  5Cl  1pz        0.000003  0.000004 -0.000014 -0.000018 -0.072636  0.043230
  5Cl  1px        0.002174 -0.002135 -0.025308  0.026342 -0.000007  0.000005
  5Cl  1py        0.002127  0.002182  0.026341  0.025310  0.000007 -0.000026
  5Cl  2pz        0.000001  0.000001 -0.000005 -0.000005 -0.018237  0.012398
  5Cl  2px        0.000600 -0.000589 -0.004302  0.004478 -0.000002  0.000001
  5Cl  2py        0.000588  0.000602  0.004477  0.004302  0.000004 -0.000005
  5Cl  3pz       -0.000004 -0.000005  0.000031  0.000030  0.094302 -0.040432
  5Cl  3px       -0.002648  0.002593  0.008832 -0.009193  0.000010 -0.000004
  5Cl  3py       -0.002591 -0.002650 -0.009193 -0.008833 -0.000031  0.000006
  5Cl  4pz        0.000002  0.000001 -0.000078 -0.000046 -0.001225 -0.162368
  5Cl  4px       -0.002736  0.002722  0.134392 -0.139884 -0.000004 -0.000021
  5Cl  4py       -0.002678 -0.002782 -0.139873 -0.134401  0.000122  0.000176
  5Cl  5pz        0.000013  0.000017 -0.000066 -0.000098 -0.345317 -0.250514
  5Cl  5px        0.011676 -0.011469 -0.218724  0.227661 -0.000027 -0.000017
  5Cl  5py        0.011426  0.011721  0.227646  0.218739 -0.000143 -0.000186
  5Cl  1dz2      -0.000001 -0.000000  0.000032 -0.000000  0.035185 -0.181202
  5Cl  1dxz       0.001319 -0.001271 -0.091216  0.094940  0.000009 -0.000030
  5Cl  1dyz       0.001267  0.001275  0.094936  0.091218 -0.000090  0.000022
  5Cl  1dx2y2    -0.126987  0.124295  0.001570 -0.001640  0.000000 -0.000000
  5Cl  1dxy       0.124296  0.126987  0.001652  0.001594  0.000004 -0.000001
  5Cl  2dz2       0.000008  0.000013  0.000059 -0.000073  0.020230 -0.974735
  5Cl  2dxz       0.014508 -0.014070 -0.401865  0.418258  0.000014 -0.000166
  5Cl  2dyz       0.014079  0.014260  0.418256  0.401865 -0.000290  0.000259
  5Cl  2dx2y2    -0.631457  0.618075  0.004842 -0.005075  0.000001 -0.000000
  5Cl  2dxy       0.618075  0.631462  0.005117  0.004953  0.000017 -0.000002
                     36        37        38        39        40        41   
                   1.00579   1.10457   1.10459   1.13705   1.16844   1.16844
                   0.00000   0.00000   0.00000   0.00000   0.00000   0.00000
                  --------  --------  --------  --------  --------  --------
  0C   1s         0.000000 -0.000007 -0.000007 -0.004874  0.000005  0.000004
  0C   2s         0.000000 -0.000016 -0.000018 -0.014354  0.000011  0.000009
  0C   1pz       -0.000000 -0.000027 -0.000031 -0.008049  0.000013  0.000018
  0C   1px        0.000001 -0.004609  0.004476  0.000001  0.041361 -0.046176
  0C   1py        0.000000 -0.004475 -0.004611 -0.000055 -0.046169 -0.041368
  0C   3s        -0.000000  0.000177  0.000196  0.209433 -0.000112 -0.000094
  0C   2pz        0.000000 -0.000296 -0.000317 -0.385928  0.000171  0.000182
  0C   2px       -0.000000  0.057945 -0.056224 -0.000025  0.215556 -0.240612
  0C   2py       -0.000000  0.056254  0.057915 -0.000327 -0.240613 -0.215555
  0C   4s         0.000000 -0.001279 -0.001415 -1.802045  0.000717  0.000604
  0C   3pz       -0.000000  0.000430  0.000348  0.164750 -0.000076  0.000196
[...]
      7       0.000000   0.000000   0.000000   0.000000   0.000000   0.000000
      8       0.000000   0.000000   0.000000   0.000000   0.000000   0.000000
      9       0.000000   0.000000   0.000000   0.000000   0.000000   0.000000
     10       0.000000   0.000000   0.000000   0.000000   0.000000   0.000000
     11       0.000000   0.000000   0.000000   0.000000   0.000000   0.000000
     12       0.000000   0.000000   0.000000   0.000000   0.000000   0.000000
     13       0.000000   0.000000   0.000000   0.000000   0.000000   0.000000
     14       0.000000   0.000000   0.000000   0.000000   0.000000   0.000000
     15       0.000000   0.000000   0.000000   0.000000   0.000000   0.000000
     16       0.000000   0.000000   0.000000   0.000000   0.000000   0.000000
     17       0.000000   0.000000   0.000000   0.000000   0.000000   0.000000
                  6          7          8          9         10         11    
      0       0.000010  -0.024460  -0.024922   0.000028   0.049808  -0.045305
      1       0.000021  -0.024914   0.024470  -0.000181  -0.045313  -0.049796
      2       0.130423  -0.000270   0.000267   0.307219   0.000026   0.000038
      3      -0.034445   0.067077   0.068343   0.030885  -0.021736   0.019640
      4      -0.000033   0.079512  -0.078126   0.000437   0.033833   0.037240
      5      -0.112456   0.460904   0.470284   0.500836  -0.324692   0.294578
      6       0.017208   0.080214   0.071951  -0.015341  -0.027165   0.037100
      7      -0.029841   0.075900  -0.065007   0.027092   0.016509   0.031639
      8      -0.112442   0.175862  -0.633997   0.503015   0.417317   0.132934
      9      -0.000093  -0.393554  -0.400926   0.000024  -0.619749   0.563884
     10      -0.000286  -0.400847   0.393638  -0.001220   0.563833   0.619792
     11      -0.970278  -0.000156   0.000232   0.354476   0.000063  -0.000043
     12       0.017224   0.070328   0.081530  -0.015405  -0.039478   0.023561
     13       0.029793   0.066246  -0.074665  -0.026318   0.030043   0.019361
     14      -0.112489  -0.638081   0.164953   0.498635  -0.093721  -0.428735
     15      -0.000001   0.013289   0.013536  -0.000014   0.003259  -0.002967
     16       0.000003   0.013535  -0.013289   0.000062  -0.002965  -0.003261
     17      -0.007006   0.000133  -0.000132  -0.156879   0.000021   0.000023
                 12         13         14         15         16         17    
      0       0.000014  -0.006044   0.084117  -0.000000  -0.074714   0.063708
      1       0.000077   0.084119   0.006059  -0.000007  -0.063709  -0.074712
      2       0.142652  -0.000007  -0.000008  -0.025367   0.000020   0.000011
      3      -0.119495  -0.007544   0.103503  -0.568065   0.605991  -0.516818
      4      -0.000070  -0.787907  -0.056722   0.000059  -0.007890  -0.009121
      5      -0.503197  -0.011753   0.163697   0.101835  -0.121926   0.103999
      6       0.059707  -0.345318  -0.592847   0.284027  -0.082557  -0.389707
      7      -0.103587  -0.091520  -0.394599  -0.491945   0.119224   0.679388
      8      -0.503520   0.147713  -0.071590   0.101872  -0.029086  -0.157653
      9       0.000037  -0.001244   0.017701  -0.000001  -0.006778   0.005782
     10      -0.000711   0.017649   0.001299   0.000006  -0.005781  -0.006783
     11       0.420587   0.000041  -0.000012  -0.015631   0.000011   0.000010
     12       0.059646   0.426636  -0.537270   0.284040   0.371874   0.143051
     13       0.103304  -0.147183   0.377386   0.491913   0.652095   0.225076
     14      -0.502904  -0.135872  -0.092006   0.101628   0.150772   0.053522
     15      -0.000002  -0.000015   0.000188   0.000000   0.000049  -0.000041
     16       0.000004   0.000188   0.000012   0.000001   0.000042   0.000048
     17      -0.017365  -0.000001   0.000000   0.000357  -0.000000  -0.000000


-----------
IR SPECTRUM
-----------

 Mode    freq (cm**-1)   T**2         TX         TY         TZ
-------------------------------------------------------------------
   7:       395.18    0.404649  ( -0.445549  -0.454008  -0.003553)
   8:       395.42    0.405144  ( -0.454080   0.446025   0.004049)
   9:       521.35    9.637715  (  0.000242   0.000377   3.104467)
  10:       963.36    9.874379  ( -2.324437   2.114562   0.001020)
  11:       963.38    9.874393  (  2.114758   2.324261   0.000752)
  12:      1209.72    8.027363  (  0.000456  -0.002572   2.833259)
  13:      1459.35    4.354702  (  0.149974  -2.081396  -0.000154)
  14:      1459.37    4.366359  ( -2.084214  -0.149702  -0.001504)
  15:      3144.09    0.120730  (  0.001133   0.000055   0.347461)
  16:      3312.29    0.023124  ( -0.116042  -0.098276   0.000531)
  17:      3312.29    0.023030  (  0.098855  -0.115141  -0.000207)

The first frequency considered to be a vibration is 7
The total number of vibrations considered is 11


--------------------------
THERMOCHEMISTRY AT 298.15K
--------------------------

Temperature         ... 298.15 K
Pressure            ... 1.00 atm
Total Mass          ... 51.50 AMU

Throughout the following assumptions are being made:
  (1) The electronic state is orbitally nondegenerate
      but the spin degeneracy is treated
  (2) There are no thermally accessible electronically excited states
  (3) Hindered rotations indicated by low frequency modes are not
      treated as such but are treated as vibrations and this may
      cause some error
  (4) All equations used are the standard statistical mechanics
      equations for an ideal gas
  (5) All vibrations are strictly harmonic

freq.     395.18  E(vib)   ...       0.20 
freq.     395.42  E(vib)   ...       0.20 
freq.     521.35  E(vib)   ...       0.13 
freq.     963.36  E(vib)   ...       0.03 
freq.     963.38  E(vib)   ...       0.03 
freq.    1209.72  E(vib)   ...       0.01 
freq.    1459.35  E(vib)   ...       0.00 
freq.    1459.37  E(vib)   ...       0.00 
freq.    3144.09  E(vib)   ...       0.00 
freq.    3312.29  E(vib)   ...       0.00 
freq.    3312.29  E(vib)   ...       0.00 

------------
INNER ENERGY
------------

The inner energy is: U= E(el) + E(ZPE) + E(vib) + E(rot) + E(trans)
    E(el)   - is the total energy from the electronic structure calculation
              = E(kin-el) + E(nuc-el) + E(el-el) + E(nuc-nuc)
    E(ZPE)  - the the zero temperature vibrational energy from the frequency calculation
    E(vib)  - the the finite temperature correction to E(ZPE) due to population
              of excited vibrational states
    E(rot)  - is the rotational thermal energy
    E(trans)- is the translational thermal energy

Summary of contributions to the inner energy U:
Electronic energy                ...   -500.06313589 Eh
Zero point energy                ...      0.03903825 Eh      24.50 kcal/mol
Thermal vibrational correction   ...      0.00094937 Eh       0.60 kcal/mol
Thermal rotational correction    ...      0.00141627 Eh       0.89 kcal/mol
Thermal translational correction ...      0.00141627 Eh       0.89 kcal/mol
-----------------------------------------------------------------------
Total thermal energy                   -500.02031573 Eh


Summary of corrections to the electronic energy:
(perhaps to be used in another calculation)
Total thermal correction                  0.00378191 Eh       2.37 kcal/mol
Non-thermal (ZPE) correction              0.03903825 Eh      24.50 kcal/mol
-----------------------------------------------------------------------
Total correction                          0.04282016 Eh      26.87 kcal/mol


--------
ENTHALPY
--------

The enthalpy is H = U + kB*T
                kB is Boltzmann's constant
Total free energy                 ...   -500.02031573 Eh 
Thermal Enthalpy correction       ...      0.00094421 Eh       0.59 kcal/mol
-----------------------------------------------------------------------
Total Enthalpy                    ...   -500.01937152 Eh


Note: Only C1 symmetry has been detected, increase convergence thresholds 
      if your molecule has a higher symmetry. Symmetry factor of 1.0 is   
      used for the rotational entropy correction. 
 

Note: Rotational entropy computed according to Herzberg 
Infrared and Raman Spectra, Chapter V,1, Van Nostrand Reinhold, 1945 
Point Group:  C1, Symmetry Number:   1  
Rotational constants in cm-1:     4.993507     0.189362     0.189362 

Vibrational entropy computed according to the QRRHO of S. Grimme
Chem.Eur.J. 2012 18 9955


-------
ENTROPY
-------

The entropy contributions are T*S = T*(S(el)+S(vib)+S(rot)+S(trans))
     S(el)   - electronic entropy
     S(vib)  - vibrational entropy
     S(rot)  - rotational entropy
     S(trans)- translational entropy
The entropies will be listed as mutliplied by the temperature to get
units of energy

Electronic entropy                ...      0.00065446 Eh      0.41 kcal/mol
Vibrational entropy               ...      0.00135733 Eh      0.85 kcal/mol
Rotational entropy                ...      0.01032283 Eh      6.48 kcal/mol
Translational entropy             ...      0.01793131 Eh     11.25 kcal/mol
-----------------------------------------------------------------------
Final entropy term                ...      0.03026593 Eh     18.99 kcal/mol

In case the symmetry of your molecule has not been determined correctly
or in case you have a reason to use a different symmetry number we print 
out the resulting rotational entropy values for sn=1,12 :
 --------------------------------------------------------
|  sn= 1 | S(rot)=       0.01032283 Eh      6.48 kcal/mol|
|  sn= 2 | S(rot)=       0.00966837 Eh      6.07 kcal/mol|
|  sn= 3 | S(rot)=       0.00928554 Eh      5.83 kcal/mol|
|  sn= 4 | S(rot)=       0.00901392 Eh      5.66 kcal/mol|
|  sn= 5 | S(rot)=       0.00880323 Eh      5.52 kcal/mol|
|  sn= 6 | S(rot)=       0.00863109 Eh      5.42 kcal/mol|
|  sn= 7 | S(rot)=       0.00848554 Eh      5.32 kcal/mol|
|  sn= 8 | S(rot)=       0.00835946 Eh      5.25 kcal/mol|
|  sn= 9 | S(rot)=       0.00824825 Eh      5.18 kcal/mol|
|  sn=10 | S(rot)=       0.00814877 Eh      5.11 kcal/mol|
|  sn=11 | S(rot)=       0.00805878 Eh      5.06 kcal/mol|
|  sn=12 | S(rot)=       0.00797663 Eh      5.01 kcal/mol|
 --------------------------------------------------------


-------------------
GIBBS FREE ENERGY
-------------------

The Gibbs free energy is G = H - T*S

Total enthalpy                    ...   -500.01937152 Eh 
Total entropy correction          ...     -0.03026593 Eh    -18.99 kcal/mol
-----------------------------------------------------------------------
Final Gibbs free energy         ...   -500.04963745 Eh

For completeness - the Gibbs free energy minus the electronic energy
G-E(el)                           ...      0.01349843 Eh      8.47 kcal/mol




------------------------------------------------------------------------------- 
                    Intrinsic Reaction Coordinate Calculation                  
------------------------------------------------------------------------------- 

System:
Nr. of atoms                        .... 6
Algorithm: SD (steepest descent step) plus correction
Settings:
Max. no of cycles        MaxIter    .... 1000
Direction                           .... Forward and backward
Initial displacement Hessian type   .... Read
Hessian Filename                    .... H3CHCl‡.hess
Following Hessian mode              .... 0
Initial displacement type           .... Energy
  Initial displacement energy change.... 0.250 mEh
Coordinate system following type    .... Cartesian
Length of steepest descent step     .... 0.150 bohr
Do parabolic fit 
  if SD step is uphill              .... YES
Do Correction to SD step            .... YES
Scaling for length of correction
  compared to SD step               .... 0.333
Do parabolic fit to SD correction   .... YES
Only interpolate for parabolic fit  .... YES
Do update to length of
  SD step and correction            .... YES
Convergence Tolerances:
  Max. Gradient            TolMAXG  ....  2.0000e-03 Eh/bohr
  RMS Gradient             TolRMSG  ....  5.0000e-04 Eh/bohr
Storing full IRC trajectory in      .... H3CHCl‡_IRC_Full_trj.xyz
Storing forward trajectory in       .... H3CHCl‡_IRC_F_trj.xyz
Storing backward trajectory in      .... H3CHCl‡_IRC_B_trj.xyz


 ...good, the file H3CHCl‡.hess exists
Reading the hessian file           ...... done
Determining length of initial displacement:
  Requested energy change (quadratic behavior): 0.250 mEh
  Resulting scaling factor for initial displacement along normalized TS mode: 0.0856

         *************************************************************
         *                          FORWARD IRC                      *
         *************************************************************

Iteration    E(Eh)      dE(kcal/mol)  max(|G|)   RMS(G) 
Convergence thresholds                0.002000  0.000500            
    0      -500.063334   -0.124172    0.007168  0.001956
    1      -500.064669   -0.961836    0.008174  0.002751
    2      -500.066168   -1.902394    0.006899  0.002392
    3      -500.067468   -2.718295    0.005519  0.001956
    4      -500.068419   -3.315218    0.004846  0.001860
    5      -500.068521   -3.379167    0.003869  0.001509
    6      -500.068698   -3.490296    0.003241  0.001445
    7      -500.068875   -3.601572    0.003181  0.001198
    8      -500.069058   -3.715966    0.002766  0.001128
    9      -500.069222   -3.819245    0.002869  0.001025
   10      -500.069376   -3.915646    0.002761  0.000961
   11      -500.069515   -4.002720    0.002703  0.000894
   12      -500.069641   -4.081871    0.002605  0.000841
   13      -500.069754   -4.152635    0.002750  0.000839
   14      -500.069802   -4.182982    0.001770  0.000798
   15      -500.069851   -4.213711    0.001778  0.000670
   16      -500.069902   -4.246054    0.001730  0.000647
   17      -500.069951   -4.276748    0.001795  0.000615
   18      -500.069997   -4.305454    0.001649  0.000583
   19      -500.070041   -4.332875    0.001486  0.000548
   20      -500.070083   -4.359373    0.001589  0.000532
   21      -500.070122   -4.384142    0.001264  0.000503
   22      -500.070159   -4.406877    0.001140  0.000464

                      ***********************HURRAY********************
                      ***            THE IRC HAS CONVERGED          ***
                      *************************************************


         *************************************************************
         *                          BACKWARD IRC                     *
         *************************************************************

Iteration    E(Eh)      dE(kcal/mol)  max(|G|)   RMS(G) 
Convergence thresholds                0.002000  0.000500            
    0      -500.063425   -0.181657    0.007709  0.002333
    1      -500.066336   -2.008356    0.018409  0.006652
    2      -500.068902   -3.618328    0.012806  0.004360
    3      -500.070829   -4.827447    0.011363  0.003072
    4      -500.072431   -5.832505    0.008904  0.002506
    5      -500.073702   -6.630537    0.007324  0.002083
    6      -500.074672   -7.238832    0.005751  0.001910
    7      -500.074951   -7.414328    0.005303  0.001867
    8      -500.075069   -7.488332    0.005229  0.001483
    9      -500.075266   -7.611972    0.004977  0.001292
   10      -500.075463   -7.735264    0.004612  0.001221
   11      -500.075643   -7.848259    0.004328  0.001122
   12      -500.075813   -7.955136    0.004000  0.001059
   13      -500.075970   -8.053755    0.003732  0.000967
   14      -500.076116   -8.144964    0.003446  0.000915
   15      -500.076249   -8.228850    0.003208  0.000831
   16      -500.076375   -8.307485    0.002950  0.000794
   17      -500.076487   -8.377635    0.002736  0.000744
   18      -500.076588   -8.441078    0.002518  0.000733
   19      -500.076675   -8.496007    0.002344  0.000732
   20      -500.076748   -8.541938    0.002242  0.000831
   21      -500.076773   -8.557202    0.002135  0.000646
   22      -500.076811   -8.581314    0.002069  0.000541
   23      -500.076853   -8.607301    0.001981  0.000513
   24      -500.076892   -8.631786    0.001898  0.000493

                      ***********************HURRAY********************
                      ***            THE IRC HAS CONVERGED          ***
                      *************************************************


---------------------------------------------------------------
                       IRC PATH SUMMARY              
---------------------------------------------------------------
All gradients are in Eh/Bohr.

Step        E(Eh)      dE(kcal/mol)  max(|G|)   RMS(G) 
   1      -500.076892   -8.631786    0.001898  0.000493
   2      -500.076853   -8.607301    0.001981  0.000513
   3      -500.076811   -8.581314    0.002069  0.000541
   4      -500.076773   -8.557202    0.002135  0.000646
   5      -500.076748   -8.541938    0.002242  0.000831
   6      -500.076675   -8.496007    0.002344  0.000732
   7      -500.076588   -8.441078    0.002518  0.000733
   8      -500.076487   -8.377635    0.002736  0.000744
   9      -500.076375   -8.307485    0.002950  0.000794
  10      -500.076249   -8.228850    0.003208  0.000831
  11      -500.076116   -8.144964    0.003446  0.000915
  12      -500.075970   -8.053755    0.003732  0.000967
  13      -500.075813   -7.955136    0.004000  0.001059
  14      -500.075643   -7.848259    0.004328  0.001122
  15      -500.075463   -7.735264    0.004612  0.001221
  16      -500.075266   -7.611972    0.004977  0.001292
  17      -500.075069   -7.488332    0.005229  0.001483
  18      -500.074951   -7.414328    0.005303  0.001867
  19      -500.074672   -7.238832    0.005751  0.001910
  20      -500.073702   -6.630537    0.007324  0.002083
  21      -500.072431   -5.832505    0.008904  0.002506
  22      -500.070829   -4.827447    0.011363  0.003072
  23      -500.068902   -3.618328    0.012806  0.004360
  24      -500.066336   -2.008356    0.018409  0.006652
  25      -500.063425   -0.181657    0.007709  0.002333
  26      -500.063136    0.000000    0.000003  0.000001 <= TS
  27      -500.063334   -0.124172    0.007168  0.001956
  28      -500.064669   -0.961836    0.008174  0.002751
  29      -500.066168   -1.902394    0.006899  0.002392
  30      -500.067468   -2.718295    0.005519  0.001956
  31      -500.068419   -3.315218    0.004846  0.001860
  32      -500.068521   -3.379167    0.003869  0.001509
  33      -500.068698   -3.490296    0.003241  0.001445
  34      -500.068875   -3.601572    0.003181  0.001198
  35      -500.069058   -3.715966    0.002766  0.001128
  36      -500.069222   -3.819245    0.002869  0.001025
  37      -500.069376   -3.915646    0.002761  0.000961
  38      -500.069515   -4.002720    0.002703  0.000894
  39      -500.069641   -4.081871    0.002605  0.000841
  40      -500.069754   -4.152635    0.002750  0.000839
  41      -500.069802   -4.182982    0.001770  0.000798
  42      -500.069851   -4.213711    0.001778  0.000670
  43      -500.069902   -4.246054    0.001730  0.000647
  44      -500.069951   -4.276748    0.001795  0.000615
  45      -500.069997   -4.305454    0.001649  0.000583
  46      -500.070041   -4.332875    0.001486  0.000548
  47      -500.070083   -4.359373    0.001589  0.000532
  48      -500.070122   -4.384142    0.001264  0.000503
  49      -500.070159   -4.406877    0.001140  0.000464

Timings for individual modules:

Sum of individual times         ...     6320.523 sec (= 105.342 min)
GTO integral calculation        ...      367.721 sec (=   6.129 min)   5.8 %
SCF iterations                  ...     2018.010 sec (=  33.634 min)  31.9 %
MP2 module                      ...     3204.858 sec (=  53.414 min)  50.7 %
Geometry relaxation             ...        0.281 sec (=   0.005 min)   0.0 %
Analytical frequency calculation...      729.652 sec (=  12.161 min)  11.5 %
                             ****ORCA TERMINATED NORMALLY****
TOTAL RUN TIME: 0 days 1 hours 45 minutes 27 seconds 312 msec
