
                                 *****************
                                 * O   R   C   A *
                                 *****************

           --- An Ab Initio, DFT and Semiempirical electronic structure package ---

                  #######################################################
                  #                        -***-                        #
                  #          Department of theory and spectroscopy      #
                  #               Directorship: Frank Neese             #
                  #        Max Planck Institute fuer Kohlenforschung    #
                  #                Kaiser Wilhelm Platz 1               #
                  #                 D-45470 Muelheim/Ruhr               #
                  #                      Germany                        #
                  #                                                     #
                  #                  All rights reserved                #
                  #                        -***-                        #
                  #######################################################


                         Program Version 4.2.1 -  RELEASE  -


 With contributions from (in alphabetic order):
   Daniel Aravena         : Magnetic Suceptibility
   Michael Atanasov       : Ab Initio Ligand Field Theory (pilot matlab implementation)
   Alexander A. Auer      : GIAO ZORA, VPT2
   Ute Becker             : Parallelization
   Giovanni Bistoni       : ED, misc. LED, open-shell LED, HFLD
   Martin Brehm           : Molecular dynamics
   Dmytro Bykov           : SCF Hessian
   Vijay G. Chilkuri      : MRCI spin determinant printing, contributions to CSF-ICE
   Dipayan Datta          : RHF DLPNO-CCSD density
   Achintya Kumar Dutta   : EOM-CC, STEOM-CC
   Dmitry Ganyushin       : Spin-Orbit,Spin-Spin,Magnetic field MRCI
   Miquel Garcia          : C-PCM Hessian, Gaussian charge scheme
   Yang Guo               : DLPNO-NEVPT2, CIM, IAO-localization
   Andreas Hansen         : Spin unrestricted coupled pair/coupled cluster methods
   Benjamin Helmich-Paris : CASSCF linear response (MC-RPA)
   Lee Huntington         : MR-EOM, pCC
   Robert Izsak           : Overlap fitted RIJCOSX, COSX-SCS-MP3, EOM
   Christian Kollmar      : KDIIS, OOCD, Brueckner-CCSD(T), CCSD density
   Simone Kossmann        : Meta GGA functionals, TD-DFT gradient, OOMP2, MP2 Hessian
   Martin Krupicka        : AUTO-CI
   Lucas Lang             : DCDCAS
   Dagmar Lenk            : GEPOL surface, SMD
   Dimitrios Liakos       : Extrapolation schemes; Compound Job, initial MDCI parallelization
   Dimitrios Manganas     : Further ROCIS development; embedding schemes
   Dimitrios Pantazis     : SARC Basis sets
   Taras Petrenko         : DFT Hessian,TD-DFT gradient, ASA, ECA, R-Raman, ABS, FL, XAS/XES, NRVS
   Peter Pinski           : DLPNO-MP2, DLPNO-MP2 Gradient
   Christoph Reimann      : Effective Core Potentials
   Marius Retegan         : Local ZFS, SOC
   Christoph Riplinger    : Optimizer, TS searches, QM/MM, DLPNO-CCSD(T), (RO)-DLPNO pert. Triples
   Tobias Risthaus        : Range-separated hybrids, TD-DFT gradient, RPA, STAB
   Michael Roemelt        : Original ROCIS implementation
   Masaaki Saitow         : Open-shell DLPNO-CCSD energy and density
   Barbara Sandhoefer     : DKH picture change effects
   Avijit Sen             : IP-ROCIS
   Kantharuban Sivalingam : CASSCF convergence, NEVPT2, FIC-MRCI
   Bernardo de Souza      : ESD, SOC TD-DFT
   Georgi Stoychev        : AutoAux, RI-MP2 NMR
   Willem Van den Heuvel  : Paramagnetic NMR
   Boris Wezisla          : Elementary symmetry handling
   Frank Wennmohs         : Technical directorship


 We gratefully acknowledge several colleagues who have allowed us to
 interface, adapt or use parts of their codes:
   Stefan Grimme, W. Hujo, H. Kruse,             : VdW corrections, initial TS optimization,
                  C. Bannwarth                     DFT functionals, gCP, sTDA/sTD-DF
   Ed Valeev, F. Pavosevic, A. Kumar             : LibInt (2-el integral package), F12 methods
   Garnet Chan, S. Sharma, J. Yang, R. Olivares  : DMRG
   Ulf Ekstrom                                   : XCFun DFT Library
   Mihaly Kallay                                 : mrcc  (arbitrary order and MRCC methods)
   Andreas Klamt, Michael Diedenhofen            : otool_cosmo (COSMO solvation model)
   Jiri Pittner, Ondrej Demel                    : Mk-CCSD
   Frank Weinhold                                : gennbo (NPA and NBO analysis)
   Christopher J. Cramer and Donald G. Truhlar   : smd solvation model
   Lars Goerigk                                  : TD-DFT with DH, B97 family of functionals
   V. Asgeirsson, H. Jonsson                     : NEB implementation
   FAccTs GmbH                                   : IRC, NEB, NEB-TS, Multilevel, MM, QM/MM, CI optimization
   S Lehtola, MJT Oliveira, MAL Marques          : LibXC Library


 Your calculation uses the libint2 library for the computation of 2-el integrals
 For citations please refer to: http://libint.valeyev.net

 Your ORCA version has been built with support for libXC version: 4.2.3
 For citations please refer to: https://tddft.org/programs/libxc/

 This ORCA versions uses:
   CBLAS   interface :  Fast vector & matrix operations
   LAPACKE interface :  Fast linear algebra routines
   SCALAPACK package :  Parallel linear algebra routines


----- Orbital basis set information -----
Your calculation utilizes the basis: 6-311G(2d,2p)
   H, Li - Ne  : R. Krishnan, J. S. Binkley, R. Seeger and J. A. Pople, J. Chem. Phys. 72, 650 (1980).
   Na - Ar     : A. D. McLean and G. S. Chandler J. Chem. Phys. 72, 5639, (1980).
   K  - Ca     : J.-P. Blaudeau, M. P. McGrath, L. A. Curtiss and L. Radom, J. Chem. Phys. 107, 5016 (1997).
   Ga - Kr     : L. A. Curtiss, M. P. McGrath, J.-P. Blandeau, N. E. Davis, R. C. Binning and L. Radom, J. Chem. Phys. 103, 6104 (1995).
   Pol./Diff.
   H, Li - Cl  : T. Clark, J. Chandrasekhar and P. v. R. Schleyer, J. Comp. Chem. 4, 294 (1983).
   H - Ne      : M. J. Frisch, J. A. Pople and J. S. Binkley, J. Chem. Phys. 80, 3265 (1984).

================================================================================
                                        WARNINGS
                       Please study these warnings very carefully!
================================================================================


WARNING: Geometry Optimization
  ===> : Switching off AutoStart
         For restart on a previous wavefunction, please use MOREAD

WARNING: Post HF methods need fully converged wavefunctions
  ===> : Setting SCFConvForced true
         You can overwrite this default with %scf ConvForced false 


INFO   : the flag for use of LIBINT has been found!

================================================================================
                                       INPUT FILE
================================================================================
NAME = HCl.inp
|  1> ! UHF MP2 6-311G(2d,2p) Opt Freq NoFrozenCore TightOpt TightSCF Grid4 FinalGrid5 PrintBasis PrintMOs NBO
|  2> %maxcore 3000
|  3> 
|  4> *xyz 0 1
|  5>   Cl  0.00000000000000      0.00000000000000      0.03313381385239
|  6>   H   0.00000000000000      0.00000000000000     -1.23532581385239
|  7> *
|  8> 
|  9> %pal
| 10>  nprocs 12
| 11> end
| 12> 
| 13>                          ****END OF INPUT****
================================================================================

                       *****************************
                       * Geometry Optimization Run *
                       *****************************

Geometry optimization settings:
Update method            Update   .... BFGS
Choice of coordinates    CoordSys .... Z-matrix Internals
Initial Hessian          InHess   .... Almoef's Model

Convergence Tolerances:
Energy Change            TolE     ....  1.0000e-06 Eh
Max. Gradient            TolMAXG  ....  1.0000e-04 Eh/bohr
RMS Gradient             TolRMSG  ....  3.0000e-05 Eh/bohr
Max. Displacement        TolMAXD  ....  1.0000e-03 bohr
RMS Displacement         TolRMSD  ....  6.0000e-04 bohr
Strict Convergence                ....  False
------------------------------------------------------------------------------
                        ORCA OPTIMIZATION COORDINATE SETUP
------------------------------------------------------------------------------

The optimization will be done in new redundant internal coordinates
Making redundant internal coordinates   ...  (new redundants) done
Evaluating the initial hessian          ...  (Almloef) done
Evaluating the coordinates              ...  done
Calculating the B-matrix                .... done
Calculating the G-matrix                .... done
Diagonalizing the G-matrix              .... done
The first mode is                       ....    0
The number of degrees of freedom        ....    1

    -----------------------------------------------------------------
                    Redundant Internal Coordinates


    -----------------------------------------------------------------
         Definition                    Initial Value    Approx d2E/dq
    -----------------------------------------------------------------
      1. B(H   1,Cl  0)                  1.2685         0.419467   
    -----------------------------------------------------------------

Number of atoms                         .... 2
Number of degrees of freedom            .... 1

         *************************************************************
         *                GEOMETRY OPTIMIZATION CYCLE   1            *
         *************************************************************
---------------------------------
CARTESIAN COORDINATES (ANGSTROEM)
---------------------------------
  Cl     0.000000    0.000000    0.033134
  H      0.000000    0.000000   -1.235326

----------------------------
CARTESIAN COORDINATES (A.U.)
----------------------------
  NO LB      ZA    FRAG     MASS         X           Y           Z
   0 Cl   17.0000    0    35.453    0.000000    0.000000    0.062614
   1 H     1.0000    0     1.008    0.000000    0.000000   -2.334427

--------------------------------
INTERNAL COORDINATES (ANGSTROEM)
--------------------------------
 Cl     0   0   0     0.000000000000     0.00000000     0.00000000
 H      1   0   0     1.268459627705     0.00000000     0.00000000

---------------------------
INTERNAL COORDINATES (A.U.)
---------------------------
 Cl     0   0   0     0.000000000000     0.00000000     0.00000000
 H      1   0   0     2.397041308298     0.00000000     0.00000000

---------------------
BASIS SET INFORMATION
---------------------
There are 2 groups of distinct atoms

 Group   1 Type Cl  : 13s10p2d contracted to 6s5p2d pattern {631111/52111/11}
 Group   2 Type H   : 5s2p contracted to 3s2p pattern {311/11}

Atom   0Cl   basis set group =>   1
Atom   1H    basis set group =>   2

-------------------------
BASIS SET IN INPUT FORMAT
-------------------------

 # Basis set for element : H 
 NewGTO H 
 S 3 
   1      33.8650000000      0.0254938145
   2       5.0947900000      0.1903731086
   3       1.1587900000      0.8521614860
 S 1 
   1       0.3258400000      1.0000000000
 S 1 
   1       0.1027410000      1.0000000000
 P 1 
   1       1.5000000000      1.0000000000
 P 1 
   1       0.3750000000      1.0000000000
  end;

 # Basis set for element : Cl
 NewGTO Cl
 S 6 
   1  105819.0000000000      0.0007380002
   2   15872.0000000000      0.0057180019
   3    3619.6500000000      0.0294950099
   4    1030.8000000000      0.1172860392
   5     339.9080000000      0.3629491212
   6     124.5380000000      0.5841491951
 S 3 
   1     124.5380000000      0.1341769734
   2      49.5135000000      0.6242498762
   3      20.8056000000      0.2917559421
 S 1 
   1       6.5834600000      1.0000000000
 S 1 
   1       2.5646800000      1.0000000000
 S 1 
   1       0.5597630000      1.0000000000
 S 1 
   1       0.1832730000      1.0000000000
 P 5 
   1     589.7760000000      0.0023909997
   2     139.8490000000      0.0185039976
   3      45.1413000000      0.0813769893
   4      16.8733000000      0.2215519708
   5       6.7411000000      0.7725688983
 P 2 
   1       6.7411000000     -1.5722438126
   2       2.7715200000      0.9923888817
 P 1 
   1       1.0238700000      1.0000000000
 P 1 
   1       0.3813680000      1.0000000000
 P 1 
   1       0.1094370000      1.0000000000
 D 1 
   1       1.5000000000      1.0000000000
 D 1 
   1       0.3750000000      1.0000000000
  end;



           ************************************************************
           *        Program running with 12 parallel MPI-processes    *
           *              working on a common directory               *
           ************************************************************
------------------------------------------------------------------------------
                           ORCA GTO INTEGRAL CALCULATION
------------------------------------------------------------------------------

                         BASIS SET STATISTICS AND STARTUP INFO

 # of primitive gaussian shells          ...   32
 # of primitive gaussian functions       ...   64
 # of contracted shells                  ...   18
 # of contracted basis functions         ...   40
 Highest angular momentum                ...    2
 Maximum contraction depth               ...    6
 Integral package used                   ... LIBINT
 Integral threshhold            Thresh   ...  2.500e-11
 Primitive cut-off              TCut     ...  2.500e-12


------------------------------ INTEGRAL EVALUATION ----------------------------


 * One electron integrals 
 Pre-screening matrix                    ... done
 Shell pair data                         ... done (   0.000 sec)



           ************************************************************
           *        Program running with 12 parallel MPI-processes    *
           *              working on a common directory               *
           ************************************************************
-------------------------------------------------------------------------------
                                 ORCA SCF
-------------------------------------------------------------------------------

------------
SCF SETTINGS
------------
Hamiltonian:
 Ab initio Hamiltonian  Method          .... Hartree-Fock(GTOs)


General Settings:
 Integral files         IntName         .... HCl
 Hartree-Fock type      HFTyp           .... UHF
 Total Charge           Charge          ....    0
 Multiplicity           Mult            ....    1
 Number of Electrons    NEL             ....   18
 Basis Dimension        Dim             ....   40
 Nuclear Repulsion      ENuc            ....      7.0920763615 Eh

Convergence Acceleration:
 DIIS                   CNVDIIS         .... on
   Start iteration      DIISMaxIt       ....    12
   Startup error        DIISStart       ....  0.200000
   # of expansion vecs  DIISMaxEq       ....     5
   Bias factor          DIISBfac        ....   1.050
   Max. coefficient     DIISMaxC        ....  10.000
 Newton-Raphson         CNVNR           .... off
 SOSCF                  CNVSOSCF        .... off
 Level Shifting         CNVShift        .... on
   Level shift para.    LevelShift      ....    0.2500
   Turn off err/grad.   ShiftErr        ....    0.0010
 Zerner damping         CNVZerner       .... off
 Static damping         CNVDamp         .... on
   Fraction old density DampFac         ....    0.7000
   Max. Damping (<1)    DampMax         ....    0.9800
   Min. Damping (>=0)   DampMin         ....    0.0000
   Turn off err/grad.   DampErr         ....    0.1000
 Fernandez-Rico         CNVRico         .... off

SCF Procedure:
 Maximum # iterations   MaxIter         ....   125
 SCF integral mode      SCFMode         .... Direct
   Integral package                     .... LIBINT
 Reset frequency        DirectResetFreq ....    20
 Integral Threshold     Thresh          ....  2.500e-11 Eh
 Primitive CutOff       TCut            ....  2.500e-12 Eh

Convergence Tolerance:
 Convergence Check Mode ConvCheckMode   .... Total+1el-Energy
 Convergence forced     ConvForced      .... 1
 Energy Change          TolE            ....  1.000e-08 Eh
 1-El. energy change                    ....  1.000e-05 Eh
 DIIS Error             TolErr          ....  5.000e-07


Diagonalization of the overlap matrix:
Smallest eigenvalue                        ... 9.681e-03
Time for diagonalization                   ...    0.002 sec
Threshold for overlap eigenvalues          ... 1.000e-08
Number of eigenvalues below threshold      ... 0
Time for construction of square roots      ...    0.004 sec
Total time needed                          ...    0.007 sec

-------------------
DFT GRID GENERATION
-------------------

General Integration Accuracy     IntAcc      ...  4.670
Radial Grid Type                 RadialGrid  ... Gauss-Chebyshev
Angular Grid (max. acc.)         AngularGrid ... Lebedev-302
Angular grid pruning method      GridPruning ... 3 (G Style)
Weight generation scheme         WeightScheme... Becke
Basis function cutoff            BFCut       ...    1.0000e-11
Integration weight cutoff        WCut        ...    1.0000e-14
Grids for H and He will be reduced by one unit

# of grid points (after initial pruning)     ...  10132 (   0.0 sec)
# of grid points (after weights+screening)   ...  10103 (   0.0 sec)
nearest neighbour list constructed           ...    0.0 sec
Grid point re-assignment to atoms done       ...    0.0 sec
Grid point division into batches done        ...    0.1 sec
Reduced shell lists constructed in    0.1 sec

Total number of grid points                  ...    10103
Total number of batches                      ...      159
Average number of points per batch           ...       63
Average number of grid points per atom       ...     5052
Average number of shells per batch           ...     4.13 (22.96%)
Average number of basis functions per batch  ...     8.80 (22.00%)
Average number of large shells per batch     ...     2.53 (61.29%)
Average number of large basis fcns per batch ...     5.87 (66.67%)
Maximum spatial batch extension              ...  25.31, 23.02, 15.32 au
Average spatial batch extension              ...   1.45,  1.37,  0.98 au

Time for grid setup =    0.263 sec

------------------------------
INITIAL GUESS: MODEL POTENTIAL
------------------------------
Loading Hartree-Fock densities                     ... done
Calculating cut-offs                               ... done
Setting up the integral package                    ... done
Initializing the effective Hamiltonian             ... done
Starting the Coulomb interaction                   ... done (   0.0 sec)
Reading the grid                                   ... done
Mapping shells                                     ... done
Starting the XC term evaluation                    ... done (   0.0 sec)
Transforming the Hamiltonian                       ... done (   0.0 sec)
Diagonalizing the Hamiltonian                      ... done (   0.0 sec)
Back transforming the eigenvectors                 ... done (   0.0 sec)
Now organizing SCF variables                       ... done
                      ------------------
                      INITIAL GUESS DONE (   0.6 sec)
                      ------------------
--------------
SCF ITERATIONS
--------------
ITER       Energy         Delta-E        Max-DP      RMS-DP      [F,P]     Damp
               ***  Starting incremental Fock matrix formation  ***
  0   -460.0699645148   0.000000000000 0.01443900  0.00080214  0.6474797 0.7000
  1   -460.0781783268  -0.008213811942 0.01096521  0.00061260  0.4558049 0.7000
  2   -460.0838381881  -0.005659861376 0.00704716  0.00041386  0.3207881 0.7000
  3   -460.0877409283  -0.003902740163 0.00438638  0.00027692  0.2257040 0.7000
                               ***Turning on DIIS***
  4   -460.0904651637  -0.002724235421 0.00272039  0.00018905  0.1587507 0.7000
  5   -460.1340402769  -0.043575113139 0.00143848  0.00013548  0.1116272 0.7000
  6   -460.1238948018   0.010145475037 0.00377671  0.00034312  0.0782342 0.0000
  7   -460.0971246572   0.026770144619 0.00043636  0.00003228  0.0020310 0.0000
  8   -460.0977779066  -0.000653249388 0.00031227  0.00002212  0.0010027 0.0000
  9   -460.0968527352   0.000925171392 0.00014439  0.00001105  0.0003264 0.0000
 10   -460.0969404549  -0.000087719723 0.00002285  0.00000146  0.0000271 0.0000
 11   -460.0969683935  -0.000027938537 0.00000663  0.00000040  0.0000080 0.0000
 12   -460.0969395946   0.000028798826 0.00000136  0.00000007  0.0000012 0.0000
                            ***DIIS convergence achieved***

               *****************************************************
               *                     SUCCESS                       *
               *           SCF CONVERGED AFTER  13 CYCLES          *
               *****************************************************


----------------
TOTAL SCF ENERGY
----------------

Total Energy       :         -460.09694604 Eh          -12519.87440 eV

Components:
Nuclear Repulsion  :            7.09207636 Eh             192.98521 eV
Electronic Energy  :         -467.18902240 Eh          -12712.85961 eV
One Electron Energy:         -649.85143760 Eh          -17683.35662 eV
Two Electron Energy:          182.66241520 Eh            4970.49701 eV

Virial components:
Potential Energy   :         -920.21304001 Eh          -25040.26984 eV
Kinetic Energy     :          460.11609397 Eh           12520.39544 eV
Virial Ratio       :            1.99995838


---------------
SCF CONVERGENCE
---------------

  Last Energy change         ...   -6.4438e-06  Tolerance :   1.0000e-08
  Last MAX-Density change    ...    1.1164e-07  Tolerance :   1.0000e-07
  Last RMS-Density change    ...    8.3422e-09  Tolerance :   5.0000e-09
  Last DIIS Error            ...    3.0537e-07  Tolerance :   5.0000e-07

             **** THE GBW FILE WAS UPDATED (HCl.gbw) ****
             **** DENSITY FILE WAS UPDATED (HCl.scfp) ****
             **** ENERGY FILE WAS UPDATED (HCl.en.tmp) ****
----------------------
UHF SPIN CONTAMINATION
----------------------

Expectation value of <S**2>     :    -0.000000
Ideal value S*(S+1) for S=0.0   :     0.000000
Deviation                       :    -0.000000

             **** THE GBW FILE WAS UPDATED (HCl.gbw) ****
             **** DENSITY FILE WAS UPDATED (HCl.scfp) ****
----------------
ORBITAL ENERGIES
----------------
                 SPIN UP ORBITALS
  NO   OCC          E(Eh)            E(eV) 
   0   1.0000    -104.849812     -2853.1084 
   1   1.0000     -10.576560      -287.8028 
   2   1.0000      -8.045178      -218.9204 
   3   1.0000      -8.041871      -218.8304 
   4   1.0000      -8.041871      -218.8304 
   5   1.0000      -1.121041       -30.5051 
   6   1.0000      -0.630326       -17.1521 
   7   1.0000      -0.478322       -13.0158 
   8   1.0000      -0.478322       -13.0158 
   9   0.0000       0.125026         3.4021 
  10   0.0000       0.310193         8.4408 
  11   0.0000       0.416673        11.3382 
  12   0.0000       0.416673        11.3382 
  13   0.0000       0.432597        11.7715 
  14   0.0000       0.557097        15.1594 
  15   0.0000       0.557097        15.1594 
  16   0.0000       0.665007        18.0958 
  17   0.0000       0.665007        18.0958 
  18   0.0000       0.852479        23.1971 
  19   0.0000       1.022766        27.8309 
  20   0.0000       1.057506        28.7762 
  21   0.0000       1.057506        28.7762 
  22   0.0000       1.487136        40.4670 
  23   0.0000       2.459978        66.9394 
  24   0.0000       2.459978        66.9394 
  25   0.0000       2.598283        70.7029 
  26   0.0000       2.692755        73.2736 
  27   0.0000       2.730517        74.3011 
  28   0.0000       2.730517        74.3011 
  29   0.0000       2.791843        75.9699 
  30   0.0000       2.791843        75.9699 
  31   0.0000       2.898380        78.8689 
  32   0.0000       3.993964       108.6813 
  33   0.0000       3.993964       108.6813 
  34   0.0000       4.187890       113.9583 
  35   0.0000      10.228164       278.3225 
  36   0.0000      26.231311       713.7903 
  37   0.0000      26.231311       713.7903 
  38   0.0000      27.240236       741.2445 
  39   0.0000     219.036951      5960.2984 

                 SPIN DOWN ORBITALS
  NO   OCC          E(Eh)            E(eV) 
   0   1.0000    -104.849812     -2853.1084 
   1   1.0000     -10.576560      -287.8028 
   2   1.0000      -8.045178      -218.9204 
   3   1.0000      -8.041871      -218.8304 
   4   1.0000      -8.041871      -218.8304 
   5   1.0000      -1.121041       -30.5051 
   6   1.0000      -0.630326       -17.1521 
   7   1.0000      -0.478322       -13.0158 
   8   1.0000      -0.478322       -13.0158 
   9   0.0000       0.125026         3.4021 
  10   0.0000       0.310193         8.4408 
  11   0.0000       0.416673        11.3382 
  12   0.0000       0.416673        11.3382 
  13   0.0000       0.432597        11.7715 
  14   0.0000       0.557097        15.1594 
  15   0.0000       0.557097        15.1594 
  16   0.0000       0.665007        18.0958 
  17   0.0000       0.665007        18.0958 
  18   0.0000       0.852479        23.1971 
  19   0.0000       1.022766        27.8309 
  20   0.0000       1.057506        28.7762 
  21   0.0000       1.057506        28.7762 
  22   0.0000       1.487136        40.4670 
  23   0.0000       2.459978        66.9394 
  24   0.0000       2.459978        66.9394 
  25   0.0000       2.598283        70.7029 
  26   0.0000       2.692755        73.2736 
  27   0.0000       2.730517        74.3011 
  28   0.0000       2.730517        74.3011 
  29   0.0000       2.791843        75.9699 
  30   0.0000       2.791843        75.9699 
  31   0.0000       2.898380        78.8689 
  32   0.0000       3.993964       108.6813 
  33   0.0000       3.993964       108.6813 
  34   0.0000       4.187890       113.9583 
  35   0.0000      10.228164       278.3225 
  36   0.0000      26.231311       713.7903 
  37   0.0000      26.231311       713.7903 
  38   0.0000      27.240236       741.2445 
  39   0.0000     219.036951      5960.2984 
------------------
MOLECULAR ORBITALS
------------------
                      0         1         2         3         4         5   
                 -104.84981 -10.57656  -8.04518  -8.04187  -8.04187  -1.12104
                   1.00000   1.00000   1.00000   1.00000   1.00000   1.00000
                  --------  --------  --------  --------  --------  --------
  0Cl  1s         0.411732  0.121939  0.000557 -0.000000  0.000000  0.034724
  0Cl  2s         0.654663  0.331483  0.001558  0.000000  0.000000  0.100454
  0Cl  3s         0.012082 -0.511781 -0.003011 -0.000000 -0.000000 -0.198269
  0Cl  4s        -0.000904 -0.605787 -0.002203  0.000000 -0.000000 -0.397525
  0Cl  5s         0.000198 -0.042277  0.000962 -0.000000  0.000000  0.601536
  0Cl  6s        -0.000057  0.009643 -0.002092 -0.000000 -0.000000  0.497567
  0Cl  1pz       -0.000162  0.004685 -1.229943 -0.000000 -0.000000  0.043539
  0Cl  1px       -0.000000 -0.000000  0.000000 -0.948055 -0.785732 -0.000000
  0Cl  1py       -0.000000 -0.000000 -0.000000 -0.785732  0.948055  0.000000
  0Cl  2pz       -0.000108  0.001293 -0.326993 -0.000000 -0.000000  0.011561
  0Cl  2px       -0.000000 -0.000000  0.000000 -0.252001 -0.208854  0.000000
  0Cl  2py       -0.000000 -0.000000 -0.000000 -0.208854  0.252001  0.000000
  0Cl  3pz        0.000117  0.000350 -0.052131 -0.000000 -0.000000 -0.030627
  0Cl  3px        0.000000 -0.000000  0.000000 -0.037922 -0.031429  0.000000
  0Cl  3py       -0.000000  0.000000 -0.000000 -0.031429  0.037922 -0.000000
  0Cl  4pz       -0.000122  0.001605  0.004675 -0.000000  0.000000 -0.037593
  0Cl  4px       -0.000000 -0.000000 -0.000000  0.001708  0.001415 -0.000000
  0Cl  4py        0.000000  0.000000  0.000000  0.001415 -0.001708  0.000000
  0Cl  5pz        0.000026 -0.002016 -0.000400  0.000000 -0.000000 -0.012900
  0Cl  5px        0.000000  0.000000  0.000000 -0.000494 -0.000409  0.000000
  0Cl  5py       -0.000000 -0.000000 -0.000000 -0.000409  0.000494 -0.000000
  0Cl  1dz2       0.000004 -0.000741  0.000737  0.000000  0.000000  0.013487
  0Cl  1dxz       0.000000 -0.000000 -0.000000  0.000477  0.000395  0.000000
  0Cl  1dyz      -0.000000 -0.000000  0.000000  0.000395 -0.000477  0.000000
  0Cl  1dx2y2     0.000000 -0.000000  0.000000  0.000000  0.000000  0.000000
  0Cl  1dxy      -0.000000 -0.000000 -0.000000  0.000000 -0.000000 -0.000000
  0Cl  2dz2       0.000032 -0.000056 -0.001011 -0.000000 -0.000000  0.010320
  0Cl  2dxz      -0.000000 -0.000000  0.000000 -0.000215 -0.000178 -0.000000
  0Cl  2dyz      -0.000000 -0.000000 -0.000000 -0.000178  0.000215 -0.000000
  0Cl  2dx2y2    -0.000000 -0.000000 -0.000000 -0.000000 -0.000000  0.000000
  0Cl  2dxy      -0.000000  0.000000  0.000000 -0.000000  0.000000 -0.000000
  1H   1s         0.000001 -0.000259  0.000309 -0.000000  0.000000  0.088671
  1H   2s        -0.000080  0.001235  0.002438 -0.000000  0.000000  0.115157
  1H   3s         0.000032 -0.003336  0.000209  0.000000 -0.000000 -0.001416
  1H   1pz       -0.000009  0.000508 -0.000025  0.000000  0.000000  0.015322
  1H   1px        0.000000 -0.000000 -0.000000 -0.000020 -0.000017 -0.000000
  1H   1py        0.000000  0.000000  0.000000 -0.000017  0.000020 -0.000000
  1H   2pz       -0.000046  0.000651  0.001492  0.000000  0.000000  0.023727
  1H   2px       -0.000000 -0.000000  0.000000 -0.000124 -0.000103 -0.000000
  1H   2py       -0.000000 -0.000000 -0.000000 -0.000103  0.000124 -0.000000
                      6         7         8         9        10        11   
                  -0.63033  -0.47832  -0.47832   0.12503   0.31019   0.41667
                   1.00000   1.00000   1.00000   0.00000   0.00000   0.00000
                  --------  --------  --------  --------  --------  --------
  0Cl  1s         0.010419 -0.000000 -0.000000 -0.010709  0.002757 -0.000000
  0Cl  2s         0.030428 -0.000000 -0.000000 -0.031999  0.008253 -0.000000
  0Cl  3s        -0.062601  0.000000  0.000000  0.071765 -0.018698  0.000000
  0Cl  4s        -0.119024  0.000000  0.000000  0.104807 -0.026704  0.000000
  0Cl  5s         0.183249 -0.000000 -0.000000 -0.066853 -0.007161  0.000000
  0Cl  6s         0.292950 -0.000000  0.000000 -1.129880  0.180034 -0.000000
  0Cl  1pz       -0.280713  0.000000  0.000000 -0.126208  0.009929  0.000000
  0Cl  1px       -0.000000 -0.042195 -0.332172  0.000000  0.000000 -0.121078
  0Cl  1py       -0.000000 -0.332172  0.042195  0.000000  0.000000 -0.143115
  0Cl  2pz       -0.068884  0.000000  0.000000 -0.029999  0.005128  0.000000
  0Cl  2px       -0.000000 -0.010073 -0.079295  0.000000  0.000000 -0.019309
  0Cl  2py       -0.000000 -0.079295  0.010073  0.000000  0.000000 -0.022823
  0Cl  3pz        0.202821 -0.000000 -0.000000  0.089692 -0.020664 -0.000000
  0Cl  3px        0.000000  0.030390  0.239242 -0.000000  0.000000  0.028185
  0Cl  3py        0.000000  0.239242 -0.030390 -0.000000  0.000000  0.033315
  0Cl  4pz        0.424687  0.000000 -0.000000  0.278698  0.073591 -0.000000
  0Cl  4px        0.000000  0.074937  0.589933  0.000000 -0.000000  0.624564
  0Cl  4py        0.000000  0.589933 -0.074937  0.000000  0.000000  0.738238
  0Cl  5pz        0.165250  0.000000 -0.000000  0.868897 -0.874670  0.000000
  0Cl  5px        0.000000  0.041598  0.327469 -0.000000 -0.000000 -0.820745
  0Cl  5py        0.000000  0.327469 -0.041598 -0.000000 -0.000000 -0.970124
  0Cl  1dz2      -0.035108  0.000000  0.000000  0.026736 -0.094356 -0.000000
  0Cl  1dxz      -0.000000 -0.000615 -0.004842 -0.000000 -0.000000 -0.006119
  0Cl  1dyz       0.000000 -0.004842  0.000615  0.000000  0.000000 -0.007233
  0Cl  1dx2y2     0.000000  0.000000 -0.000000 -0.000000 -0.000000  0.000000
  0Cl  1dxy      -0.000000 -0.000000 -0.000000  0.000000 -0.000000  0.000000
  0Cl  2dz2      -0.041116  0.000000  0.000000  0.010492 -0.158981 -0.000000
  0Cl  2dxz       0.000000 -0.001502 -0.011825  0.000000 -0.000000 -0.001280
  0Cl  2dyz       0.000000 -0.011825  0.001502 -0.000000 -0.000000 -0.001513
  0Cl  2dx2y2     0.000000  0.000000 -0.000000 -0.000000  0.000000  0.000000
  0Cl  2dxy       0.000000  0.000000 -0.000000 -0.000000  0.000000 -0.000000
  1H   1s        -0.152244  0.000000  0.000000  0.077975 -0.091148 -0.000000
  1H   2s        -0.300779  0.000000 -0.000000  0.110012 -1.105731 -0.000000
  1H   3s        -0.049657  0.000000 -0.000000  1.774595  0.685884  0.000000
  1H   1pz       -0.016562  0.000000  0.000000 -0.014417 -0.019911 -0.000000
  1H   1px       -0.000000  0.000703  0.005538 -0.000000  0.000000 -0.004344
  1H   1py       -0.000000  0.005538 -0.000703  0.000000  0.000000 -0.005135
  1H   2pz       -0.033020  0.000000 -0.000000  0.075687  0.002385  0.000000
  1H   2px        0.000000  0.003914  0.030813  0.000000  0.000000  0.043720
  1H   2py       -0.000000  0.030813 -0.003914 -0.000000 -0.000000  0.051677
                     12        13        14        15        16        17   
                   0.41667   0.43260   0.55710   0.55710   0.66501   0.66501
                   0.00000   0.00000   0.00000   0.00000   0.00000   0.00000
                  --------  --------  --------  --------  --------  --------
  0Cl  1s         0.000000 -0.003942  0.000000  0.000000 -0.000000  0.000000
  0Cl  2s         0.000000 -0.011201  0.000000  0.000000 -0.000000  0.000000
  0Cl  3s        -0.000000  0.020485 -0.000000 -0.000000  0.000000 -0.000000
  0Cl  4s        -0.000000  0.060381 -0.000000 -0.000000 -0.000000 -0.000000
  0Cl  5s         0.000000 -0.093282  0.000000  0.000000 -0.000000  0.000000
  0Cl  6s         0.000000 -0.740548 -0.000000 -0.000000  0.000000 -0.000000
  0Cl  1pz       -0.000000  0.225165 -0.000000  0.000000 -0.000000 -0.000000
  0Cl  1px        0.143115  0.000000 -0.021204 -0.023120  0.000000  0.000000
  0Cl  1py       -0.121078  0.000000  0.023120 -0.021204  0.000000 -0.000000
  0Cl  2pz       -0.000000  0.044442  0.000000  0.000000 -0.000000  0.000000
  0Cl  2px        0.022823  0.000000 -0.003739 -0.004076  0.000000  0.000000
  0Cl  2py       -0.019309  0.000000  0.004076 -0.003739  0.000000  0.000000
  0Cl  3pz        0.000000 -0.117281 -0.000000 -0.000000  0.000000 -0.000000
  0Cl  3px       -0.033315 -0.000000  0.007110  0.007752  0.000000 -0.000000
  0Cl  3py        0.028185 -0.000000 -0.007752  0.007110  0.000000 -0.000000
  0Cl  4pz        0.000000 -0.708793  0.000000  0.000000 -0.000000  0.000000
  0Cl  4px       -0.738238 -0.000000  0.101111  0.110246 -0.000000  0.000000
  0Cl  4py        0.624564 -0.000000 -0.110246  0.101111 -0.000000  0.000000
  0Cl  5pz       -0.000000  1.433444 -0.000000 -0.000000  0.000000  0.000000
  0Cl  5px        0.970124  0.000000  0.067424  0.073516  0.000000 -0.000000
  0Cl  5py       -0.820745  0.000000 -0.073516  0.067424  0.000000 -0.000000
  0Cl  1dz2       0.000000 -0.039235 -0.000000  0.000000 -0.000000  0.000000
  0Cl  1dxz       0.007233  0.000000  0.104409  0.113842 -0.000000 -0.000000
  0Cl  1dyz      -0.006119  0.000000 -0.113842  0.104409 -0.000000 -0.000000
  0Cl  1dx2y2    -0.000000 -0.000000 -0.000000  0.000000  0.087957 -0.159797
  0Cl  1dxy      -0.000000 -0.000000 -0.000000 -0.000000 -0.159797 -0.087957
  0Cl  2dz2       0.000000 -0.357632 -0.000000 -0.000000  0.000000 -0.000000
  0Cl  2dxz       0.001513 -0.000000  0.401896  0.438206 -0.000000 -0.000000
  0Cl  2dyz      -0.001280 -0.000000 -0.438206  0.401896 -0.000000  0.000000
  0Cl  2dx2y2     0.000000 -0.000000 -0.000000  0.000000  0.435543 -0.791286
  0Cl  2dxy       0.000000 -0.000000 -0.000000 -0.000000 -0.791286 -0.435543
  1H   1s         0.000000 -0.102480 -0.000000  0.000000  0.000000 -0.000000
  1H   2s        -0.000000 -0.141867  0.000000  0.000000 -0.000000  0.000000
  1H   3s        -0.000000  1.242915  0.000000  0.000000  0.000000  0.000000
  1H   1pz        0.000000 -0.025072  0.000000  0.000000  0.000000 -0.000000
  1H   1px        0.005135  0.000000  0.020123  0.021941 -0.000000 -0.000000
  1H   1py       -0.004344  0.000000 -0.021941  0.020123 -0.000000 -0.000000
  1H   2pz       -0.000000  0.412783  0.000000  0.000000 -0.000000  0.000000
  1H   2px       -0.051677 -0.000000 -0.353813 -0.385780  0.000000  0.000000
  1H   2py        0.043720 -0.000000  0.385780 -0.353813  0.000000  0.000000
                     18        19        20        21        22        23   
                   0.85248   1.02277   1.05751   1.05751   1.48714   2.45998
                   0.00000   0.00000   0.00000   0.00000   0.00000   0.00000
                  --------  --------  --------  --------  --------  --------
  0Cl  1s        -0.018684  0.028583  0.000000  0.000000  0.005775  0.000000
  0Cl  2s        -0.051574  0.077823  0.000000  0.000000  0.016485  0.000000
  0Cl  3s         0.080455 -0.110998 -0.000000 -0.000000 -0.030649 -0.000000
  0Cl  4s         0.348591 -0.585475 -0.000000 -0.000000 -0.094075 -0.000000
  0Cl  5s        -1.219758  2.176353  0.000000  0.000000 -0.155336  0.000000
  0Cl  6s         1.948056 -2.732252 -0.000000 -0.000000  3.626794  0.000000
  0Cl  1pz       -0.068260  0.020474  0.000000  0.000000  0.223160 -0.000000
  0Cl  1px        0.000000  0.000000  0.023414  0.029423 -0.000000 -0.273631
  0Cl  1py       -0.000000  0.000000 -0.029423  0.023414  0.000000  0.736304
  0Cl  2pz       -0.023174  0.009367  0.000000  0.000000  0.045757 -0.000000
  0Cl  2px        0.000000  0.000000  0.004658  0.005854  0.000000 -0.090626
  0Cl  2py       -0.000000 -0.000000 -0.005854  0.004658  0.000000  0.243863
  0Cl  3pz        0.133844 -0.066747 -0.000000 -0.000000 -0.092554  0.000000
  0Cl  3px       -0.000000 -0.000000 -0.011358 -0.014273 -0.000000  0.665156
  0Cl  3py        0.000000 -0.000000  0.014273 -0.011358 -0.000000 -1.789845
  0Cl  4pz       -0.364040  0.169515 -0.000000 -0.000000 -2.311785 -0.000000
  0Cl  4px       -0.000000  0.000000 -0.121634 -0.152849  0.000000 -0.633165
  0Cl  4py       -0.000000  0.000000  0.152849 -0.121634  0.000000  1.703761
  0Cl  5pz       -0.261225  0.995103  0.000000  0.000000 -0.991388 -0.000000
  0Cl  5px       -0.000000  0.000000 -0.209862 -0.263719  0.000000  0.188636
  0Cl  5py       -0.000000  0.000000  0.263719 -0.209862 -0.000000 -0.507594
  0Cl  1dz2      -0.152639 -0.101461 -0.000000 -0.000000  0.065799  0.000000
  0Cl  1dxz       0.000000 -0.000000  0.087608  0.110091 -0.000000  0.020759
  0Cl  1dyz       0.000000 -0.000000 -0.110091  0.087608  0.000000 -0.055861
  0Cl  1dx2y2    -0.000000  0.000000 -0.000000  0.000000 -0.000000  0.000000
  0Cl  1dxy      -0.000000  0.000000 -0.000000  0.000000 -0.000000  0.000000
  0Cl  2dz2      -0.471652 -0.732811 -0.000000 -0.000000  1.559272  0.000000
  0Cl  2dxz       0.000000 -0.000000  0.551993  0.693652 -0.000000  0.005862
  0Cl  2dyz       0.000000 -0.000000 -0.693652  0.551993  0.000000 -0.015775
  0Cl  2dx2y2    -0.000000  0.000000 -0.000000 -0.000000 -0.000000  0.000000
  0Cl  2dxy      -0.000000  0.000000 -0.000000 -0.000000 -0.000000 -0.000000
  1H   1s         0.048583 -0.073150 -0.000000 -0.000000 -0.137207  0.000000
  1H   2s         0.498781  1.171118  0.000000  0.000000 -3.025219 -0.000000
  1H   3s        -1.362614  0.750379  0.000000  0.000000 -1.217858  0.000000
  1H   1pz        0.017031  0.045896  0.000000  0.000000  0.105041  0.000000
  1H   1px       -0.000000  0.000000 -0.047439 -0.059613  0.000000 -0.009691
  1H   1py       -0.000000  0.000000  0.059613 -0.047439 -0.000000  0.026079
  1H   2pz       -0.795390  0.005460 -0.000000 -0.000000 -2.789858 -0.000000
  1H   2px        0.000000 -0.000000  0.771981  0.970095 -0.000000  0.041300
  1H   2py        0.000000 -0.000000 -0.970095  0.771981  0.000000 -0.111133
                     24        25        26        27        28        29   
                   2.45998   2.59828   2.69276   2.73052   2.73052   2.79184
                   0.00000   0.00000   0.00000   0.00000   0.00000   0.00000
                  --------  --------  --------  --------  --------  --------
  0Cl  1s         0.000000 -0.001471 -0.004291  0.000000  0.000000 -0.000000
  0Cl  2s         0.000000 -0.002861 -0.012644  0.000000  0.000000 -0.000000
  0Cl  3s        -0.000000 -0.007054  0.026433 -0.000000 -0.000000  0.000000
  0Cl  4s        -0.000000  0.077173  0.077052 -0.000000 -0.000000 -0.000000
  0Cl  5s         0.000000 -0.169930 -0.210025  0.000000  0.000000  0.000000
  0Cl  6s         0.000000 -0.833777 -1.013088  0.000000  0.000000 -0.000000
  0Cl  1pz       -0.000000 -0.244505  0.514759 -0.000000 -0.000000  0.000000
  0Cl  1px        0.736304  0.000000  0.000000  0.000000 -0.000000 -0.033814
  0Cl  1py        0.273631  0.000000  0.000000 -0.000000  0.000000  0.030934
  0Cl  2pz       -0.000000 -0.084522  0.170468 -0.000000 -0.000000  0.000000
  0Cl  2px        0.243863  0.000000  0.000000  0.000000 -0.000000 -0.011291
  0Cl  2py        0.090626  0.000000  0.000000 -0.000000  0.000000  0.010329
  0Cl  3pz        0.000000  0.559693 -1.386536  0.000000  0.000000 -0.000000
  0Cl  3px       -1.789845 -0.000000 -0.000000 -0.000000  0.000000  0.094998
  0Cl  3py       -0.665156 -0.000000 -0.000000  0.000000 -0.000000 -0.086908
  0Cl  4pz       -0.000000  0.143122  2.254312 -0.000000 -0.000000  0.000000
  0Cl  4px        1.703761  0.000000  0.000000  0.000000 -0.000000 -0.124947
  0Cl  4py        0.633165  0.000000  0.000000 -0.000000 -0.000000  0.114307
  0Cl  5pz       -0.000000  0.524252 -0.208380  0.000000  0.000000  0.000000
  0Cl  5px       -0.507594 -0.000000 -0.000000 -0.000000  0.000000 -0.029606
  0Cl  5py       -0.188636 -0.000000 -0.000000  0.000000 -0.000000  0.027085
  0Cl  1dz2       0.000000  0.143608 -0.750363  0.000000  0.000000  0.000000
  0Cl  1dxz      -0.055861 -0.000000 -0.000000  0.000000  0.000000 -0.824424
  0Cl  1dyz      -0.020759  0.000000  0.000000 -0.000000 -0.000000  0.754218
  0Cl  1dx2y2    -0.000000  0.000000 -0.000000 -0.739596 -0.827704 -0.000000
  0Cl  1dxy      -0.000000  0.000000  0.000000  0.827704 -0.739596 -0.000000
  0Cl  2dz2       0.000000 -0.353315 -0.012577  0.000000  0.000000 -0.000000
  0Cl  2dxz      -0.015775  0.000000  0.000000 -0.000000 -0.000000  0.613143
  0Cl  2dyz      -0.005862 -0.000000 -0.000000  0.000000  0.000000 -0.560930
  0Cl  2dx2y2     0.000000 -0.000000  0.000000  0.446739  0.499959  0.000000
  0Cl  2dxy       0.000000 -0.000000 -0.000000 -0.499959  0.446739  0.000000
  1H   1s         0.000000 -1.536633 -0.514409  0.000000  0.000000  0.000000
  1H   2s        -0.000000  2.556315  1.752653 -0.000000 -0.000000 -0.000000
  1H   3s         0.000000 -0.336820 -0.052310 -0.000000  0.000000  0.000000
  1H   1pz        0.000000 -0.054943 -0.120840  0.000000 -0.000000  0.000000
  1H   1px        0.026079  0.000000  0.000000 -0.000000 -0.000000  0.034816
  1H   1py        0.009691  0.000000 -0.000000 -0.000000  0.000000 -0.031851
  1H   2pz       -0.000000  0.697755  1.125361 -0.000000 -0.000000 -0.000000
  1H   2px       -0.111133 -0.000000  0.000000  0.000000  0.000000  0.202537
  1H   2py       -0.041300 -0.000000 -0.000000  0.000000  0.000000 -0.185289
                     30        31        32        33        34        35   
                   2.79184   2.89838   3.99396   3.99396   4.18789  10.22816
                   0.00000   0.00000   0.00000   0.00000   0.00000   0.00000
                  --------  --------  --------  --------  --------  --------
  0Cl  1s        -0.000000  0.005402  0.000000  0.000000  0.008307  0.115699
  0Cl  2s        -0.000000  0.017178  0.000000  0.000000  0.029309  0.481542
  0Cl  3s         0.000000 -0.048540 -0.000000 -0.000000 -0.108263 -2.645180
  0Cl  4s         0.000000 -0.038823  0.000000  0.000000  0.026675  3.087320
  0Cl  5s         0.000000 -0.167468  0.000000 -0.000000  0.106181 -1.657026
  0Cl  6s        -0.000000  2.228927 -0.000000 -0.000000 -0.931264  0.726252
  0Cl  1pz        0.000000 -0.527006  0.000000  0.000000  0.103306  0.002695
  0Cl  1px        0.030934 -0.000000 -0.008467  0.021684 -0.000000 -0.000000
  0Cl  1py        0.033814 -0.000000 -0.021684 -0.008467 -0.000000 -0.000000
  0Cl  2pz        0.000000 -0.185275  0.000000  0.000000  0.002760 -0.009873
  0Cl  2px        0.010329 -0.000000 -0.003530  0.009040 -0.000000 -0.000000
  0Cl  2py        0.011291 -0.000000 -0.009040 -0.003530 -0.000000 -0.000000
  0Cl  3pz       -0.000000  1.620180 -0.000000 -0.000000 -0.232636 -0.087426
  0Cl  3px       -0.086908  0.000000  0.024648 -0.063121  0.000000  0.000000
  0Cl  3py       -0.094998  0.000000  0.063121  0.024648  0.000000  0.000000
  0Cl  4pz        0.000000 -3.073832  0.000000  0.000000  0.494731  0.280859
  0Cl  4px        0.114307 -0.000000 -0.008985  0.023010 -0.000000 -0.000000
  0Cl  4py        0.124947 -0.000000 -0.023010 -0.008985 -0.000000 -0.000000
  0Cl  5pz        0.000000 -0.268204  0.000000  0.000000  0.251380 -0.180636
  0Cl  5px        0.027085  0.000000  0.064927 -0.166274  0.000000  0.000000
  0Cl  5py        0.029606  0.000000  0.166274  0.064927 -0.000000  0.000000
  0Cl  1dz2       0.000000 -0.796455  0.000000  0.000000  0.305338 -0.014371
  0Cl  1dxz       0.754218  0.000000  0.021095 -0.054022 -0.000000 -0.000000
  0Cl  1dyz       0.824424  0.000000  0.054022  0.021095 -0.000000  0.000000
  0Cl  1dx2y2    -0.000000  0.000000  0.000000  0.000000 -0.000000 -0.000000
  0Cl  1dxy      -0.000000  0.000000  0.000000  0.000000 -0.000000  0.000000
  0Cl  2dz2      -0.000000  1.694058  0.000000 -0.000000 -0.194811 -0.076271
  0Cl  2dxz      -0.560930 -0.000000 -0.048228  0.123509  0.000000 -0.000000
  0Cl  2dyz      -0.613143 -0.000000 -0.123509 -0.048228  0.000000  0.000000
  0Cl  2dx2y2     0.000000 -0.000000 -0.000000 -0.000000  0.000000  0.000000
  0Cl  2dxy       0.000000 -0.000000 -0.000000 -0.000000  0.000000 -0.000000
  1H   1s        -0.000000  0.171676  0.000000 -0.000000 -0.023485 -0.030171
  1H   2s         0.000000 -2.886124  0.000000  0.000000  0.432738  0.263772
  1H   3s         0.000000 -0.195216  0.000000  0.000000  0.504281 -0.311007
  1H   1pz        0.000000 -0.356837 -0.000000 -0.000000 -1.237642  0.117864
  1H   1px       -0.031851 -0.000000  0.451614 -1.156548  0.000000 -0.000000
  1H   1py       -0.034816 -0.000000  1.156548  0.451614 -0.000000 -0.000000
  1H   2pz        0.000000 -1.318852  0.000000  0.000000  1.114462  0.100898
  1H   2px       -0.185289 -0.000000 -0.288520  0.738879 -0.000000  0.000000
  1H   2py       -0.202537 -0.000000 -0.738879 -0.288520  0.000000  0.000000
                     36        37        38        39   
                  26.23131  26.23131  27.24024 219.03695
                   0.00000   0.00000   0.00000   0.00000
                  --------  --------  --------  --------
  0Cl  1s        -0.000000 -0.000000  0.001768 -1.541994
  0Cl  2s        -0.000000 -0.000000  0.005504  1.914386
  0Cl  3s        -0.000000  0.000000 -0.041661 -1.435529
  0Cl  4s        -0.000000 -0.000000  0.069278  0.959419
  0Cl  5s         0.000000  0.000000  0.016659 -0.376748
  0Cl  6s         0.000000 -0.000000 -0.808975  0.162129
  0Cl  1pz       -0.000000  0.000000  3.482582  0.013386
  0Cl  1px        0.048280 -3.358256  0.000000  0.000000
  0Cl  1py        3.358256  0.048280  0.000000  0.000000
  0Cl  2pz       -0.000000  0.000000  3.495486  0.011316
  0Cl  2px        0.048917 -3.402572  0.000000  0.000000
  0Cl  2py        3.402572  0.048917  0.000000  0.000000
  0Cl  3pz        0.000000 -0.000000 -2.594791 -0.025385
  0Cl  3px       -0.033332  2.318473 -0.000000 -0.000000
  0Cl  3py       -2.318473 -0.033332 -0.000000 -0.000000
  0Cl  4pz       -0.000000 -0.000000  1.878063  0.061023
  0Cl  4px        0.015602 -1.085261  0.000000  0.000000
  0Cl  4py        1.085261  0.015602  0.000000 -0.000000
  0Cl  5pz       -0.000000  0.000000 -0.117071 -0.040843
  0Cl  5px       -0.003945  0.274372 -0.000000  0.000000
  0Cl  5py       -0.274372 -0.003945 -0.000000  0.000000
  0Cl  1dz2       0.000000  0.000000  0.052355 -0.001674
  0Cl  1dxz       0.000095 -0.006629  0.000000  0.000000
  0Cl  1dyz       0.006629  0.000095  0.000000  0.000000
  0Cl  1dx2y2     0.000000  0.000000 -0.000000  0.000000
  0Cl  1dxy       0.000000  0.000000 -0.000000  0.000000
  0Cl  2dz2       0.000000 -0.000000 -0.413166 -0.014824
  0Cl  2dxz      -0.000360  0.025013 -0.000000 -0.000000
  0Cl  2dyz      -0.025013 -0.000360  0.000000  0.000000
  0Cl  2dx2y2    -0.000000  0.000000  0.000000 -0.000000
  0Cl  2dxy      -0.000000 -0.000000 -0.000000 -0.000000
  1H   1s         0.000000  0.000000 -0.025910 -0.006644
  1H   2s        -0.000000 -0.000000  0.958562  0.054056
  1H   3s        -0.000000  0.000000  0.088957 -0.068102
  1H   1pz        0.000000 -0.000000 -0.081767  0.016519
  1H   1px       -0.000103  0.007178  0.000000  0.000000
  1H   1py       -0.007178 -0.000103 -0.000000  0.000000
  1H   2pz       -0.000000 -0.000000  0.642211  0.026141
  1H   2px       -0.000576  0.040062 -0.000000 -0.000000
  1H   2py       -0.040062 -0.000576  0.000000  0.000000

                      0         1         2         3         4         5   
                 -104.84981 -10.57656  -8.04518  -8.04187  -8.04187  -1.12104
                   1.00000   1.00000   1.00000   1.00000   1.00000   1.00000
                  --------  --------  --------  --------  --------  --------
  0Cl  1s         0.411732  0.121939  0.000557 -0.000000  0.000000  0.034724
  0Cl  2s         0.654663  0.331483  0.001558  0.000000  0.000000  0.100454
  0Cl  3s         0.012082 -0.511781 -0.003011 -0.000000 -0.000000 -0.198269
  0Cl  4s        -0.000904 -0.605787 -0.002203  0.000000 -0.000000 -0.397525
  0Cl  5s         0.000198 -0.042277  0.000962 -0.000000  0.000000  0.601536
  0Cl  6s        -0.000057  0.009643 -0.002092 -0.000000 -0.000000  0.497567
  0Cl  1pz       -0.000162  0.004685 -1.229943 -0.000000 -0.000000  0.043539
  0Cl  1px       -0.000000 -0.000000  0.000000 -0.948055 -0.785732 -0.000000
  0Cl  1py       -0.000000 -0.000000 -0.000000 -0.785732  0.948055  0.000000
  0Cl  2pz       -0.000108  0.001293 -0.326993 -0.000000 -0.000000  0.011561
  0Cl  2px       -0.000000 -0.000000  0.000000 -0.252001 -0.208854  0.000000
  0Cl  2py       -0.000000 -0.000000 -0.000000 -0.208854  0.252001  0.000000
  0Cl  3pz        0.000117  0.000350 -0.052131 -0.000000 -0.000000 -0.030627
  0Cl  3px        0.000000 -0.000000  0.000000 -0.037922 -0.031429  0.000000
  0Cl  3py       -0.000000  0.000000 -0.000000 -0.031429  0.037922 -0.000000
  0Cl  4pz       -0.000122  0.001605  0.004675 -0.000000  0.000000 -0.037593
  0Cl  4px       -0.000000 -0.000000 -0.000000  0.001708  0.001415 -0.000000
  0Cl  4py        0.000000  0.000000  0.000000  0.001415 -0.001708  0.000000
  0Cl  5pz        0.000026 -0.002016 -0.000400  0.000000 -0.000000 -0.012900
  0Cl  5px        0.000000  0.000000  0.000000 -0.000494 -0.000409  0.000000
  0Cl  5py       -0.000000 -0.000000 -0.000000 -0.000409  0.000494 -0.000000
  0Cl  1dz2       0.000004 -0.000741  0.000737  0.000000  0.000000  0.013487
  0Cl  1dxz       0.000000 -0.000000 -0.000000  0.000477  0.000395  0.000000
  0Cl  1dyz      -0.000000 -0.000000  0.000000  0.000395 -0.000477  0.000000
  0Cl  1dx2y2     0.000000 -0.000000  0.000000  0.000000  0.000000  0.000000
  0Cl  1dxy      -0.000000 -0.000000 -0.000000  0.000000 -0.000000 -0.000000
  0Cl  2dz2       0.000032 -0.000056 -0.001011 -0.000000 -0.000000  0.010320
  0Cl  2dxz      -0.000000 -0.000000  0.000000 -0.000215 -0.000178 -0.000000
  0Cl  2dyz      -0.000000 -0.000000 -0.000000 -0.000178  0.000215 -0.000000
  0Cl  2dx2y2    -0.000000 -0.000000 -0.000000 -0.000000 -0.000000  0.000000
  0Cl  2dxy      -0.000000  0.000000  0.000000 -0.000000  0.000000 -0.000000
  1H   1s         0.000001 -0.000259  0.000309 -0.000000  0.000000  0.088671
  1H   2s        -0.000080  0.001235  0.002438 -0.000000  0.000000  0.115157
  1H   3s         0.000032 -0.003336  0.000209  0.000000 -0.000000 -0.001416
  1H   1pz       -0.000009  0.000508 -0.000025  0.000000  0.000000  0.015322
  1H   1px        0.000000 -0.000000 -0.000000 -0.000020 -0.000017 -0.000000
  1H   1py        0.000000  0.000000  0.000000 -0.000017  0.000020 -0.000000
  1H   2pz       -0.000046  0.000651  0.001492  0.000000  0.000000  0.023727
  1H   2px       -0.000000 -0.000000  0.000000 -0.000124 -0.000103 -0.000000
  1H   2py       -0.000000 -0.000000 -0.000000 -0.000103  0.000124 -0.000000
                      6         7         8         9        10        11   
                  -0.63033  -0.47832  -0.47832   0.12503   0.31019   0.41667
                   1.00000   1.00000   1.00000   0.00000   0.00000   0.00000
                  --------  --------  --------  --------  --------  --------
  0Cl  1s         0.010419 -0.000000 -0.000000 -0.010709  0.002757 -0.000000
  0Cl  2s         0.030428 -0.000000 -0.000000 -0.031999  0.008253 -0.000000
  0Cl  3s        -0.062601  0.000000  0.000000  0.071765 -0.018698  0.000000
  0Cl  4s        -0.119024  0.000000  0.000000  0.104807 -0.026704  0.000000
  0Cl  5s         0.183249 -0.000000 -0.000000 -0.066853 -0.007161  0.000000
  0Cl  6s         0.292950 -0.000000  0.000000 -1.129880  0.180034 -0.000000
  0Cl  1pz       -0.280713  0.000000  0.000000 -0.126208  0.009929  0.000000
  0Cl  1px       -0.000000 -0.042195 -0.332172  0.000000  0.000000 -0.121078
  0Cl  1py       -0.000000 -0.332172  0.042195  0.000000  0.000000 -0.143115
  0Cl  2pz       -0.068884  0.000000  0.000000 -0.029999  0.005128  0.000000
  0Cl  2px       -0.000000 -0.010073 -0.079295  0.000000  0.000000 -0.019309
  0Cl  2py       -0.000000 -0.079295  0.010073  0.000000  0.000000 -0.022823
  0Cl  3pz        0.202821 -0.000000 -0.000000  0.089692 -0.020664 -0.000000
  0Cl  3px        0.000000  0.030390  0.239242 -0.000000  0.000000  0.028185
  0Cl  3py        0.000000  0.239242 -0.030390 -0.000000  0.000000  0.033315
  0Cl  4pz        0.424687  0.000000 -0.000000  0.278698  0.073591 -0.000000
  0Cl  4px        0.000000  0.074937  0.589933  0.000000 -0.000000  0.624564
  0Cl  4py        0.000000  0.589933 -0.074937  0.000000  0.000000  0.738238
  0Cl  5pz        0.165250  0.000000 -0.000000  0.868897 -0.874670  0.000000
  0Cl  5px        0.000000  0.041598  0.327469 -0.000000 -0.000000 -0.820745
  0Cl  5py        0.000000  0.327469 -0.041598 -0.000000 -0.000000 -0.970124
  0Cl  1dz2      -0.035108  0.000000  0.000000  0.026736 -0.094356 -0.000000
  0Cl  1dxz      -0.000000 -0.000615 -0.004842 -0.000000 -0.000000 -0.006119
  0Cl  1dyz       0.000000 -0.004842  0.000615  0.000000  0.000000 -0.007233
  0Cl  1dx2y2     0.000000  0.000000 -0.000000 -0.000000 -0.000000  0.000000
  0Cl  1dxy      -0.000000 -0.000000 -0.000000  0.000000 -0.000000  0.000000
  0Cl  2dz2      -0.041116  0.000000  0.000000  0.010492 -0.158981 -0.000000
  0Cl  2dxz       0.000000 -0.001502 -0.011825  0.000000 -0.000000 -0.001280
  0Cl  2dyz       0.000000 -0.011825  0.001502 -0.000000 -0.000000 -0.001513
  0Cl  2dx2y2     0.000000  0.000000 -0.000000 -0.000000  0.000000  0.000000
  0Cl  2dxy       0.000000  0.000000 -0.000000 -0.000000  0.000000 -0.000000
  1H   1s        -0.152244  0.000000  0.000000  0.077975 -0.091148 -0.000000
  1H   2s        -0.300779  0.000000 -0.000000  0.110012 -1.105731 -0.000000
  1H   3s        -0.049657  0.000000 -0.000000  1.774595  0.685884  0.000000
  1H   1pz       -0.016562  0.000000  0.000000 -0.014417 -0.019911 -0.000000
  1H   1px       -0.000000  0.000703  0.005538 -0.000000  0.000000 -0.004344
  1H   1py       -0.000000  0.005538 -0.000703  0.000000  0.000000 -0.005135
  1H   2pz       -0.033020  0.000000 -0.000000  0.075687  0.002385  0.000000
  1H   2px        0.000000  0.003914  0.030813  0.000000  0.000000  0.043720
  1H   2py       -0.000000  0.030813 -0.003914 -0.000000 -0.000000  0.051677
                     12        13        14        15        16        17   
                   0.41667   0.43260   0.55710   0.55710   0.66501   0.66501
                   0.00000   0.00000   0.00000   0.00000   0.00000   0.00000
                  --------  --------  --------  --------  --------  --------
  0Cl  1s         0.000000 -0.003942  0.000000  0.000000 -0.000000  0.000000
  0Cl  2s         0.000000 -0.011201  0.000000  0.000000 -0.000000  0.000000
  0Cl  3s        -0.000000  0.020485 -0.000000 -0.000000  0.000000 -0.000000
  0Cl  4s        -0.000000  0.060381 -0.000000 -0.000000 -0.000000 -0.000000
  0Cl  5s         0.000000 -0.093282  0.000000  0.000000 -0.000000  0.000000
  0Cl  6s         0.000000 -0.740548 -0.000000 -0.000000  0.000000 -0.000000
  0Cl  1pz       -0.000000  0.225165 -0.000000  0.000000 -0.000000 -0.000000
  0Cl  1px        0.143115  0.000000 -0.021204 -0.023120  0.000000  0.000000
  0Cl  1py       -0.121078  0.000000  0.023120 -0.021204  0.000000 -0.000000
  0Cl  2pz       -0.000000  0.044442  0.000000  0.000000 -0.000000  0.000000
  0Cl  2px        0.022823  0.000000 -0.003739 -0.004076  0.000000  0.000000
  0Cl  2py       -0.019309  0.000000  0.004076 -0.003739  0.000000  0.000000
  0Cl  3pz        0.000000 -0.117281 -0.000000 -0.000000  0.000000 -0.000000
  0Cl  3px       -0.033315 -0.000000  0.007110  0.007752  0.000000 -0.000000
  0Cl  3py        0.028185 -0.000000 -0.007752  0.007110  0.000000 -0.000000
  0Cl  4pz        0.000000 -0.708793  0.000000  0.000000 -0.000000  0.000000
  0Cl  4px       -0.738238 -0.000000  0.101111  0.110246 -0.000000  0.000000
  0Cl  4py        0.624564 -0.000000 -0.110246  0.101111 -0.000000  0.000000
  0Cl  5pz       -0.000000  1.433444 -0.000000 -0.000000  0.000000  0.000000
  0Cl  5px        0.970124  0.000000  0.067424  0.073516  0.000000 -0.000000
  0Cl  5py       -0.820745  0.000000 -0.073516  0.067424  0.000000 -0.000000
  0Cl  1dz2       0.000000 -0.039235 -0.000000  0.000000 -0.000000  0.000000
  0Cl  1dxz       0.007233  0.000000  0.104409  0.113842 -0.000000 -0.000000
  0Cl  1dyz      -0.006119  0.000000 -0.113842  0.104409 -0.000000 -0.000000
  0Cl  1dx2y2    -0.000000 -0.000000 -0.000000  0.000000  0.087957 -0.159797
  0Cl  1dxy      -0.000000 -0.000000 -0.000000 -0.000000 -0.159797 -0.087957
  0Cl  2dz2       0.000000 -0.357632 -0.000000 -0.000000  0.000000 -0.000000
  0Cl  2dxz       0.001513 -0.000000  0.401896  0.438206 -0.000000 -0.000000
  0Cl  2dyz      -0.001280 -0.000000 -0.438206  0.401896 -0.000000  0.000000
  0Cl  2dx2y2     0.000000 -0.000000 -0.000000  0.000000  0.435543 -0.791286
  0Cl  2dxy       0.000000 -0.000000 -0.000000 -0.000000 -0.791286 -0.435543
  1H   1s         0.000000 -0.102480 -0.000000  0.000000  0.000000 -0.000000
  1H   2s        -0.000000 -0.141867  0.000000  0.000000 -0.000000  0.000000
  1H   3s        -0.000000  1.242915  0.000000  0.000000  0.000000  0.000000
  1H   1pz        0.000000 -0.025072  0.000000  0.000000  0.000000 -0.000000
  1H   1px        0.005135  0.000000  0.020123  0.021941 -0.000000 -0.000000
  1H   1py       -0.004344  0.000000 -0.021941  0.020123 -0.000000 -0.000000
  1H   2pz       -0.000000  0.412783  0.000000  0.000000 -0.000000  0.000000
  1H   2px       -0.051677 -0.000000 -0.353813 -0.385780  0.000000  0.000000
  1H   2py        0.043720 -0.000000  0.385780 -0.353813  0.000000  0.000000
                     18        19        20        21        22        23   
                   0.85248   1.02277   1.05751   1.05751   1.48714   2.45998
                   0.00000   0.00000   0.00000   0.00000   0.00000   0.00000
                  --------  --------  --------  --------  --------  --------
  0Cl  1s        -0.018684  0.028583  0.000000  0.000000  0.005775  0.000000
  0Cl  2s        -0.051574  0.077823  0.000000  0.000000  0.016485  0.000000
  0Cl  3s         0.080455 -0.110998 -0.000000 -0.000000 -0.030649 -0.000000
  0Cl  4s         0.348591 -0.585475 -0.000000 -0.000000 -0.094075 -0.000000
  0Cl  5s        -1.219758  2.176353  0.000000  0.000000 -0.155336  0.000000
  0Cl  6s         1.948056 -2.732252 -0.000000 -0.000000  3.626794  0.000000
  0Cl  1pz       -0.068260  0.020474  0.000000  0.000000  0.223160 -0.000000
  0Cl  1px        0.000000  0.000000  0.023414  0.029423 -0.000000 -0.273631
  0Cl  1py       -0.000000  0.000000 -0.029423  0.023414  0.000000  0.736304
  0Cl  2pz       -0.023174  0.009367  0.000000  0.000000  0.045757 -0.000000
  0Cl  2px        0.000000  0.000000  0.004658  0.005854  0.000000 -0.090626
  0Cl  2py       -0.000000 -0.000000 -0.005854  0.004658  0.000000  0.243863
  0Cl  3pz        0.133844 -0.066747 -0.000000 -0.000000 -0.092554  0.000000
  0Cl  3px       -0.000000 -0.000000 -0.011358 -0.014273 -0.000000  0.665156
  0Cl  3py        0.000000 -0.000000  0.014273 -0.011358 -0.000000 -1.789845
  0Cl  4pz       -0.364040  0.169515 -0.000000 -0.000000 -2.311785 -0.000000
  0Cl  4px       -0.000000  0.000000 -0.121634 -0.152849  0.000000 -0.633165
  0Cl  4py       -0.000000  0.000000  0.152849 -0.121634  0.000000  1.703761
  0Cl  5pz       -0.261225  0.995103  0.000000  0.000000 -0.991388 -0.000000
  0Cl  5px       -0.000000  0.000000 -0.209862 -0.263719  0.000000  0.188636
  0Cl  5py       -0.000000  0.000000  0.263719 -0.209862 -0.000000 -0.507594
  0Cl  1dz2      -0.152639 -0.101461 -0.000000 -0.000000  0.065799  0.000000
  0Cl  1dxz       0.000000 -0.000000  0.087608  0.110091 -0.000000  0.020759
  0Cl  1dyz       0.000000 -0.000000 -0.110091  0.087608  0.000000 -0.055861
  0Cl  1dx2y2    -0.000000  0.000000 -0.000000  0.000000 -0.000000  0.000000
  0Cl  1dxy      -0.000000  0.000000 -0.000000  0.000000 -0.000000  0.000000
  0Cl  2dz2      -0.471652 -0.732811 -0.000000 -0.000000  1.559272  0.000000
  0Cl  2dxz       0.000000 -0.000000  0.551993  0.693652 -0.000000  0.005862
  0Cl  2dyz       0.000000 -0.000000 -0.693652  0.551993  0.000000 -0.015775
  0Cl  2dx2y2    -0.000000  0.000000 -0.000000 -0.000000 -0.000000  0.000000
  0Cl  2dxy      -0.000000  0.000000 -0.000000 -0.000000 -0.000000 -0.000000
  1H   1s         0.048583 -0.073150 -0.000000 -0.000000 -0.137207  0.000000
  1H   2s         0.498781  1.171118  0.000000  0.000000 -3.025219 -0.000000
  1H   3s        -1.362614  0.750379  0.000000  0.000000 -1.217858  0.000000
  1H   1pz        0.017031  0.045896  0.000000  0.000000  0.105041  0.000000
  1H   1px       -0.000000  0.000000 -0.047439 -0.059613  0.000000 -0.009691
  1H   1py       -0.000000  0.000000  0.059613 -0.047439 -0.000000  0.026079
  1H   2pz       -0.795390  0.005460 -0.000000 -0.000000 -2.789858 -0.000000
  1H   2px        0.000000 -0.000000  0.771981  0.970095 -0.000000  0.041300
  1H   2py        0.000000 -0.000000 -0.970095  0.771981  0.000000 -0.111133
                     24        25        26        27        28        29   
                   2.45998   2.59828   2.69276   2.73052   2.73052   2.79184
                   0.00000   0.00000   0.00000   0.00000   0.00000   0.00000
                  --------  --------  --------  --------  --------  --------
  0Cl  1s         0.000000 -0.001471 -0.004291  0.000000  0.000000 -0.000000
  0Cl  2s         0.000000 -0.002861 -0.012644  0.000000  0.000000 -0.000000
  0Cl  3s        -0.000000 -0.007054  0.026433 -0.000000 -0.000000  0.000000
  0Cl  4s        -0.000000  0.077173  0.077052 -0.000000 -0.000000 -0.000000
  0Cl  5s         0.000000 -0.169930 -0.210025  0.000000  0.000000  0.000000
  0Cl  6s         0.000000 -0.833777 -1.013088  0.000000  0.000000 -0.000000
  0Cl  1pz       -0.000000 -0.244505  0.514759 -0.000000 -0.000000  0.000000
  0Cl  1px        0.736304  0.000000  0.000000  0.000000 -0.000000 -0.033814
  0Cl  1py        0.273631  0.000000  0.000000 -0.000000  0.000000  0.030934
  0Cl  2pz       -0.000000 -0.084522  0.170468 -0.000000 -0.000000  0.000000
  0Cl  2px        0.243863  0.000000  0.000000  0.000000 -0.000000 -0.011291
  0Cl  2py        0.090626  0.000000  0.000000 -0.000000  0.000000  0.010329
  0Cl  3pz        0.000000  0.559693 -1.386536  0.000000  0.000000 -0.000000
  0Cl  3px       -1.789845 -0.000000 -0.000000 -0.000000  0.000000  0.094998
  0Cl  3py       -0.665156 -0.000000 -0.000000  0.000000 -0.000000 -0.086908
  0Cl  4pz       -0.000000  0.143122  2.254312 -0.000000 -0.000000  0.000000
  0Cl  4px        1.703761  0.000000  0.000000  0.000000 -0.000000 -0.124947
  0Cl  4py        0.633165  0.000000  0.000000 -0.000000 -0.000000  0.114307
  0Cl  5pz       -0.000000  0.524252 -0.208380  0.000000  0.000000  0.000000
  0Cl  5px       -0.507594 -0.000000 -0.000000 -0.000000  0.000000 -0.029606
  0Cl  5py       -0.188636 -0.000000 -0.000000  0.000000 -0.000000  0.027085
  0Cl  1dz2       0.000000  0.143608 -0.750363  0.000000  0.000000  0.000000
  0Cl  1dxz      -0.055861 -0.000000 -0.000000  0.000000  0.000000 -0.824424
  0Cl  1dyz      -0.020759  0.000000  0.000000 -0.000000 -0.000000  0.754218
  0Cl  1dx2y2    -0.000000  0.000000 -0.000000 -0.739596 -0.827704 -0.000000
  0Cl  1dxy      -0.000000  0.000000  0.000000  0.827704 -0.739596 -0.000000
  0Cl  2dz2       0.000000 -0.353315 -0.012577  0.000000  0.000000 -0.000000
  0Cl  2dxz      -0.015775  0.000000  0.000000 -0.000000 -0.000000  0.613143
  0Cl  2dyz      -0.005862 -0.000000 -0.000000  0.000000  0.000000 -0.560930
  0Cl  2dx2y2     0.000000 -0.000000  0.000000  0.446739  0.499959  0.000000
  0Cl  2dxy       0.000000 -0.000000 -0.000000 -0.499959  0.446739  0.000000
  1H   1s         0.000000 -1.536633 -0.514409  0.000000  0.000000  0.000000
  1H   2s        -0.000000  2.556315  1.752653 -0.000000 -0.000000 -0.000000
  1H   3s         0.000000 -0.336820 -0.052310 -0.000000  0.000000  0.000000
  1H   1pz        0.000000 -0.054943 -0.120840  0.000000 -0.000000  0.000000
  1H   1px        0.026079  0.000000  0.000000 -0.000000 -0.000000  0.034816
  1H   1py        0.009691  0.000000 -0.000000 -0.000000  0.000000 -0.031851
  1H   2pz       -0.000000  0.697755  1.125361 -0.000000 -0.000000 -0.000000
  1H   2px       -0.111133 -0.000000  0.000000  0.000000  0.000000  0.202537
  1H   2py       -0.041300 -0.000000 -0.000000  0.000000  0.000000 -0.185289
                     30        31        32        33        34        35   
                   2.79184   2.89838   3.99396   3.99396   4.18789  10.22816
                   0.00000   0.00000   0.00000   0.00000   0.00000   0.00000
                  --------  --------  --------  --------  --------  --------
  0Cl  1s        -0.000000  0.005402  0.000000  0.000000  0.008307  0.115699
  0Cl  2s        -0.000000  0.017178  0.000000  0.000000  0.029309  0.481542
  0Cl  3s         0.000000 -0.048540 -0.000000 -0.000000 -0.108263 -2.645180
  0Cl  4s         0.000000 -0.038823  0.000000  0.000000  0.026675  3.087320
  0Cl  5s         0.000000 -0.167468  0.000000 -0.000000  0.106181 -1.657026
  0Cl  6s        -0.000000  2.228927 -0.000000 -0.000000 -0.931264  0.726252
  0Cl  1pz        0.000000 -0.527006  0.000000  0.000000  0.103306  0.002695
  0Cl  1px        0.030934 -0.000000 -0.008467  0.021684 -0.000000 -0.000000
  0Cl  1py        0.033814 -0.000000 -0.021684 -0.008467 -0.000000 -0.000000
  0Cl  2pz        0.000000 -0.185275  0.000000  0.000000  0.002760 -0.009873
  0Cl  2px        0.010329 -0.000000 -0.003530  0.009040 -0.000000 -0.000000
  0Cl  2py        0.011291 -0.000000 -0.009040 -0.003530 -0.000000 -0.000000
  0Cl  3pz       -0.000000  1.620180 -0.000000 -0.000000 -0.232636 -0.087426
  0Cl  3px       -0.086908  0.000000  0.024648 -0.063121  0.000000  0.000000
  0Cl  3py       -0.094998  0.000000  0.063121  0.024648  0.000000  0.000000
  0Cl  4pz        0.000000 -3.073832  0.000000  0.000000  0.494731  0.280859
  0Cl  4px        0.114307 -0.000000 -0.008985  0.023010 -0.000000 -0.000000
  0Cl  4py        0.124947 -0.000000 -0.023010 -0.008985 -0.000000 -0.000000
  0Cl  5pz        0.000000 -0.268204  0.000000  0.000000  0.251380 -0.180636
  0Cl  5px        0.027085  0.000000  0.064927 -0.166274  0.000000  0.000000
  0Cl  5py        0.029606  0.000000  0.166274  0.064927 -0.000000  0.000000
  0Cl  1dz2       0.000000 -0.796455  0.000000  0.000000  0.305338 -0.014371
  0Cl  1dxz       0.754218  0.000000  0.021095 -0.054022 -0.000000 -0.000000
  0Cl  1dyz       0.824424  0.000000  0.054022  0.021095 -0.000000  0.000000
  0Cl  1dx2y2    -0.000000  0.000000  0.000000  0.000000 -0.000000 -0.000000
  0Cl  1dxy      -0.000000  0.000000  0.000000  0.000000 -0.000000  0.000000
  0Cl  2dz2      -0.000000  1.694058  0.000000 -0.000000 -0.194811 -0.076271
  0Cl  2dxz      -0.560930 -0.000000 -0.048228  0.123509  0.000000 -0.000000
  0Cl  2dyz      -0.613143 -0.000000 -0.123509 -0.048228  0.000000  0.000000
  0Cl  2dx2y2     0.000000 -0.000000 -0.000000 -0.000000  0.000000  0.000000
  0Cl  2dxy       0.000000 -0.000000 -0.000000 -0.000000  0.000000 -0.000000
  1H   1s        -0.000000  0.171676  0.000000 -0.000000 -0.023485 -0.030171
  1H   2s         0.000000 -2.886124  0.000000  0.000000  0.432738  0.263772
  1H   3s         0.000000 -0.195216  0.000000  0.000000  0.504281 -0.311007
  1H   1pz        0.000000 -0.356837 -0.000000 -0.000000 -1.237642  0.117864
  1H   1px       -0.031851 -0.000000  0.451614 -1.156548  0.000000 -0.000000
  1H   1py       -0.034816 -0.000000  1.156548  0.451614 -0.000000 -0.000000
  1H   2pz        0.000000 -1.318852  0.000000  0.000000  1.114462  0.100898
  1H   2px       -0.185289 -0.000000 -0.288520  0.738879 -0.000000  0.000000
  1H   2py       -0.202537 -0.000000 -0.738879 -0.288520  0.000000  0.000000
                     36        37        38        39   
                  26.23131  26.23131  27.24024 219.03695
                   0.00000   0.00000   0.00000   0.00000
                  --------  --------  --------  --------
  0Cl  1s        -0.000000 -0.000000  0.001768 -1.541994
  0Cl  2s        -0.000000 -0.000000  0.005504  1.914386
  0Cl  3s        -0.000000  0.000000 -0.041661 -1.435529
  0Cl  4s        -0.000000 -0.000000  0.069278  0.959419
  0Cl  5s         0.000000  0.000000  0.016659 -0.376748
  0Cl  6s         0.000000 -0.000000 -0.808975  0.162129
  0Cl  1pz       -0.000000  0.000000  3.482582  0.013386
  0Cl  1px        0.048280 -3.358256  0.000000  0.000000
  0Cl  1py        3.358256  0.048280  0.000000  0.000000
  0Cl  2pz       -0.000000  0.000000  3.495486  0.011316
  0Cl  2px        0.048917 -3.402572  0.000000  0.000000
  0Cl  2py        3.402572  0.048917  0.000000  0.000000
  0Cl  3pz        0.000000 -0.000000 -2.594791 -0.025385
  0Cl  3px       -0.033332  2.318473 -0.000000 -0.000000
  0Cl  3py       -2.318473 -0.033332 -0.000000 -0.000000
  0Cl  4pz       -0.000000 -0.000000  1.878063  0.061023
  0Cl  4px        0.015602 -1.085261  0.000000  0.000000
  0Cl  4py        1.085261  0.015602  0.000000 -0.000000
  0Cl  5pz       -0.000000  0.000000 -0.117071 -0.040843
  0Cl  5px       -0.003945  0.274372 -0.000000  0.000000
  0Cl  5py       -0.274372 -0.003945 -0.000000  0.000000
  0Cl  1dz2       0.000000  0.000000  0.052355 -0.001674
  0Cl  1dxz       0.000095 -0.006629  0.000000  0.000000
  0Cl  1dyz       0.006629  0.000095  0.000000  0.000000
  0Cl  1dx2y2     0.000000  0.000000 -0.000000  0.000000
  0Cl  1dxy       0.000000  0.000000 -0.000000  0.000000
  0Cl  2dz2       0.000000 -0.000000 -0.413166 -0.014824
  0Cl  2dxz      -0.000360  0.025013 -0.000000 -0.000000
  0Cl  2dyz      -0.025013 -0.000360  0.000000  0.000000
  0Cl  2dx2y2    -0.000000  0.000000  0.000000 -0.000000
  0Cl  2dxy      -0.000000 -0.000000 -0.000000 -0.000000
  1H   1s         0.000000  0.000000 -0.025910 -0.006644
  1H   2s        -0.000000 -0.000000  0.958562  0.054056
  1H   3s        -0.000000  0.000000  0.088957 -0.068102
  1H   1pz        0.000000 -0.000000 -0.081767  0.016519
  1H   1px       -0.000103  0.007178  0.000000  0.000000
  1H   1py       -0.007178 -0.000103 -0.000000  0.000000
  1H   2pz       -0.000000 -0.000000  0.642211  0.026141
  1H   2px       -0.000576  0.040062 -0.000000 -0.000000
  1H   2py       -0.040062 -0.000576  0.000000  0.000000



                    ********************************
                    * MULLIKEN POPULATION ANALYSIS *
                    ********************************

--------------------------------------------
MULLIKEN ATOMIC CHARGES AND SPIN POPULATIONS
--------------------------------------------
   0 Cl:   -0.137935    0.000000
   1 H :    0.137935    0.000000
Sum of atomic charges         :   -0.0000000
Sum of atomic spin populations:    0.0000000

-----------------------------------------------------
MULLIKEN REDUCED ORBITAL CHARGES AND SPIN POPULATIONS
-----------------------------------------------------
CHARGE
  0 Cls       :     5.914411  s :     5.914411
      pz      :     3.245479  p :    11.191030
      px      :     3.972775
      py      :     3.972775
      dz2     :     0.030735  d :     0.032494
      dxz     :     0.000880
      dyz     :     0.000880
      dx2y2   :     0.000000
      dxy     :     0.000000
  1 H s       :     0.772591  s :     0.772591
      pz      :     0.036784  p :     0.089473
      px      :     0.026345
      py      :     0.026345

SPIN
  0 Cls       :     0.000000  s :     0.000000
      pz      :     0.000000  p :     0.000000
      px      :     0.000000
      py      :     0.000000
      dz2     :     0.000000  d :     0.000000
      dxz     :     0.000000
      dyz     :     0.000000
      dx2y2   :     0.000000
      dxy     :     0.000000
  1 H s       :     0.000000  s :     0.000000
      pz      :     0.000000  p :     0.000000
      px      :     0.000000
      py      :     0.000000


                     *******************************
                     * LOEWDIN POPULATION ANALYSIS *
                     *******************************

-------------------------------------------
LOEWDIN ATOMIC CHARGES AND SPIN POPULATIONS
-------------------------------------------
   0 Cl:    0.207217    0.000000
   1 H :   -0.207217    0.000000

----------------------------------------------------
LOEWDIN REDUCED ORBITAL CHARGES AND SPIN POPULATIONS
----------------------------------------------------
CHARGE
  0 Cls       :     5.599837  s :     5.599837
      pz      :     3.303854  p :    11.149359
      px      :     3.922752
      py      :     3.922752
      dz2     :     0.043297  d :     0.043588
      dxz     :     0.000145
      dyz     :     0.000145
      dx2y2   :     0.000000
      dxy     :     0.000000
  1 H s       :     0.898882  s :     0.898882
      pz      :     0.154129  p :     0.308335
      px      :     0.077103
      py      :     0.077103

SPIN
  0 Cls       :     0.000000  s :     0.000000
      pz      :     0.000000  p :     0.000000
      px      :     0.000000
      py      :     0.000000
      dz2     :     0.000000  d :     0.000000
      dxz     :     0.000000
      dyz     :     0.000000
      dx2y2   :     0.000000
      dxy     :     0.000000
  1 H s       :     0.000000  s :     0.000000
      pz      :     0.000000  p :     0.000000
      px      :     0.000000
      py      :     0.000000


                      *****************************
                      * MAYER POPULATION ANALYSIS *
                      *****************************

  NA   - Mulliken gross atomic population
  ZA   - Total nuclear charge
  QA   - Mulliken gross atomic charge
  VA   - Mayer's total valence
  BVA  - Mayer's bonded valence
  FA   - Mayer's free valence

  ATOM       NA         ZA         QA         VA         BVA        FA
  0 Cl    17.1379    17.0000    -0.1379     1.0542     1.0542    -0.0000
  1 H      0.8621     1.0000     0.1379     1.0542     1.0542     0.0000

  Mayer bond orders larger than 0.100000
B(  0-Cl,  1-H ) :   1.0542 

Now starting NBO....

 *********************************** NBO 7.0 ***********************************
             N A T U R A L   A T O M I C   O R B I T A L   A N D
          N A T U R A L   B O N D   O R B I T A L   A N A L Y S I S
 *********************** Giovanni  F. Caramori (I101916) ***********************
  (c) Copyright 1996-2020 Board of Regents of the University of Wisconsin System
      on behalf of the Theoretical Chemistry Institute.  All rights reserved.

          Cite this program [NBO 7.0.8 (11-Feb-2020)] as:

          NBO 7.0.  E. D. Glendening, J. K. Badenhoop, A. E. Reed,
          J. E. Carpenter, J. A. Bohmann, C. M. Morales, P. Karafiloglou,
          C. R. Landis, and F. Weinhold, Theoretical Chemistry Institute,
          University of Wisconsin, Madison, WI (2018)

       /NPA    / : Natural Population Analysis
       /NBO    / : Natural Bond Orbital Analysis
       /AONBO  / : Checkpoint the AO to NBO transformation
       /ARCHIVE/ : Write the archive file to lfn47

 Job title: ORCA Job: HCl


 NATURAL POPULATIONS:  Natural atomic orbital occupancies

  NAO Atom No lang   Type(AO)    Occupancy     Spin
 -----------------------------------------------------
   1   Cl  1  s      Cor( 1s)     2.00000     0.00000
   2   Cl  1  s      Cor( 2s)     1.99999     0.00000
   3   Cl  1  s      Val( 3s)     1.89037     0.00000
   4   Cl  1  s      Ryd( 4s)     0.00004     0.00000
   5   Cl  1  s      Ryd( 5s)     0.00000     0.00000
   6   Cl  1  s      Ryd( 6s)     0.00000     0.00000
   7   Cl  1  px     Cor( 2p)     2.00000     0.00000
   8   Cl  1  px     Val( 3p)     1.99669     0.00000
   9   Cl  1  px     Ryd( 4p)     0.00033     0.00000
  10   Cl  1  px     Ryd( 5p)     0.00000     0.00000
  11   Cl  1  px     Ryd( 6p)     0.00000     0.00000
  12   Cl  1  py     Cor( 2p)     2.00000     0.00000
  13   Cl  1  py     Val( 3p)     1.99669     0.00000
  14   Cl  1  py     Ryd( 4p)     0.00033     0.00000
  15   Cl  1  py     Ryd( 5p)     0.00000     0.00000
  16   Cl  1  py     Ryd( 6p)     0.00000     0.00000
  17   Cl  1  pz     Cor( 2p)     2.00000     0.00000
  18   Cl  1  pz     Val( 3p)     1.35338     0.00000
  19   Cl  1  pz     Ryd( 4p)     0.00193     0.00000
  20   Cl  1  pz     Ryd( 5p)     0.00001     0.00000
  21   Cl  1  pz     Ryd( 6p)     0.00000     0.00000
  22   Cl  1  dxy    Ryd( 3d)     0.00000     0.00000
  23   Cl  1  dxy    Ryd( 4d)     0.00000     0.00000
  24   Cl  1  dxz    Ryd( 3d)     0.00096     0.00000
  25   Cl  1  dxz    Ryd( 4d)     0.00001     0.00000
  26   Cl  1  dyz    Ryd( 3d)     0.00096     0.00000
  27   Cl  1  dyz    Ryd( 4d)     0.00001     0.00000
  28   Cl  1  dx2y2  Ryd( 3d)     0.00000     0.00000
  29   Cl  1  dx2y2  Ryd( 4d)     0.00000     0.00000
  30   Cl  1  dz2    Ryd( 3d)     0.01344     0.00000
  31   Cl  1  dz2    Ryd( 4d)     0.00001     0.00000

  32    H  2  s      Val( 1s)     0.73662     0.00000
  33    H  2  s      Ryd( 3s)     0.00026     0.00000
  34    H  2  s      Ryd( 2s)     0.00000     0.00000
  35    H  2  px     Ryd( 2p)     0.00191     0.00000
  36    H  2  px     Ryd( 3p)     0.00010     0.00000
  37    H  2  py     Ryd( 2p)     0.00191     0.00000
  38    H  2  py     Ryd( 3p)     0.00010     0.00000
  39    H  2  pz     Ryd( 2p)     0.00376     0.00000
  40    H  2  pz     Ryd( 3p)     0.00020     0.00000


 Summary of Natural Population Analysis:

                                     Natural Population                 Natural
             Natural    ---------------------------------------------    Spin
  Atom No    Charge        Core      Valence    Rydberg      Total      Density
 -------------------------------------------------------------------------------
   Cl  1   -0.25514      9.99999     7.23712    0.01803    17.25514     0.00000
    H  2    0.25514      0.00000     0.73662    0.00824     0.74486     0.00000
 ===============================================================================
 * Total *  0.00000      9.99999     7.97374    0.02627    18.00000     0.00000

                                 Natural Population
 ---------------------------------------------------------
   Core                       9.99999 ( 99.9999% of   10)
[...]
                                         0.0000  0.0000 -0.0001 -0.0153  0.6311
                                        -0.0054  0.0000  0.0000  0.0000  0.0000
                                         0.0000  0.0000  0.0000  0.0000  0.0000
                                         0.0000  0.0000 -0.0072  0.0755  0.6864
                                        -0.0402  0.0000  0.0000  0.0000  0.0000
                                         0.0000  0.0000  0.0000  0.0000 -0.0046
                                         0.3506
  28. (0.00017) RY (18)Cl  1            s(  7.31%)p 0.90(  6.59%)d11.78( 86.10%)
                                         0.0000  0.0000  0.0009 -0.1174  0.2432
                                        -0.0115  0.0000  0.0000  0.0000  0.0000
                                         0.0000  0.0000  0.0000  0.0000  0.0000
                                         0.0000  0.0000 -0.0097  0.0978  0.2370
                                         0.0102  0.0000  0.0000  0.0000  0.0000
                                         0.0000  0.0000  0.0000  0.0000  0.0561
                                        -0.9262
  29. (0.00002) RY (19)Cl  1            s( 99.97%)p 0.00(  0.03%)d 0.00(  0.01%)
  30. (0.00001) RY (20)Cl  1            s(  0.00%)p 1.00(100.00%)d 0.00(  0.00%)
  31. (0.00001) RY (21)Cl  1            s(  0.02%)p99.99( 99.92%)d 2.22(  0.06%)
  32. (0.00001) RY (22)Cl  1            s(  0.00%)p 1.00(100.00%)d 0.00(  0.00%)
  33. (0.00257) RY ( 1) H  2            s(  0.00%)p 1.00(100.00%)
                                         0.0000  0.0000  0.0000  0.9959 -0.0907
                                         0.0000  0.0000  0.0000  0.0000
  34. (0.00257) RY ( 2) H  2            s(  0.00%)p 1.00(100.00%)
                                         0.0000  0.0000  0.0000  0.0000  0.0000
                                         0.9959 -0.0907  0.0000  0.0000
  35. (0.00089) RY ( 3) H  2            s( 77.73%)p 0.29( 22.27%)
                                         0.0273  0.8806 -0.0327  0.0000  0.0000
                                         0.0000  0.0000 -0.4231 -0.2089
  36. (0.00041) RY ( 4) H  2            s( 21.50%)p 3.65( 78.50%)
                                        -0.0485  0.4292  0.1687  0.0000  0.0000
                                         0.0000  0.0000  0.8858 -0.0176
  37. (0.00012) RY ( 5) H  2            s( 96.49%)p 0.04(  3.51%)
                                         0.0077 -0.0282  0.9819  0.0000  0.0000
                                         0.0000  0.0000 -0.1714  0.0756
  38. (0.00005) RY ( 6) H  2            s(  0.00%)p 1.00(100.00%)
  39. (0.00005) RY ( 7) H  2            s(  0.00%)p 1.00(100.00%)
  40. (0.00004) RY ( 8) H  2            s(  4.61%)p20.68( 95.39%)


 NHO DIRECTIONALITY AND BOND BENDING (deviation from line of nuclear centers at
                                      the position of maximum hybrid amplitude)

         [Thresholds for printing:  angular deviation  >  1.0 degree]
                                    p- or d-character  > 25.0%
                                    orbital occupancy  >  0.10e

                        Line of Centers        Hybrid 1             Hybrid 2
                        ---------------  -------------------  ------------------
           NBO            Theta   Phi    Theta   Phi    Dev   Theta   Phi    Dev
 ===============================================================================
   7. LP ( 2)Cl  1          --     --     93.8    0.0   --      --     --    --
   8. LP ( 3)Cl  1          --     --     93.8  270.0   --      --     --    --


 NATURAL BOND ORBITALS (Summary):

           NBO                 Occupancy
 ========================================
 Molecular unit  1  (HCl)
 ------ Lewis ---------------------------
    1. CR ( 1)Cl  1             0.99998
    2. CR ( 2)Cl  1             0.99969
    3. CR ( 3)Cl  1             0.99953
    4. CR ( 4)Cl  1             0.99953
    5. CR ( 5)Cl  1             0.99948
    6. LP ( 1)Cl  1             0.98944
    7. LP ( 2)Cl  1             0.97948
    8. LP ( 3)Cl  1             0.97948
    9. BD ( 1)Cl  1- H  2       0.98402
 ------ non-Lewis -----------------------
   10. BD*( 1)Cl  1- H  2       0.01062
   11. RY ( 1)Cl  1             0.00806
   12. RY ( 2)Cl  1             0.00806
   13. RY ( 3)Cl  1             0.00726
   14. RY ( 4)Cl  1             0.00726
   15. RY ( 5)Cl  1             0.00545
   16. RY ( 6)Cl  1             0.00464
   17. RY ( 7)Cl  1             0.00464
   18. RY ( 8)Cl  1             0.00317
   19. RY ( 9)Cl  1             0.00104
   20. RY (10)Cl  1             0.00035
   21. RY (11)Cl  1             0.00035
   22. RY (12)Cl  1             0.00030
   23. RY (13)Cl  1             0.00029
   24. RY (14)Cl  1             0.00029
   25. RY (15)Cl  1             0.00023
   26. RY (16)Cl  1             0.00023
   27. RY (17)Cl  1             0.00023
   28. RY (18)Cl  1             0.00017
   29. RY (19)Cl  1             0.00002
   30. RY (20)Cl  1             0.00001
   31. RY (21)Cl  1             0.00001
   32. RY (22)Cl  1             0.00001
   33. RY ( 1) H  2             0.00257
   34. RY ( 2) H  2             0.00257
   35. RY ( 3) H  2             0.00089
   36. RY ( 4) H  2             0.00041
   37. RY ( 5) H  2             0.00012
   38. RY ( 6) H  2             0.00005
   39. RY ( 7) H  2             0.00005
   40. RY ( 8) H  2             0.00004
          -------------------------------
                 Total Lewis    8.93062  ( 99.2291%)
           Valence non-Lewis    0.01062  (  0.1180%)
           Rydberg non-Lewis    0.05876  (  0.6529%)
          -------------------------------
               Total unit  1    9.00000  (100.0000%)
              Charge unit  1    0.00000

 $CHOOSE
  ALPHA
   LONE 1 3 END
   BOND S 1 2 END
  END
  BETA
   LONE 1 3 END
   BOND S 1 2 END
  END
 $END

 NBO analysis completed in 0.08 CPU seconds (1 wall second)
 Maximum scratch memory used by NBO was 414989 words (3.17 MB)
Stopping NBO...Storing NBOs: HCl.pmp2re.nbo

                                *** returned from   NBO  program ***


----------------------------------
MP2 DERIVATIVE INTEGRAL GENERATION
----------------------------------


Input Wavefunction Amplitudes       ... HCl.mp2tbb.tmp
Input Correlated Electron Density   ... HCl.pmp2re
Input Energy Weighted Density       ... HCl.wmp2.tmp
Input SCF Electron Density          ... HCl.scfp

One-Electron Terms    ...
                        ... One-Electron Terms done
Prescreening matrices              ... done

Batch handling in the gradient evaluation:
Memory available                      ... 3000.0 MB
Memory per occupied orbital in Q2     ...    0.2 MB
Memory per occupied orbital in Q3     ...    0.0 MB
Total memory requirement per |i>      ...    0.2 MB
Max. Number of orbitals possible      ...  13195
Number of orbitals treated per batch  ...     18
Number of batches to be done          ...      1
Batch   0: i=    0 ...    17

---------------------------------------
MP2 TOTAL ENERGY:     -460.327157528 Eh
---------------------------------------

-----------------------------------
NORM OF THE MP2 GRADIENT:  0.000000
-----------------------------------

-------------------------   --------------------
FINAL SINGLE POINT ENERGY      -460.327157527601
-------------------------   --------------------

                                *** OPTIMIZATION RUN DONE ***

                            ***************************************
                            *     ORCA property calculations      *
                            ***************************************

                                    ---------------------
                                    Active property flags
                                    ---------------------
   (+) Dipole Moment


------------------------------------------------------------------------------
                       ORCA ELECTRIC PROPERTIES CALCULATION
------------------------------------------------------------------------------

Dipole Moment Calculation                       ... on
Quadrupole Moment Calculation                   ... off
Polarizability Calculation                      ... off
GBWName                                         ... HCl.gbw
Electron density file                           ... HCl.scfp
The origin for moment calculation is the CENTER OF MASS  = ( 0.000000,  0.000000 -0.002722)

-------------
DIPOLE MOMENT
-------------
                                X             Y             Z
Electronic contribution:     -0.00000       0.00000       0.71824
Nuclear contribution   :      0.00000       0.00000      -1.20520
                        -----------------------------------------
Total Dipole Moment    :     -0.00000       0.00000      -0.48696
                        -----------------------------------------
Magnitude (a.u.)       :      0.48696
Magnitude (Debye)      :      1.23775



--------------------
Rotational spectrum 
--------------------
 
Rotational constants in cm-1:     0.000000    10.671937    10.671937 
Rotational constants in MHz :     0.000000 319936.621864 319936.621864 

 Dipole components along the rotational axes: 
x,y,z [a.u.] :    -0.486960     0.000000    -0.000000 
x,y,z [Debye]:    -1.237753     0.000000    -0.000000 

 

                         *** MP2 UNRELAXED DENSITY ***

------------------------------------------------------------------------------
                       ORCA ELECTRIC PROPERTIES CALCULATION
------------------------------------------------------------------------------

Dipole Moment Calculation                       ... on
Quadrupole Moment Calculation                   ... off
Polarizability Calculation                      ... off
GBWName                                         ... HCl.gbw
Electron density file                           ... HCl.pmp2ur
The origin for moment calculation is the CENTER OF MASS  = ( 0.000000,  0.000000 -0.002722)

-------------
DIPOLE MOMENT
-------------
                                X             Y             Z
Electronic contribution:     -0.00000       0.00000       0.72062
Nuclear contribution   :      0.00000       0.00000      -1.20520
                        -----------------------------------------
Total Dipole Moment    :     -0.00000       0.00000      -0.48458
                        -----------------------------------------
Magnitude (a.u.)       :      0.48458
Magnitude (Debye)      :      1.23171



--------------------
Rotational spectrum 
--------------------
 
Rotational constants in cm-1:     0.000000    10.671937    10.671937 
Rotational constants in MHz :     0.000000 319936.621864 319936.621864 

 Dipole components along the rotational axes: 
x,y,z [a.u.] :    -0.484583     0.000000    -0.000000 
x,y,z [Debye]:    -1.231711     0.000000    -0.000000 

 

                           *** MP2 RELAXED DENSITY ***

------------------------------------------------------------------------------
                       ORCA ELECTRIC PROPERTIES CALCULATION
------------------------------------------------------------------------------

Dipole Moment Calculation                       ... on
Quadrupole Moment Calculation                   ... off
Polarizability Calculation                      ... off
GBWName                                         ... HCl.gbw
Electron density file                           ... HCl.pmp2re
The origin for moment calculation is the CENTER OF MASS  = ( 0.000000,  0.000000 -0.002722)

-------------
DIPOLE MOMENT
-------------
                                X             Y             Z
Electronic contribution:     -0.00000       0.00000       0.73719
Nuclear contribution   :      0.00000       0.00000      -1.20520
                        -----------------------------------------
Total Dipole Moment    :     -0.00000       0.00000      -0.46801
                        -----------------------------------------
Magnitude (a.u.)       :      0.46801
Magnitude (Debye)      :      1.18958



--------------------
Rotational spectrum 
--------------------
 
Rotational constants in cm-1:     0.000000    10.671937    10.671937 
Rotational constants in MHz :     0.000000 319936.621864 319936.621864 

 Dipole components along the rotational axes: 
x,y,z [a.u.] :    -0.468007     0.000000    -0.000000 
x,y,z [Debye]:    -1.189579     0.000000    -0.000000 

 
------------------------------------------------------------------------------
                         ORCA MP2 H E S S I A N CALCULATION
------------------------------------------------------------------------------

Calculating analytic MP2 second derivatives ... (>HCl.last_mp2) done
Warning: T+R mode no 5 is zero 

-----------------------
VIBRATIONAL FREQUENCIES
-----------------------

Scaling factor for frequencies =  1.000000000  (already applied!)

   0:         0.00 cm**-1
   1:         0.00 cm**-1
   2:         0.00 cm**-1
   3:         0.00 cm**-1
   4:         0.00 cm**-1
   5:      2999.60 cm**-1


------------
NORMAL MODES
------------

These modes are the Cartesian displacements weighted by the diagonal matrix
M(i,i)=1/sqrt(m[i]) where m[i] is the mass of the displaced atom
Thus, these vectors are normalized but *not* orthogonal

                  0          1          2          3          4          5    
      0       0.000000   0.000000   0.000000   0.000000   0.000000   0.000000
      1       0.000000   0.000000   0.000000   0.000000   0.000000   0.000000
      2       0.000000   0.000000   0.000000   0.000000   0.000000   0.028421
      3       0.000000   0.000000   0.000000   0.000000   0.000000   0.000000
      4       0.000000   0.000000   0.000000   0.000000   0.000000   0.000000
      5       0.000000   0.000000   0.000000   0.000000   0.000000  -0.999596


-----------
IR SPECTRUM
-----------

 Mode    freq (cm**-1)   T**2         TX         TY         TZ
-------------------------------------------------------------------
   5:      2999.60   53.560474  (  0.000000  -0.000000  -7.318502)

The first frequency considered to be a vibration is 5
The total number of vibrations considered is 1


--------------------------
THERMOCHEMISTRY AT 298.15K
--------------------------

Temperature         ... 298.15 K
Pressure            ... 1.00 atm
Total Mass          ... 36.46 AMU
The molecule is recognized as being linear

Throughout the following assumptions are being made:
  (1) The electronic state is orbitally nondegenerate
  (2) There are no thermally accessible electronically excited states
  (3) Hindered rotations indicated by low frequency modes are not
      treated as such but are treated as vibrations and this may
      cause some error
  (4) All equations used are the standard statistical mechanics
      equations for an ideal gas
  (5) All vibrations are strictly harmonic

freq.    2999.60  E(vib)   ...       0.00 

------------
INNER ENERGY
------------

The inner energy is: U= E(el) + E(ZPE) + E(vib) + E(rot) + E(trans)
    E(el)   - is the total energy from the electronic structure calculation
              = E(kin-el) + E(nuc-el) + E(el-el) + E(nuc-nuc)
    E(ZPE)  - the the zero temperature vibrational energy from the frequency calculation
    E(vib)  - the the finite temperature correction to E(ZPE) due to population
              of excited vibrational states
    E(rot)  - is the rotational thermal energy
    E(trans)- is the translational thermal energy

Summary of contributions to the inner energy U:
Electronic energy                ...   -460.32715753 Eh
Zero point energy                ...      0.00683360 Eh       4.29 kcal/mol
Thermal vibrational correction   ...      0.00000001 Eh       0.00 kcal/mol
Thermal rotational correction    ...      0.00094418 Eh       0.59 kcal/mol
Thermal translational correction ...      0.00141627 Eh       0.89 kcal/mol
-----------------------------------------------------------------------
Total thermal energy                   -460.31796347 Eh


Summary of corrections to the electronic energy:
(perhaps to be used in another calculation)
Total thermal correction                  0.00236046 Eh       1.48 kcal/mol
Non-thermal (ZPE) correction              0.00683360 Eh       4.29 kcal/mol
-----------------------------------------------------------------------
Total correction                          0.00919406 Eh       5.77 kcal/mol


--------
ENTHALPY
--------

The enthalpy is H = U + kB*T
                kB is Boltzmann's constant
Total free energy                 ...   -460.31796347 Eh 
Thermal Enthalpy correction       ...      0.00094421 Eh       0.59 kcal/mol
-----------------------------------------------------------------------
Total Enthalpy                    ...   -460.31701926 Eh


Note: Rotational entropy computed according to Herzberg 
Infrared and Raman Spectra, Chapter V,1, Van Nostrand Reinhold, 1945 
Point Group:  Cinfv, Symmetry Number:   1  
Rotational constants in cm-1:     0.000000    10.671937    10.671937 

Vibrational entropy computed according to the QRRHO of S. Grimme
Chem.Eur.J. 2012 18 9955


-------
ENTROPY
-------

The entropy contributions are T*S = T*(S(el)+S(vib)+S(rot)+S(trans))
     S(el)   - electronic entropy
     S(vib)  - vibrational entropy
     S(rot)  - rotational entropy
     S(trans)- translational entropy
The entropies will be listed as mutliplied by the temperature to get
units of energy

Electronic entropy                ...      0.00000000 Eh      0.00 kcal/mol
Vibrational entropy               ...      0.00000001 Eh      0.00 kcal/mol
Rotational entropy                ...      0.00374480 Eh      2.35 kcal/mol
Translational entropy             ...      0.01744233 Eh     10.95 kcal/mol
-----------------------------------------------------------------------
Final entropy term                ...      0.02118714 Eh     13.30 kcal/mol

In case the symmetry of your molecule has not been determined correctly
or in case you have a reason to use a different symmetry number we print 
out the resulting rotational entropy values for sn=1,12 :
 --------------------------------------------------------
|  sn= 1 | S(rot)=             -inf Eh      -inf kcal/mol|
|  sn= 2 | S(rot)=             -inf Eh      -inf kcal/mol|
|  sn= 3 | S(rot)=             -inf Eh      -inf kcal/mol|
|  sn= 4 | S(rot)=             -inf Eh      -inf kcal/mol|
|  sn= 5 | S(rot)=             -inf Eh      -inf kcal/mol|
|  sn= 6 | S(rot)=             -inf Eh      -inf kcal/mol|
|  sn= 7 | S(rot)=             -inf Eh      -inf kcal/mol|
|  sn= 8 | S(rot)=             -inf Eh      -inf kcal/mol|
|  sn= 9 | S(rot)=             -inf Eh      -inf kcal/mol|
|  sn=10 | S(rot)=             -inf Eh      -inf kcal/mol|
|  sn=11 | S(rot)=             -inf Eh      -inf kcal/mol|
|  sn=12 | S(rot)=             -inf Eh      -inf kcal/mol|
 --------------------------------------------------------


-------------------
GIBBS FREE ENERGY
-------------------

The Gibbs free energy is G = H - T*S

Total enthalpy                    ...   -460.31701926 Eh 
Total entropy correction          ...     -0.02118714 Eh    -13.30 kcal/mol
-----------------------------------------------------------------------
Final Gibbs free energy         ...   -460.33820640 Eh

For completeness - the Gibbs free energy minus the electronic energy
G-E(el)                           ...     -0.01104887 Eh     -6.93 kcal/mol


Timings for individual modules:

Sum of individual times         ...       91.365 sec (=   1.523 min)
GTO integral calculation        ...        8.554 sec (=   0.143 min)   9.4 %
SCF iterations                  ...       26.966 sec (=   0.449 min)  29.5 %
MP2 module                      ...       28.767 sec (=   0.479 min)  31.5 %
Geometry relaxation             ...        0.076 sec (=   0.001 min)   0.1 %
Analytical frequency calculation...       27.002 sec (=   0.450 min)  29.6 %
                             ****ORCA TERMINATED NORMALLY****
TOTAL RUN TIME: 0 days 0 hours 1 minutes 32 seconds 693 msec
