
                                 *****************
                                 * O   R   C   A *
                                 *****************

           --- An Ab Initio, DFT and Semiempirical electronic structure package ---

                  #######################################################
                  #                        -***-                        #
                  #          Department of theory and spectroscopy      #
                  #               Directorship: Frank Neese             #
                  #        Max Planck Institute fuer Kohlenforschung    #
                  #                Kaiser Wilhelm Platz 1               #
                  #                 D-45470 Muelheim/Ruhr               #
                  #                      Germany                        #
                  #                                                     #
                  #                  All rights reserved                #
                  #                        -***-                        #
                  #######################################################


                         Program Version 4.2.1 -  RELEASE  -


 With contributions from (in alphabetic order):
   Daniel Aravena         : Magnetic Suceptibility
   Michael Atanasov       : Ab Initio Ligand Field Theory (pilot matlab implementation)
   Alexander A. Auer      : GIAO ZORA, VPT2
   Ute Becker             : Parallelization
   Giovanni Bistoni       : ED, misc. LED, open-shell LED, HFLD
   Martin Brehm           : Molecular dynamics
   Dmytro Bykov           : SCF Hessian
   Vijay G. Chilkuri      : MRCI spin determinant printing, contributions to CSF-ICE
   Dipayan Datta          : RHF DLPNO-CCSD density
   Achintya Kumar Dutta   : EOM-CC, STEOM-CC
   Dmitry Ganyushin       : Spin-Orbit,Spin-Spin,Magnetic field MRCI
   Miquel Garcia          : C-PCM Hessian, Gaussian charge scheme
   Yang Guo               : DLPNO-NEVPT2, CIM, IAO-localization
   Andreas Hansen         : Spin unrestricted coupled pair/coupled cluster methods
   Benjamin Helmich-Paris : CASSCF linear response (MC-RPA)
   Lee Huntington         : MR-EOM, pCC
   Robert Izsak           : Overlap fitted RIJCOSX, COSX-SCS-MP3, EOM
   Christian Kollmar      : KDIIS, OOCD, Brueckner-CCSD(T), CCSD density
   Simone Kossmann        : Meta GGA functionals, TD-DFT gradient, OOMP2, MP2 Hessian
   Martin Krupicka        : AUTO-CI
   Lucas Lang             : DCDCAS
   Dagmar Lenk            : GEPOL surface, SMD
   Dimitrios Liakos       : Extrapolation schemes; Compound Job, initial MDCI parallelization
   Dimitrios Manganas     : Further ROCIS development; embedding schemes
   Dimitrios Pantazis     : SARC Basis sets
   Taras Petrenko         : DFT Hessian,TD-DFT gradient, ASA, ECA, R-Raman, ABS, FL, XAS/XES, NRVS
   Peter Pinski           : DLPNO-MP2, DLPNO-MP2 Gradient
   Christoph Reimann      : Effective Core Potentials
   Marius Retegan         : Local ZFS, SOC
   Christoph Riplinger    : Optimizer, TS searches, QM/MM, DLPNO-CCSD(T), (RO)-DLPNO pert. Triples
   Tobias Risthaus        : Range-separated hybrids, TD-DFT gradient, RPA, STAB
   Michael Roemelt        : Original ROCIS implementation
   Masaaki Saitow         : Open-shell DLPNO-CCSD energy and density
   Barbara Sandhoefer     : DKH picture change effects
   Avijit Sen             : IP-ROCIS
   Kantharuban Sivalingam : CASSCF convergence, NEVPT2, FIC-MRCI
   Bernardo de Souza      : ESD, SOC TD-DFT
   Georgi Stoychev        : AutoAux, RI-MP2 NMR
   Willem Van den Heuvel  : Paramagnetic NMR
   Boris Wezisla          : Elementary symmetry handling
   Frank Wennmohs         : Technical directorship


 We gratefully acknowledge several colleagues who have allowed us to
 interface, adapt or use parts of their codes:
   Stefan Grimme, W. Hujo, H. Kruse,             : VdW corrections, initial TS optimization,
                  C. Bannwarth                     DFT functionals, gCP, sTDA/sTD-DF
   Ed Valeev, F. Pavosevic, A. Kumar             : LibInt (2-el integral package), F12 methods
   Garnet Chan, S. Sharma, J. Yang, R. Olivares  : DMRG
   Ulf Ekstrom                                   : XCFun DFT Library
   Mihaly Kallay                                 : mrcc  (arbitrary order and MRCC methods)
   Andreas Klamt, Michael Diedenhofen            : otool_cosmo (COSMO solvation model)
   Jiri Pittner, Ondrej Demel                    : Mk-CCSD
   Frank Weinhold                                : gennbo (NPA and NBO analysis)
   Christopher J. Cramer and Donald G. Truhlar   : smd solvation model
   Lars Goerigk                                  : TD-DFT with DH, B97 family of functionals
   V. Asgeirsson, H. Jonsson                     : NEB implementation
   FAccTs GmbH                                   : IRC, NEB, NEB-TS, Multilevel, MM, QM/MM, CI optimization
   S Lehtola, MJT Oliveira, MAL Marques          : LibXC Library


 Your calculation uses the libint2 library for the computation of 2-el integrals
 For citations please refer to: http://libint.valeyev.net

 Your ORCA version has been built with support for libXC version: 4.2.3
 For citations please refer to: https://tddft.org/programs/libxc/

 This ORCA versions uses:
   CBLAS   interface :  Fast vector & matrix operations
   LAPACKE interface :  Fast linear algebra routines
   SCALAPACK package :  Parallel linear algebra routines


----- Orbital basis set information -----
Your calculation utilizes the basis: 6-311G(2d,2p)
   H, Li - Ne  : R. Krishnan, J. S. Binkley, R. Seeger and J. A. Pople, J. Chem. Phys. 72, 650 (1980).
   Na - Ar     : A. D. McLean and G. S. Chandler J. Chem. Phys. 72, 5639, (1980).
   K  - Ca     : J.-P. Blaudeau, M. P. McGrath, L. A. Curtiss and L. Radom, J. Chem. Phys. 107, 5016 (1997).
   Ga - Kr     : L. A. Curtiss, M. P. McGrath, J.-P. Blandeau, N. E. Davis, R. C. Binning and L. Radom, J. Chem. Phys. 103, 6104 (1995).
   Pol./Diff.
   H, Li - Cl  : T. Clark, J. Chandrasekhar and P. v. R. Schleyer, J. Comp. Chem. 4, 294 (1983).
   H - Ne      : M. J. Frisch, J. A. Pople and J. S. Binkley, J. Chem. Phys. 80, 3265 (1984).

================================================================================
                                        WARNINGS
                       Please study these warnings very carefully!
================================================================================


WARNING: Geometry Optimization
  ===> : Switching off AutoStart
         For restart on a previous wavefunction, please use MOREAD

WARNING: Post HF methods need fully converged wavefunctions
  ===> : Setting SCFConvForced true
         You can overwrite this default with %scf ConvForced false 


INFO   : the flag for use of LIBINT has been found!

================================================================================
                                       INPUT FILE
================================================================================
NAME = methane.inp
|  1> ! UHF MP2 6-311G(2d,2p) Opt Freq NoFrozenCore TightOpt TightSCF Grid4 FinalGrid5 PrintBasis PrintMOs NBO
|  2> %maxcore 3000
|  3> 
|  4> *xyz 0 1
|  5>   C   -0.00000000004417     -0.00000000000574     -0.00000000002828
|  6>   H   -0.62610822418801     -0.62610822416691      0.62610822423432
|  7>   H   0.62610822427917     -0.62610822426631     -0.62610822425050
|  8>   H   -0.62610822426220      0.62610822423885     -0.62610822422529
|  9>   H   0.62610822421521      0.62610822420010      0.62610822426975
| 10> *
| 11> 
| 12> %pal
| 13>  nprocs 12
| 14> end
| 15> 
| 16>                          ****END OF INPUT****
================================================================================

                       *****************************
                       * Geometry Optimization Run *
                       *****************************

Geometry optimization settings:
Update method            Update   .... BFGS
Choice of coordinates    CoordSys .... Z-matrix Internals
Initial Hessian          InHess   .... Almoef's Model

Convergence Tolerances:
Energy Change            TolE     ....  1.0000e-06 Eh
Max. Gradient            TolMAXG  ....  1.0000e-04 Eh/bohr
RMS Gradient             TolRMSG  ....  3.0000e-05 Eh/bohr
Max. Displacement        TolMAXD  ....  1.0000e-03 bohr
RMS Displacement         TolRMSD  ....  6.0000e-04 bohr
Strict Convergence                ....  False
------------------------------------------------------------------------------
                        ORCA OPTIMIZATION COORDINATE SETUP
------------------------------------------------------------------------------

The optimization will be done in new redundant internal coordinates
Making redundant internal coordinates   ...  (new redundants) done
Evaluating the initial hessian          ...  (Almloef) done
Evaluating the coordinates              ...  done
Calculating the B-matrix                .... done
Calculating the G-matrix                .... done
Diagonalizing the G-matrix              .... done
The first mode is                       ....    1
The number of degrees of freedom        ....    9

    -----------------------------------------------------------------
                    Redundant Internal Coordinates


    -----------------------------------------------------------------
         Definition                    Initial Value    Approx d2E/dq
    -----------------------------------------------------------------
      1. B(H   1,C   0)                  1.0845         0.367516   
      2. B(H   2,C   0)                  1.0845         0.367516   
      3. B(H   3,C   0)                  1.0845         0.367516   
      4. B(H   4,C   0)                  1.0845         0.367516   
      5. A(H   1,C   0,H   3)          109.4712         0.292710   
      6. A(H   2,C   0,H   3)          109.4712         0.292710   
      7. A(H   1,C   0,H   4)          109.4712         0.292710   
      8. A(H   2,C   0,H   4)          109.4712         0.292710   
      9. A(H   3,C   0,H   4)          109.4712         0.292710   
     10. A(H   1,C   0,H   2)          109.4712         0.292710   
    -----------------------------------------------------------------

Number of atoms                         .... 5
Number of degrees of freedom            .... 10

         *************************************************************
         *                GEOMETRY OPTIMIZATION CYCLE   1            *
         *************************************************************
---------------------------------
CARTESIAN COORDINATES (ANGSTROEM)
---------------------------------
  C     -0.000000   -0.000000   -0.000000
  H     -0.626108   -0.626108    0.626108
  H      0.626108   -0.626108   -0.626108
  H     -0.626108    0.626108   -0.626108
  H      0.626108    0.626108    0.626108

----------------------------
CARTESIAN COORDINATES (A.U.)
----------------------------
  NO LB      ZA    FRAG     MASS         X           Y           Z
   0 C     6.0000    0    12.011   -0.000000   -0.000000   -0.000000
   1 H     1.0000    0     1.008   -1.183173   -1.183173    1.183173
   2 H     1.0000    0     1.008    1.183173   -1.183173   -1.183173
   3 H     1.0000    0     1.008   -1.183173    1.183173   -1.183173
   4 H     1.0000    0     1.008    1.183173    1.183173    1.183173

--------------------------------
INTERNAL COORDINATES (ANGSTROEM)
--------------------------------
 C      0   0   0     0.000000000000     0.00000000     0.00000000
 H      1   0   0     1.084451255332     0.00000000     0.00000000
 H      1   2   0     1.084451255470   109.47122064     0.00000000
 H      1   2   3     1.084451255386   109.47122064   120.00000001
 H      1   2   3     1.084451255445   109.47122063   240.00000001

---------------------------
INTERNAL COORDINATES (A.U.)
---------------------------
 C      0   0   0     0.000000000000     0.00000000     0.00000000
 H      1   0   0     2.049315878165     0.00000000     0.00000000
 H      1   2   0     2.049315878426   109.47122064     0.00000000
 H      1   2   3     2.049315878266   109.47122064   120.00000001
 H      1   2   3     2.049315878379   109.47122063   240.00000001

---------------------
BASIS SET INFORMATION
---------------------
There are 2 groups of distinct atoms

 Group   1 Type C   : 11s5p2d contracted to 4s3p2d pattern {6311/311/11}
 Group   2 Type H   : 5s2p contracted to 3s2p pattern {311/11}

Atom   0C    basis set group =>   1
Atom   1H    basis set group =>   2
Atom   2H    basis set group =>   2
Atom   3H    basis set group =>   2
Atom   4H    basis set group =>   2

-------------------------
BASIS SET IN INPUT FORMAT
-------------------------

 # Basis set for element : H 
 NewGTO H 
 S 3 
   1      33.8650000000      0.0254938145
   2       5.0947900000      0.1903731086
   3       1.1587900000      0.8521614860
 S 1 
   1       0.3258400000      1.0000000000
 S 1 
   1       0.1027410000      1.0000000000
 P 1 
   1       1.5000000000      1.0000000000
 P 1 
   1       0.3750000000      1.0000000000
  end;

 # Basis set for element : C 
 NewGTO C 
 S 6 
   1    4563.2400000000      0.0019666502
   2     682.0240000000      0.0152306019
   3     154.9730000000      0.0761269097
   4      44.4553000000      0.2608010331
   5      13.0290000000      0.6164620782
   6       1.8277300000      0.2210060280
 S 3 
   1      20.9642000000      0.1146600807
   2       4.8033100000      0.9199996477
   3       1.4593300000     -0.0030306821
 P 3 
   1      20.9642000000      0.0402486927
   2       4.8033100000      0.2375939567
   3       1.4593300000      0.8158538515
 S 1 
   1       0.4834560000      1.0000000000
 P 1 
   1       0.4834560000      1.0000000000
 S 1 
   1       0.1455850000      1.0000000000
 P 1 
   1       0.1455850000      1.0000000000
 D 1 
   1       1.2520000000      1.0000000000
 D 1 
   1       0.3130000000      1.0000000000
  end;



           ************************************************************
           *        Program running with 12 parallel MPI-processes    *
           *              working on a common directory               *
           ************************************************************
------------------------------------------------------------------------------
                           ORCA GTO INTEGRAL CALCULATION
------------------------------------------------------------------------------

                         BASIS SET STATISTICS AND STARTUP INFO

 # of primitive gaussian shells          ...   46
 # of primitive gaussian functions       ...   80
 # of contracted shells                  ...   29
 # of contracted basis functions         ...   59
 Highest angular momentum                ...    2
 Maximum contraction depth               ...    6
 Integral package used                   ... LIBINT
 Integral threshhold            Thresh   ...  2.500e-11
 Primitive cut-off              TCut     ...  2.500e-12


------------------------------ INTEGRAL EVALUATION ----------------------------


 * One electron integrals 
 Pre-screening matrix                    ... done
 Shell pair data                         ... done (   0.000 sec)



           ************************************************************
           *        Program running with 12 parallel MPI-processes    *
           *              working on a common directory               *
           ************************************************************
-------------------------------------------------------------------------------
                                 ORCA SCF
-------------------------------------------------------------------------------

------------
SCF SETTINGS
------------
Hamiltonian:
 Ab initio Hamiltonian  Method          .... Hartree-Fock(GTOs)


General Settings:
 Integral files         IntName         .... methane
 Hartree-Fock type      HFTyp           .... UHF
 Total Charge           Charge          ....    0
 Multiplicity           Mult            ....    1
 Number of Electrons    NEL             ....   10
 Basis Dimension        Dim             ....   59
 Nuclear Repulsion      ENuc            ....     13.5041332120 Eh

Convergence Acceleration:
 DIIS                   CNVDIIS         .... on
   Start iteration      DIISMaxIt       ....    12
   Startup error        DIISStart       ....  0.200000
   # of expansion vecs  DIISMaxEq       ....     5
   Bias factor          DIISBfac        ....   1.050
   Max. coefficient     DIISMaxC        ....  10.000
 Newton-Raphson         CNVNR           .... off
 SOSCF                  CNVSOSCF        .... off
 Level Shifting         CNVShift        .... on
   Level shift para.    LevelShift      ....    0.2500
   Turn off err/grad.   ShiftErr        ....    0.0010
 Zerner damping         CNVZerner       .... off
 Static damping         CNVDamp         .... on
   Fraction old density DampFac         ....    0.7000
   Max. Damping (<1)    DampMax         ....    0.9800
   Min. Damping (>=0)   DampMin         ....    0.0000
   Turn off err/grad.   DampErr         ....    0.1000
 Fernandez-Rico         CNVRico         .... off

SCF Procedure:
 Maximum # iterations   MaxIter         ....   125
 SCF integral mode      SCFMode         .... Direct
   Integral package                     .... LIBINT
 Reset frequency        DirectResetFreq ....    20
 Integral Threshold     Thresh          ....  2.500e-11 Eh
 Primitive CutOff       TCut            ....  2.500e-12 Eh

Convergence Tolerance:
 Convergence Check Mode ConvCheckMode   .... Total+1el-Energy
 Convergence forced     ConvForced      .... 1
 Energy Change          TolE            ....  1.000e-08 Eh
 1-El. energy change                    ....  1.000e-05 Eh
 DIIS Error             TolErr          ....  5.000e-07


Diagonalization of the overlap matrix:
Smallest eigenvalue                        ... 3.964e-03
Time for diagonalization                   ...    0.002 sec
Threshold for overlap eigenvalues          ... 1.000e-08
Number of eigenvalues below threshold      ... 0
Time for construction of square roots      ...    0.021 sec
Total time needed                          ...    0.023 sec

-------------------
DFT GRID GENERATION
-------------------

General Integration Accuracy     IntAcc      ...  4.670
Radial Grid Type                 RadialGrid  ... Gauss-Chebyshev
Angular Grid (max. acc.)         AngularGrid ... Lebedev-302
Angular grid pruning method      GridPruning ... 3 (G Style)
Weight generation scheme         WeightScheme... Becke
Basis function cutoff            BFCut       ...    1.0000e-11
Integration weight cutoff        WCut        ...    1.0000e-14
Grids for H and He will be reduced by one unit

# of grid points (after initial pruning)     ...  19788 (   0.0 sec)
# of grid points (after weights+screening)   ...  19276 (   0.1 sec)
nearest neighbour list constructed           ...    0.0 sec
Grid point re-assignment to atoms done       ...    0.0 sec
Grid point division into batches done        ...    0.2 sec
Reduced shell lists constructed in    0.2 sec

Total number of grid points                  ...    19276
Total number of batches                      ...      304
Average number of points per batch           ...       63
Average number of grid points per atom       ...     3855
Average number of shells per batch           ...    27.93 (96.30%)
Average number of basis functions per batch  ...    56.81 (96.30%)
Average number of large shells per batch     ...    27.78 (99.47%)
Average number of large basis fcns per batch ...    56.37 (99.22%)
Maximum spatial batch extension              ...   1.44,  1.38,  1.38 au
Average spatial batch extension              ...   0.09,  0.09,  0.09 au

Time for grid setup =    0.459 sec

------------------------------
INITIAL GUESS: MODEL POTENTIAL
------------------------------
Loading Hartree-Fock densities                     ... done
Calculating cut-offs                               ... done
Setting up the integral package                    ... done
Initializing the effective Hamiltonian             ... done
Starting the Coulomb interaction                   ... done (   0.0 sec)
Reading the grid                                   ... done
Mapping shells                                     ... done
Starting the XC term evaluation                    ... done (   0.1 sec)
Transforming the Hamiltonian                       ... done (   0.0 sec)
Diagonalizing the Hamiltonian                      ... done (   0.0 sec)
Back transforming the eigenvectors                 ... done (   0.0 sec)
Now organizing SCF variables                       ... done
                      ------------------
                      INITIAL GUESS DONE (   0.9 sec)
                      ------------------
--------------
SCF ITERATIONS
--------------
ITER       Energy         Delta-E        Max-DP      RMS-DP      [F,P]     Damp
               ***  Starting incremental Fock matrix formation  ***
  0    -40.0964363679   0.000000000000 0.03299107  0.00090387  0.3119330 0.7000
  1    -40.1385348819  -0.042098514045 0.02254625  0.00067697  0.1994266 0.7000
                               ***Turning on DIIS***
  2    -40.1635784764  -0.025043594486 0.01293058  0.00042546  0.1169043 0.7000
  3    -40.3452367029  -0.181658226457 0.01575855  0.00072878  0.0667956 0.0000
  4    -40.1855843790   0.159652323815 0.00475223  0.00012362  0.0109318 0.0000
  5    -40.2096333454  -0.024048966323 0.00087006  0.00005765  0.0029895 0.0000
  6    -40.2116925986  -0.002059253269 0.00043984  0.00002626  0.0010017 0.0000
  7    -40.2121290710  -0.000436472364 0.00019196  0.00001166  0.0002575 0.0000
  8    -40.2121412210  -0.000012150011 0.00001843  0.00000123  0.0000114 0.0000
  9    -40.2121192973   0.000021923704 0.00000221  0.00000016  0.0000011 0.0000
                            ***DIIS convergence achieved***

               *****************************************************
               *                     SUCCESS                       *
               *           SCF CONVERGED AFTER  10 CYCLES          *
               *****************************************************


----------------
TOTAL SCF ENERGY
----------------

Total Energy       :          -40.21211679 Eh           -1094.22733 eV

Components:
Nuclear Repulsion  :           13.50413321 Eh             367.46615 eV
Electronic Energy  :          -53.71625000 Eh           -1461.69347 eV
One Electron Energy:          -79.86099184 Eh           -2173.12807 eV
Two Electron Energy:           26.14474183 Eh             711.43459 eV

Virial components:
Potential Energy   :          -80.40546859 Eh           -2187.94403 eV
Kinetic Energy     :           40.19335180 Eh            1093.71671 eV
Virial Ratio       :            2.00046687


---------------
SCF CONVERGENCE
---------------

  Last Energy change         ...    2.5081e-06  Tolerance :   1.0000e-08
  Last MAX-Density change    ...    2.3833e-07  Tolerance :   1.0000e-07
  Last RMS-Density change    ...    1.3066e-08  Tolerance :   5.0000e-09
  Last DIIS Error            ...    1.6418e-07  Tolerance :   5.0000e-07

             **** THE GBW FILE WAS UPDATED (methane.gbw) ****
             **** DENSITY FILE WAS UPDATED (methane.scfp) ****
             **** ENERGY FILE WAS UPDATED (methane.en.tmp) ****
----------------------
UHF SPIN CONTAMINATION
----------------------

Expectation value of <S**2>     :     0.000000
Ideal value S*(S+1) for S=0.0   :     0.000000
Deviation                       :     0.000000

             **** THE GBW FILE WAS UPDATED (methane.gbw) ****
             **** DENSITY FILE WAS UPDATED (methane.scfp) ****
----------------
ORBITAL ENERGIES
----------------
                 SPIN UP ORBITALS
  NO   OCC          E(Eh)            E(eV) 
   0   1.0000     -11.203311      -304.8576 
   1   1.0000      -0.944477       -25.7005 
   2   1.0000      -0.545989       -14.8571 
   3   1.0000      -0.545989       -14.8571 
   4   1.0000      -0.545989       -14.8571 
   5   0.0000       0.149833         4.0772 
   6   0.0000       0.229274         6.2389 
   7   0.0000       0.229274         6.2389 
   8   0.0000       0.229274         6.2389 
   9   0.0000       0.422163        11.4877 
  10   0.0000       0.422163        11.4877 
  11   0.0000       0.422163        11.4877 
  12   0.0000       0.672846        18.3091 
  13   0.0000       0.672950        18.3119 
  14   0.0000       0.672950        18.3119 
  15   0.0000       0.685523        18.6540 
  16   0.0000       0.685523        18.6540 
  17   0.0000       0.685523        18.6540 
  18   0.0000       0.832747        22.6602 
  19   0.0000       1.066763        29.0281 
  20   0.0000       1.066763        29.0281 
  21   0.0000       1.066763        29.0281 
  22   0.0000       1.209904        32.9232 
  23   0.0000       1.209904        32.9232 
  24   0.0000       1.209904        32.9232 
  25   0.0000       1.334280        36.3076 
  26   0.0000       1.334280        36.3076 
  27   0.0000       1.334280        36.3076 
  28   0.0000       1.593285        43.3555 
  29   0.0000       1.593285        43.3555 
  30   0.0000       1.634823        44.4858 
  31   0.0000       1.634823        44.4858 
  32   0.0000       1.634823        44.4858 
  33   0.0000       1.725985        46.9664 
  34   0.0000       2.731257        74.3213 
  35   0.0000       2.731257        74.3213 
  36   0.0000       2.731257        74.3213 
  37   0.0000       3.016639        82.0869 
  38   0.0000       3.456410        94.0537 
  39   0.0000       3.456410        94.0537 
  40   0.0000       3.456410        94.0537 
  41   0.0000       3.585744        97.5731 
  42   0.0000       3.585744        97.5731 
  43   0.0000       3.959582       107.7457 
  44   0.0000       3.959582       107.7457 
  45   0.0000       3.959582       107.7457 
  46   0.0000       4.147502       112.8593 
  47   0.0000       4.147502       112.8593 
  48   0.0000       4.147502       112.8593 
  49   0.0000       4.462284       121.4249 
  50   0.0000       4.462284       121.4249 
  51   0.0000       4.462284       121.4249 
  52   0.0000       4.463996       121.4715 
  53   0.0000       4.463996       121.4715 
  54   0.0000       4.488994       122.1517 
  55   0.0000       5.452923       148.3816 
  56   0.0000       5.452923       148.3816 
  57   0.0000       5.452923       148.3816 
  58   0.0000      25.197527       685.6596 

                 SPIN DOWN ORBITALS
  NO   OCC          E(Eh)            E(eV) 
   0   1.0000     -11.203311      -304.8576 
   1   1.0000      -0.944477       -25.7005 
   2   1.0000      -0.545989       -14.8571 
   3   1.0000      -0.545989       -14.8571 
   4   1.0000      -0.545989       -14.8571 
   5   0.0000       0.149833         4.0772 
   6   0.0000       0.229274         6.2389 
   7   0.0000       0.229274         6.2389 
   8   0.0000       0.229274         6.2389 
   9   0.0000       0.422163        11.4877 
  10   0.0000       0.422163        11.4877 
  11   0.0000       0.422163        11.4877 
  12   0.0000       0.672846        18.3091 
  13   0.0000       0.672950        18.3119 
  14   0.0000       0.672950        18.3119 
  15   0.0000       0.685523        18.6540 
  16   0.0000       0.685523        18.6540 
  17   0.0000       0.685523        18.6540 
  18   0.0000       0.832747        22.6602 
  19   0.0000       1.066763        29.0281 
  20   0.0000       1.066763        29.0281 
  21   0.0000       1.066763        29.0281 
  22   0.0000       1.209904        32.9232 
  23   0.0000       1.209904        32.9232 
  24   0.0000       1.209904        32.9232 
  25   0.0000       1.334280        36.3076 
  26   0.0000       1.334280        36.3076 
  27   0.0000       1.334280        36.3076 
  28   0.0000       1.593285        43.3555 
  29   0.0000       1.593285        43.3555 
  30   0.0000       1.634823        44.4858 
  31   0.0000       1.634823        44.4858 
  32   0.0000       1.634823        44.4858 
  33   0.0000       1.725985        46.9664 
  34   0.0000       2.731257        74.3213 
  35   0.0000       2.731257        74.3213 
  36   0.0000       2.731257        74.3213 
  37   0.0000       3.016639        82.0869 
  38   0.0000       3.456410        94.0537 
  39   0.0000       3.456410        94.0537 
  40   0.0000       3.456410        94.0537 
  41   0.0000       3.585744        97.5731 
  42   0.0000       3.585744        97.5731 
  43   0.0000       3.959582       107.7457 
  44   0.0000       3.959582       107.7457 
  45   0.0000       3.959582       107.7457 
  46   0.0000       4.147502       112.8593 
  47   0.0000       4.147502       112.8593 
  48   0.0000       4.147502       112.8593 
  49   0.0000       4.462284       121.4249 
  50   0.0000       4.462284       121.4249 
  51   0.0000       4.462284       121.4249 
  52   0.0000       4.463996       121.4715 
  53   0.0000       4.463996       121.4715 
  54   0.0000       4.488994       122.1517 
  55   0.0000       5.452923       148.3816 
  56   0.0000       5.452923       148.3816 
  57   0.0000       5.452923       148.3816 
  58   0.0000      25.197527       685.6596 
------------------
MOLECULAR ORBITALS
------------------
                      0         1         2         3         4         5   
                 -11.20331  -0.94448  -0.54599  -0.54599  -0.54599   0.14983
                   1.00000   1.00000   1.00000   1.00000   1.00000   0.00000
                  --------  --------  --------  --------  --------  --------
  0C   1s         0.563295 -0.102803 -0.000000 -0.000000  0.000000  0.045795
  0C   2s         0.466513 -0.170211 -0.000000 -0.000000  0.000000  0.081385
  0C   1pz       -0.000000  0.000000 -0.152699 -0.030221  0.112267  0.000000
  0C   1px        0.000000 -0.000000 -0.006502  0.187255  0.041563 -0.000000
  0C   1py        0.000000 -0.000000  0.116081 -0.029266  0.150010 -0.000000
  0C   3s         0.005016  0.421919  0.000000  0.000000 -0.000000 -0.179134
  0C   2pz        0.000000  0.000000 -0.229803 -0.045480  0.168954 -0.000000
  0C   2px       -0.000000 -0.000000 -0.009785  0.281807  0.062550  0.000000
  0C   2py       -0.000000 -0.000000  0.174694 -0.044043  0.225755  0.000000
  0C   4s         0.001444  0.210922  0.000000  0.000000 -0.000000 -3.401675
  0C   3pz        0.000000  0.000000 -0.141205 -0.027946  0.103816 -0.000000
  0C   3px       -0.000000 -0.000000 -0.006012  0.173159  0.038434 -0.000000
  0C   3py       -0.000000 -0.000000  0.107343 -0.027063  0.138717 -0.000000
  0C   1dz2       0.000000  0.000000 -0.000000 -0.000000  0.000000  0.000000
  0C   1dxz      -0.000000 -0.000000  0.011356 -0.002863  0.014676  0.000000
  0C   1dyz      -0.000000 -0.000000 -0.000636  0.018320  0.004066  0.000000
  0C   1dx2y2     0.000000  0.000000 -0.000000  0.000000  0.000000  0.000000
  0C   1dxy       0.000000 -0.000000 -0.014939 -0.002957  0.010983 -0.000000
  0C   2dz2       0.000000  0.000000 -0.000000 -0.000000  0.000000 -0.000000
  0C   2dxz      -0.000000 -0.000000  0.011352 -0.002862  0.014670  0.000000
  0C   2dyz      -0.000000 -0.000000 -0.000636  0.018312  0.004065  0.000000
  0C   2dx2y2     0.000000  0.000000 -0.000000  0.000000  0.000000 -0.000000
  0C   2dxy       0.000000  0.000000 -0.014933 -0.002955  0.010979  0.000000
  1H   1s         0.000453  0.083529 -0.138884 -0.099662 -0.041995 -0.012075
  1H   2s        -0.000567  0.118705 -0.220388 -0.158150 -0.066640  0.243196
  1H   3s        -0.000097  0.016481 -0.103754 -0.074453 -0.031372  0.951842
  1H   1pz       -0.000068 -0.005254  0.004358  0.004977  0.005011  0.010208
  1H   1px        0.000068  0.005254 -0.008069 -0.001317 -0.001425 -0.010208
  1H   1py        0.000068  0.005254 -0.005212 -0.006364  0.001103 -0.010208
  1H   2pz        0.000235 -0.009462  0.005319  0.008405  0.010769 -0.096097
  1H   2px       -0.000235  0.009462 -0.014524  0.000674 -0.001875  0.096097
  1H   2py       -0.000235  0.009462 -0.007436 -0.011845  0.004395  0.096097
  2H   1s         0.000453  0.083529  0.015948  0.130656 -0.116874 -0.012075
  2H   2s        -0.000567  0.118705  0.025306  0.207332 -0.185462  0.243196
  2H   3s        -0.000097  0.016481  0.011914  0.097607 -0.087311  0.951842
  2H   1pz        0.000068  0.005254 -0.002651  0.006744 -0.004046 -0.010208
  2H   1px       -0.000068 -0.005254 -0.001061 -0.003083  0.007632  0.010208
  2H   1py        0.000068  0.005254  0.003615  0.006767 -0.003166 -0.010208
  2H   2pz       -0.000235  0.009462 -0.007204  0.011563 -0.005415  0.096097
  2H   2px        0.000235 -0.009462 -0.002000 -0.002483  0.014309 -0.096097
  2H   2py       -0.000235  0.009462  0.008336  0.011618 -0.003233  0.096097
  3H   1s         0.000453  0.083529  0.145770 -0.098651 -0.002023 -0.012075
  3H   2s        -0.000567  0.118705  0.231315 -0.156545 -0.003210  0.243196
  3H   3s        -0.000097  0.016481  0.108898 -0.073698 -0.001511  0.951842
  3H   1pz        0.000068  0.005254  0.004751 -0.006329  0.002502 -0.010208
  3H   1px        0.000068  0.005254  0.008159 -0.001259  0.000854 -0.010208
  3H   1py       -0.000068 -0.005254 -0.005604  0.004942  0.003612  0.010208
  3H   2pz       -0.000235  0.009462  0.006021 -0.011797  0.006285  0.096097
  3H   2px       -0.000235  0.009462  0.014473  0.000777  0.002197  0.096097
  3H   2py        0.000235 -0.009462 -0.008138  0.008357  0.008879 -0.096097
  4H   1s         0.000453  0.083529 -0.022833  0.067657  0.160891 -0.012075
  4H   2s        -0.000567  0.118705 -0.036233  0.107362  0.255311  0.243196
  4H   3s        -0.000097  0.016481 -0.017058  0.050544  0.120195  0.951842
  4H   1pz       -0.000068 -0.005254 -0.002258 -0.004562 -0.006555  0.010208
  4H   1px       -0.000068 -0.005254  0.001150  0.000508 -0.008204  0.010208
  4H   1py       -0.000068 -0.005254  0.004008 -0.004539 -0.005675  0.010208
  4H   2pz        0.000235 -0.009462 -0.006503 -0.008639 -0.009899 -0.096097
  4H   2px        0.000235 -0.009462  0.001950  0.003935 -0.013987 -0.096097
  4H   2py        0.000235 -0.009462  0.009038 -0.008584 -0.007717 -0.096097
                      6         7         8         9        10        11   
                   0.22927   0.22927   0.22927   0.42216   0.42216   0.42216
                   0.00000   0.00000   0.00000   0.00000   0.00000   0.00000
                  --------  --------  --------  --------  --------  --------
  0C   1s        -0.000000  0.000000 -0.000000  0.000000 -0.000000  0.000000
  0C   2s         0.000000  0.000000  0.000000 -0.000000 -0.000000  0.000000
  0C   1pz       -0.025296  0.103080 -0.019442  0.006378  0.011695 -0.013746
  0C   1px        0.079474  0.031886  0.065655  0.008834 -0.014736 -0.008438
  0C   1py       -0.068465 -0.001072  0.083396  0.015738  0.003532  0.010308
  0C   3s        -0.000000 -0.000000 -0.000000  0.000000 -0.000000 -0.000000
  0C   2pz       -0.067749  0.276073 -0.052070 -0.033623 -0.061649  0.072460
  0C   2px        0.212851  0.085399  0.175839 -0.046570  0.077680  0.044481
  0C   2py       -0.183364 -0.002871  0.223354 -0.082960 -0.018620 -0.054337
  0C   4s        -0.000000  0.000000 -0.000000  0.000000 -0.000000  0.000000
  0C   3pz       -0.396546  1.615892 -0.304774 -0.661924 -1.213665  1.426495
  0C   3px        1.245841  0.499853  1.029208 -0.916800  1.529267  0.875689
  0C   3py       -1.073254 -0.016806  1.307320 -1.633202 -0.366567 -1.069716
  0C   1dz2       0.000000 -0.000000  0.000000  0.000000  0.000000 -0.000000
  0C   1dxz       0.004502  0.000070 -0.005484  0.025764  0.005783  0.016875
  0C   1dyz      -0.005226 -0.002097 -0.004317  0.014463 -0.024125 -0.013814
  0C   1dx2y2    -0.000000 -0.000000 -0.000000  0.000000 -0.000000 -0.000000
  0C   1dxy       0.001663 -0.006778  0.001278  0.010442  0.019146 -0.022503
  0C   2dz2      -0.000000  0.000000 -0.000000 -0.000000 -0.000000  0.000000
  0C   2dxz      -0.111744 -0.001750  0.136115 -0.215380 -0.048341 -0.141070
  0C   2dyz       0.129714  0.052043  0.107158 -0.120904  0.201674  0.115482
  0C   2dx2y2     0.000000  0.000000  0.000000 -0.000000  0.000000  0.000000
  0C   2dxy      -0.041287  0.168242 -0.031732 -0.087292 -0.160053  0.188121
  1H   1s         0.000444 -0.000883  0.002059 -0.030713  0.038655 -0.026360
  1H   2s         0.058112 -0.115670  0.269693 -0.953322  1.199866 -0.818229
  1H   3s         0.522729 -1.040479  2.425945 -0.094535  0.118983 -0.081139
  1H   1pz        0.001423  0.002265  0.016072 -0.003338 -0.009183  0.010179
  1H   1px        0.003815  0.010781 -0.011604 -0.006986  0.011247  0.004876
  1H   1py       -0.010486  0.007595 -0.009889 -0.011671 -0.001150 -0.007845
  1H   2pz       -0.022473  0.022020 -0.146492  0.064591 -0.070168  0.044594
  1H   2px       -0.000864 -0.080157  0.126586 -0.056008  0.068452 -0.057110
  1H   2py        0.062861 -0.065960  0.118944 -0.052113  0.078759 -0.046534
  2H   1s        -0.002117  0.000857 -0.000021 -0.022421 -0.050581 -0.008441
  2H   2s        -0.277283  0.112238 -0.002722 -0.695940 -1.570038 -0.262007
  2H   3s        -2.494222  1.009607 -0.024488 -0.069012 -0.155691 -0.025982
  2H   1pz        0.016011  0.002494 -0.001698 -0.005052 -0.009568  0.009056
  2H   1px       -0.010774  0.010553  0.006165 -0.005272  0.011632  0.005999
  2H   1py        0.011838 -0.007574  0.008243 -0.011403 -0.004028 -0.007268
  2H   2pz       -0.148329  0.020049  0.006811 -0.040927 -0.093851 -0.024518
  2H   2px        0.124992 -0.078186 -0.026718  0.049510  0.092135  0.012002
  2H   2py       -0.129734  0.064913 -0.037486 -0.035646 -0.098456 -0.010947
  3H   1s         0.001499  0.001662 -0.000454  0.000886  0.011097  0.054849
  3H   2s         0.196304  0.217746 -0.059516  0.027507  0.344439  1.702529
  3H   3s         1.765795  1.958675 -0.535361  0.002728  0.034156  0.168829
  3H   1pz       -0.015511 -0.004529  0.002082 -0.004300 -0.007579  0.011097
  3H   1px       -0.005384 -0.011411  0.010308 -0.005967  0.010358  0.007495
  3H   1py        0.006448  0.014390  0.004100 -0.010709 -0.002755 -0.008764
  3H   2pz        0.123621  0.080635 -0.025802  0.005358  0.028635  0.101170
  3H   2px        0.078491  0.111302 -0.062457  0.006744  0.013723  0.104165
  3H   2py       -0.083233 -0.124576 -0.001747  0.007119 -0.020044 -0.103110
  4H   1s         0.000175 -0.001636 -0.001584  0.052247  0.000829 -0.020048
  4H   2s         0.022868 -0.214314 -0.207454  1.621755  0.025733 -0.622294
  4H   3s         0.205698 -1.927803 -1.866096  0.160820  0.002552 -0.061709
  4H   1pz       -0.000923 -0.004301 -0.015688 -0.006014 -0.007963  0.009975
  4H   1px        0.009205 -0.011183 -0.007462 -0.007680  0.009974  0.006373
  4H   1py       -0.005096 -0.014369 -0.005747 -0.012365 -0.002424 -0.006349
  4H   2pz       -0.002235  0.078665  0.127502 -0.100159  0.004952  0.032058
  4H   2px       -0.047365  0.109331  0.090846 -0.098774 -0.009960  0.035053
  4H   2py        0.016360  0.123528  0.083204 -0.094879  0.000347  0.045629
                     12        13        14        15        16        17   
                   0.67285   0.67295   0.67295   0.68552   0.68552   0.68552
                   0.00000   0.00000   0.00000   0.00000   0.00000   0.00000
                  --------  --------  --------  --------  --------  --------
  0C   1s        -0.088180  0.000000  0.000000  0.000000  0.000000  0.000000
  0C   2s        -0.152338  0.000000  0.000000  0.000000  0.000000  0.000000
  0C   1pz       -0.000000 -0.000000 -0.000000 -0.184709  0.056164 -0.186369
  0C   1px        0.000000  0.000000 -0.000000  0.016063  0.260447  0.062569
  0C   1py        0.000000  0.000000  0.000000 -0.193984 -0.031913  0.182639
  0C   3s         0.503022 -0.000000 -0.000000 -0.000000 -0.000000 -0.000000
  0C   2pz       -0.000000  0.000000  0.000000 -0.038378  0.011670 -0.038723
  0C   2px        0.000000 -0.000000  0.000000  0.003337  0.054114  0.013000
  0C   2py        0.000000 -0.000000 -0.000000 -0.040305 -0.006631  0.037948
  0C   4s        -4.501874  0.000000  0.000000  0.000000  0.000000  0.000000
  0C   3pz        0.000000  0.000000  0.000000  2.197563 -0.668210  2.217314
  0C   3px       -0.000000 -0.000000  0.000000 -0.191106 -3.098646 -0.744405
  0C   3py       -0.000000 -0.000000 -0.000000  2.307913  0.379678 -2.172935
  0C   1dz2      -0.000000 -0.022692 -0.008540  0.000000 -0.000000  0.000000
  0C   1dxz      -0.000000 -0.000000 -0.000000  0.006153  0.001012 -0.005793
  0C   1dyz      -0.000000 -0.000000  0.000000 -0.000510 -0.008261 -0.001985
  0C   1dx2y2    -0.000000  0.008540 -0.022692 -0.000000 -0.000000 -0.000000
  0C   1dxy       0.000000  0.000000  0.000000  0.005859 -0.001782  0.005912
  0C   2dz2      -0.000000 -0.079547 -0.029937  0.000000 -0.000000  0.000000
  0C   2dxz      -0.000000 -0.000000 -0.000000  0.625699  0.102935 -0.589105
  0C   2dyz      -0.000000 -0.000000  0.000000 -0.051811 -0.840075 -0.201816
  0C   2dx2y2    -0.000000  0.029937 -0.079547 -0.000000 -0.000000 -0.000000
  0C   2dxy       0.000000  0.000000  0.000000  0.595782 -0.181159  0.601136
  1H   1s        -0.087029  0.000000  0.000000  0.001648  0.041852  0.104789
  1H   2s         0.249635 -0.000000 -0.000000 -0.018930 -0.480721 -1.203621
  1H   3s         0.881122 -0.000000 -0.000000 -0.036534 -0.927765 -2.322923
  1H   1pz        0.013965  0.020497  0.007714  0.009281 -0.009444 -0.006760
  1H   1px       -0.013965  0.016929 -0.013894 -0.000572 -0.006906  0.013154
  1H   1py       -0.013965  0.003568  0.021608  0.010275  0.008192  0.006953
  1H   2pz       -0.350878 -0.338148 -0.127260 -0.140504  0.302889  0.491711
  1H   2px        0.350878 -0.279285  0.229215  0.002975 -0.044697 -0.592669
  1H   2py        0.350878 -0.058863 -0.356475 -0.168316 -0.283113 -0.494753
  2H   1s        -0.087029  0.000000  0.000000 -0.095849 -0.057349 -0.016098
  2H   2s         0.249636 -0.000000 -0.000000  1.100932  0.658722  0.184900
  2H   3s         0.881122 -0.000000 -0.000000  2.124739  1.271299  0.356847
  2H   1pz       -0.013965 -0.020497 -0.007714 -0.005448 -0.011867  0.007107
  2H   1px        0.013965 -0.016929  0.013894  0.014157 -0.004483 -0.000714
  2H   1py       -0.013965  0.003568  0.021608 -0.004969 -0.007319 -0.011949
  2H   2pz        0.350878  0.338148  0.127260  0.438147  0.398084 -0.053098
  2H   2px       -0.350878  0.279285 -0.229215 -0.575676 -0.139892 -0.047860
  2H   2py        0.350878 -0.058863 -0.356475  0.430584  0.326259  0.247824
  3H   1s        -0.087029  0.000000  0.000000  0.006152  0.084623 -0.074405
  3H   2s         0.249636 -0.000000 -0.000000 -0.070665 -0.971994  0.854627
  3H   3s         0.881122 -0.000000 -0.000000 -0.136379 -1.875897  1.649384
  3H   1pz       -0.013965 -0.020497 -0.007714  0.010501  0.010331 -0.002010
  3H   1px       -0.013965  0.016929 -0.013894  0.000132 -0.000218 -0.014865
  3H   1py        0.013965 -0.003568 -0.021608  0.009056 -0.011584  0.002202
  3H   2pz        0.350878  0.338148  0.127260 -0.188419 -0.474019  0.305070
  3H   2px        0.350878 -0.279285  0.229215 -0.024692 -0.307429  0.508076
  3H   2py       -0.350878  0.058863  0.356475 -0.120400  0.493796 -0.308112
  4H   1s        -0.087029  0.000000  0.000000  0.088048 -0.069126 -0.014286
  4H   2s         0.249636 -0.000000 -0.000000 -1.011337  0.793993  0.164094
  4H   3s         0.881122 -0.000000 -0.000000 -1.951826  1.532363  0.316693
  4H   1pz        0.013965  0.020497  0.007714 -0.004229  0.007908  0.011858
  4H   1px        0.013965 -0.016929  0.013894 -0.014597 -0.002641 -0.000997
  4H   1py        0.013965 -0.003568 -0.021608 -0.003750  0.012456 -0.007198
  4H   2pz       -0.350878 -0.338148 -0.127260  0.390232 -0.378824 -0.239739
  4H   2px       -0.350878  0.279285 -0.229215  0.553959 -0.212234 -0.036733
  4H   2py       -0.350878  0.058863  0.356475  0.382669 -0.450650  0.061183
                     18        19        20        21        22        23   
                   0.83275   1.06676   1.06676   1.06676   1.20990   1.20990
                   0.00000   0.00000   0.00000   0.00000   0.00000   0.00000
                  --------  --------  --------  --------  --------  --------
  0C   1s         0.029419 -0.000000 -0.000000 -0.000000 -0.000000  0.000000
  0C   2s         0.059988  0.000000 -0.000000 -0.000000 -0.000000  0.000000
  0C   1pz        0.000000 -0.000000 -0.000000 -0.000000  0.020784  0.031106
  0C   1px       -0.000000  0.000000  0.000000 -0.000000 -0.020780  0.038545
  0C   1py       -0.000000 -0.000000  0.000000 -0.000000  0.040055  0.003856
  0C   3s        -0.775197 -0.000000  0.000000  0.000000  0.000000 -0.000000
  0C   2pz        0.000000 -0.000000  0.000000  0.000000  0.131836  0.197317
  0C   2px       -0.000000 -0.000000  0.000000  0.000000 -0.131813  0.244500
  0C   2py       -0.000000  0.000000 -0.000000  0.000000  0.254080  0.024460
  0C   4s         7.914594 -0.000000  0.000000 -0.000000  0.000000 -0.000000
  0C   3pz        0.000000  0.000000 -0.000000 -0.000000  0.721287  1.079533
  0C   3px        0.000000  0.000000  0.000000 -0.000000 -0.721159  1.337677
  0C   3py        0.000000 -0.000000  0.000000 -0.000000  1.390092  0.133822
  0C   1dz2      -0.000000 -0.000000  0.000000 -0.000000  0.000000  0.000000
  0C   1dxz      -0.000000 -0.000000  0.000000 -0.000000 -0.007508 -0.000723
  0C   1dyz      -0.000000  0.000000 -0.000000 -0.000000  0.003895 -0.007225
  0C   1dx2y2    -0.000000 -0.000000  0.000000 -0.000000 -0.000000  0.000000
  0C   1dxy       0.000000  0.000000 -0.000000 -0.000000 -0.003896 -0.005831
  0C   2dz2       0.000000 -0.000000  0.000000 -0.000000 -0.000000 -0.000000
  0C   2dxz       0.000000 -0.000000  0.000000 -0.000000  1.411529  0.135886
  0C   2dyz      -0.000000  0.000000  0.000000 -0.000000 -0.732280  1.358306
  0C   2dx2y2     0.000000 -0.000000  0.000000 -0.000000 -0.000000  0.000000
  0C   2dxy      -0.000000 -0.000000 -0.000000  0.000000  0.732410  1.096181
  1H   1s         0.000430  0.000000 -0.000000  0.000000  0.001532 -0.011468
  1H   2s        -1.791725 -0.000000  0.000000 -0.000000 -0.042504  0.318224
  1H   3s        -0.757453 -0.000000  0.000000 -0.000000  0.000859 -0.006430
  1H   1pz       -0.004445  0.001263 -0.007360  0.040438  0.003495  0.000231
  1H   1px        0.004445 -0.010172  0.029645  0.026622 -0.003495  0.009617
  1H   1py        0.004445  0.011435 -0.037005  0.013816  0.005107  0.004713
  1H   2pz        0.239230 -0.020441  0.119150 -0.654625 -0.023126 -0.014737
  1H   2px       -0.239230  0.164668 -0.479899 -0.430964  0.023122 -0.055351
  1H   2py       -0.239230 -0.185109  0.599049 -0.223661 -0.038093 -0.020445
  2H   1s         0.000430  0.000000 -0.000000 -0.000000 -0.082873  0.003637
  2H   2s        -1.791725 -0.000000  0.000000  0.000000  2.299645 -0.100933
  2H   3s        -0.757453 -0.000000  0.000000 -0.000000 -0.046464  0.002039
  2H   1pz        0.004445  0.039179 -0.012015 -0.003410  0.033053  0.003077
  2H   1px       -0.004445  0.027744  0.024990 -0.017226 -0.033053  0.006772
  2H   1py        0.004445 -0.011435  0.037005 -0.013816  0.035778 -0.000777
  2H   2pz       -0.239230 -0.634247  0.194504  0.055206 -0.140617 -0.026047
  2H   2px        0.239230 -0.449138 -0.404545  0.278867  0.140613 -0.044040
  2H   2py       -0.239230  0.185109 -0.599049  0.223661 -0.160009  0.001374
  3H   1s         0.000430 -0.000000  0.000000  0.000000  0.040667 -0.066806
  3H   2s        -1.791725  0.000000 -0.000000 -0.000000 -1.128467  1.853809
  3H   3s        -0.757453  0.000000 -0.000000 -0.000000  0.022801 -0.037456
  3H   1pz        0.004445 -0.039179  0.012015  0.003410 -0.011839  0.028675
  3H   1px        0.004445  0.010172 -0.029645 -0.026622 -0.017716  0.029726
  3H   1py       -0.004445 -0.029007 -0.017630 -0.023211  0.020441 -0.023731
  3H   2pz       -0.239230  0.634247 -0.194504 -0.055206  0.037826 -0.127797
  3H   2px       -0.239230 -0.164668  0.479899  0.430964  0.079650 -0.135282
  3H   2py        0.239230  0.469579  0.285395  0.375758 -0.099046  0.092616
  4H   1s         0.000430 -0.000000  0.000000 -0.000000  0.040674  0.074637
  4H   2s        -1.791725  0.000000 -0.000000  0.000000 -1.128674 -2.071100
  4H   3s        -0.757453 -0.000000 -0.000000  0.000000  0.022805  0.041846
  4H   1pz       -0.004445 -0.001263  0.007360 -0.040438  0.017719  0.031520
  4H   1px       -0.004445 -0.027744 -0.024990  0.017226  0.011842  0.032572
  4H   1py       -0.004445  0.029007  0.017630  0.023211  0.020444  0.027667
  4H   2pz        0.239230  0.020441 -0.119150  0.654625 -0.079665 -0.139108
  4H   2px        0.239230  0.449138  0.404545 -0.278867 -0.037841 -0.146593
  4H   2py        0.239230 -0.469579 -0.285395 -0.375758 -0.099057 -0.111687
                     24        25        26        27        28        29   
                   1.20990   1.33428   1.33428   1.33428   1.59328   1.59328
                   0.00000   0.00000   0.00000   0.00000   0.00000   0.00000
                  --------  --------  --------  --------  --------  --------
  0C   1s         0.000000 -0.000000 -0.000000 -0.000000  0.000000 -0.000000
  0C   2s         0.000000 -0.000000 -0.000000 -0.000000  0.000000 -0.000000
  0C   1pz       -0.032690  0.041692  0.085805  0.011941 -0.000000  0.000000
  0C   1px        0.023466  0.068667 -0.040811  0.053503 -0.000000 -0.000000
  0C   1py        0.029136  0.052819 -0.014673 -0.078981  0.000000 -0.000000
  0C   3s        -0.000000 -0.000000 -0.000000 -0.000000 -0.000000  0.000000
  0C   2pz       -0.207359  0.061254  0.126065  0.017544  0.000000 -0.000000
  0C   2px        0.148854  0.100886 -0.059959  0.078607 -0.000000 -0.000000
  0C   2py        0.184817  0.077603 -0.021558 -0.116040  0.000000 -0.000000
  0C   4s        -0.000000  0.000000  0.000000  0.000000  0.000000 -0.000000
  0C   3pz       -1.134475  0.884328  1.820010  0.253282  0.000000 -0.000000
  0C   3px        0.814389  1.456500 -0.865634  1.134862 -0.000000 -0.000000
  0C   3py        1.011146  1.120356 -0.311232 -1.675280  0.000000 -0.000000
  0C   1dz2      -0.000000 -0.000000 -0.000000 -0.000000  0.001833 -0.004868
  0C   1dxz      -0.005462  0.016114 -0.004476 -0.024095  0.000000 -0.000000
  0C   1dyz      -0.004399  0.020948 -0.012450  0.016322 -0.000000 -0.000000
  0C   1dx2y2     0.000000  0.000000 -0.000000  0.000000  0.004868  0.001833
  0C   1dxy       0.006128  0.012719  0.026177  0.003643  0.000000 -0.000000
  0C   2dz2       0.000000  0.000000  0.000000 -0.000000  0.934187 -2.480582
  0C   2dxz       1.026739 -0.556526  0.154601  0.832179 -0.000000  0.000000
  0C   2dyz       0.826948 -0.723502  0.429996 -0.563732  0.000000  0.000000
  0C   2dx2y2     0.000000  0.000000 -0.000000  0.000000  2.480582  0.934187
  0C   2dxy      -1.151970 -0.439282 -0.904073 -0.125815  0.000000 -0.000000
  1H   1s        -0.086603 -0.011527  0.020409  0.005405  0.000000 -0.000000
  1H   2s         2.403136  0.055076 -0.097521 -0.025828 -0.000000  0.000000
  1H   3s        -0.048555  0.311320 -0.551239 -0.145991 -0.000000 -0.000000
  1H   1pz       -0.036092  0.048491  0.018836 -0.002084  0.019205 -0.050995
  1H   1px        0.034788  0.023892  0.010675  0.045008 -0.034561 -0.042130
  1H   1py        0.035590  0.013498  0.027818 -0.041886  0.053766 -0.008866
  1H   2pz        0.157985 -0.836838 -0.623525 -0.022912 -0.347917  0.923838
  1H   2px       -0.148704 -0.618657  0.030107 -0.840217  0.626109  0.763224
  1H   2py       -0.154409 -0.409647 -0.314613  0.907091 -0.974026  0.160614
  2H   1s         0.027435 -0.003733 -0.016170  0.017413  0.000000  0.000000
  2H   2s        -0.761303  0.017838  0.077266 -0.083203 -0.000000 -0.000000
  2H   3s         0.015382  0.100832  0.436744 -0.470303  0.000000  0.000000
  2H   1pz       -0.014592  0.020496  0.026613  0.039776 -0.019205  0.050995
  2H   1px        0.013288  0.051886  0.002898  0.003147  0.034561  0.042130
  2H   1py       -0.005850  0.027794 -0.039289 -0.019858  0.053766 -0.008866
  2H   2pz        0.072522 -0.456916 -0.729066 -0.591013  0.347917 -0.923838
  2H   2px       -0.063241 -0.998578  0.135648 -0.272116 -0.626109 -0.763224
  2H   2py        0.010310 -0.603675  0.596111  0.608140 -0.974026  0.160614
  3H   1s         0.038949 -0.008312 -0.008619 -0.020863 -0.000000  0.000000
  3H   2s        -1.080784  0.039715  0.041184  0.099687  0.000000 -0.000000
  3H   3s         0.021837  0.224491  0.232793  0.563479 -0.000000 -0.000000
  3H   1pz       -0.018775  0.012097  0.040466 -0.030441 -0.019205  0.050995
  3H   1px       -0.010835  0.029789 -0.042579 -0.003181 -0.034561 -0.042130
  3H   1py        0.018273  0.049891  0.006188 -0.013529 -0.053766  0.008866
  3H   2pz        0.089152 -0.342927 -0.917069  0.361929  0.347917 -0.923838
  3H   2px        0.032645 -0.698696  0.752828 -0.186226  0.626109  0.763224
  3H   2py       -0.085576 -0.903558 -0.021069  0.522250  0.974026 -0.160614
  4H   1s         0.020219  0.023571  0.004380 -0.001955  0.000000 -0.000000
  4H   2s        -0.561049 -0.112630 -0.020929  0.009344 -0.000000  0.000000
  4H   3s         0.011336 -0.636642 -0.118298  0.052815  0.000000  0.000000
  4H   1pz        0.002725 -0.015898  0.048243  0.011419  0.019205 -0.050995
  4H   1px        0.010665  0.001795 -0.034802  0.038679  0.034561  0.042130
  4H   1py        0.011467 -0.008599 -0.017659 -0.048215 -0.053766  0.008866
  4H   2pz        0.003690  0.036994 -1.022610 -0.206172 -0.347917  0.923838
  4H   2px       -0.052818 -0.318774  0.647287 -0.754327 -0.626109 -0.763224
  4H   2py       -0.058522 -0.109765  0.302567  0.992981  0.974026 -0.160614
                     30        31        32        33        34        35   
                   1.63482   1.63482   1.63482   1.72599   2.73126   2.73126
                   0.00000   0.00000   0.00000   0.00000   0.00000   0.00000
                  --------  --------  --------  --------  --------  --------
  0C   1s         0.000000  0.000000  0.000000 -0.120467  0.000000 -0.000000
  0C   2s         0.000000  0.000000  0.000000 -0.297260 -0.000000 -0.000000
  0C   1pz        0.174524 -0.125959  0.165419  0.000000 -0.012046  0.003261
  0C   1px       -0.075616 -0.239634 -0.102693 -0.000000  0.003386  0.014890
  0C   1py        0.193679  0.019944 -0.189152 -0.000000  0.008796 -0.001266
  0C   3s        -0.000000 -0.000000 -0.000000  2.788155  0.000000  0.000000
  0C   2pz        1.534469 -1.107470  1.454417  0.000000  0.701974 -0.190060
  0C   2px       -0.664835 -2.106934 -0.902903 -0.000000 -0.197331 -0.867704
  0C   2py        1.702883  0.175358 -1.663084 -0.000000 -0.512606  0.073756
  0C   4s        -0.000000 -0.000000 -0.000000  5.432573  0.000000  0.000000
  0C   3pz        1.731751 -1.249854  1.641407  0.000000  0.654253 -0.177139
  0C   3px       -0.750311 -2.377816 -1.018987 -0.000000 -0.183916 -0.808716
  0C   3py        1.921818  0.197903 -1.876902 -0.000000 -0.477759  0.068742
  0C   1dz2      -0.000000 -0.000000 -0.000000 -0.000000 -0.000000  0.000000
  0C   1dxz      -0.013225 -0.001362  0.012916  0.000000 -0.197274  0.028385
  0C   1dyz       0.005163  0.016363  0.007012  0.000000 -0.075942 -0.333932
  0C   1dx2y2     0.000000  0.000000  0.000000 -0.000000 -0.000000 -0.000000
  0C   1dxy      -0.011917  0.008601 -0.011296 -0.000000  0.270152 -0.073144
  0C   2dz2       0.000000  0.000000  0.000000  0.000000 -0.000000  0.000000
  0C   2dxz       1.301461  0.134021 -1.271044 -0.000000  0.042303 -0.006087
  0C   2dyz      -0.508113 -1.610264 -0.690061 -0.000000  0.016285  0.071607
  0C   2dx2y2    -0.000000 -0.000000 -0.000000  0.000000  0.000000  0.000000
  0C   2dxy       1.172747 -0.846405  1.111565  0.000000 -0.057930  0.015685
  1H   1s        -0.012104 -0.020094 -0.098027 -0.135540  1.237264  0.529190
  1H   2s        -0.486371 -0.807422 -3.939011 -1.509915 -2.423225 -1.036438
  1H   3s        -0.203909 -0.338508 -1.651412 -0.667675  0.095878  0.041008
  1H   1pz        0.000904 -0.014234 -0.039921 -0.047145 -0.051498 -0.002523
  1H   1px        0.002840  0.000396  0.042295  0.047145  0.031425  0.044599
  1H   1py        0.013033  0.010221  0.039023  0.047145  0.043966  0.007150
  1H   2pz        0.156999  0.319633  1.448633  0.700209  0.526137  0.266257
  1H   2px       -0.171037 -0.267743 -1.457536 -0.700209 -0.568565 -0.177323
  1H   2py       -0.209259 -0.304586 -1.445265 -0.700209 -0.542058 -0.256478
  2H   1s         0.095144  0.028645  0.016927 -0.135540 -0.338866 -0.658455
  2H   2s         3.823187  1.151038  0.680180 -1.509915  0.663680  1.289607
  2H   3s         1.602854  0.482567  0.285163 -0.667675 -0.026259 -0.051025
  2H   1pz       -0.038219 -0.018263 -0.001713  0.047145 -0.034380 -0.004986
  2H   1px        0.041962  0.004425  0.004088 -0.047145  0.014306  0.047062
  2H   1py       -0.037494 -0.012740 -0.015134  0.047145  0.013933 -0.015480
  2H   2pz        1.404054  0.448051  0.230723 -0.700209  0.101245  0.327392
  2H   2px       -1.418093 -0.396161 -0.239626  0.700209 -0.143673 -0.238458
  2H   2py        1.401336  0.427342  0.281048 -0.700209  0.203363  0.305211
  3H   1s        -0.020317 -0.082650  0.053997 -0.135540 -0.891421  0.991555
  3H   2s        -0.816380 -3.321136  2.169763 -1.509915  1.745879 -1.941995
  3H   3s        -0.342264 -1.392371  0.909663 -0.667675 -0.069078  0.076838
  3H   1pz        0.016177  0.034171 -0.019178  0.047145 -0.044908  0.026454
  3H   1px        0.006709  0.029868 -0.029326  0.047145 -0.009136  0.053409
  3H   1py       -0.002241 -0.038183  0.018280 -0.047145  0.037376 -0.021827
  3H   2pz       -0.329873 -1.223318  0.787419 -0.700209  0.362572 -0.452970
  3H   2px       -0.294370 -1.207184  0.825473 -0.700209  0.438183 -0.395996
  3H   2py        0.277613  1.238365 -0.784050  0.700209 -0.378493  0.462749
  4H   1s        -0.062724  0.074099  0.027103 -0.135540 -0.006978 -0.862291
  4H   2s        -2.520436  2.977520  1.089067 -1.509915  0.013667  1.688826
  4H   3s        -1.056681  1.248312  0.456586 -0.667675 -0.000541 -0.066821
  4H   1pz       -0.022945  0.030142  0.019030 -0.047145 -0.027790  0.023991
  4H   1px       -0.032413  0.025839  0.008882 -0.047145  0.007982  0.050946
  4H   1py       -0.022220  0.035665  0.005609 -0.047145  0.020523  0.013497
  4H   2pz        0.917182 -1.094900 -0.430491  0.700209 -0.062320 -0.391835
  4H   2px        0.952685 -1.078765 -0.392437  0.700209  0.013291 -0.334861
  4H   2py        0.914464 -1.115608 -0.380166  0.700209  0.039798 -0.414016
                     36        37        38        39        40        41   
                   2.73126   3.01664   3.45641   3.45641   3.45641   3.58574
                   0.00000   0.00000   0.00000   0.00000   0.00000   0.00000
                  --------  --------  --------  --------  --------  --------
  0C   1s        -0.000000  0.031656  0.000000  0.000000 -0.000000  0.000000
  0C   2s         0.000000  0.117298 -0.000000  0.000000  0.000000  0.000000
  0C   1pz        0.008843  0.000000 -0.195821 -0.087628  0.251996 -0.000000
  0C   1px       -0.000879 -0.000000  0.034283 -0.318261 -0.084030 -0.000000
  0C   1py        0.012449 -0.000000 -0.264585  0.023616 -0.197392  0.000000
  0C   3s        -0.000000 -1.652439  0.000000 -0.000000 -0.000000 -0.000000
  0C   2pz       -0.515346 -0.000000  0.700415  0.313430 -0.901341  0.000000
  0C   2px        0.051217 -0.000000 -0.122626  1.138359  0.300560  0.000000
  0C   2py       -0.725443 -0.000000  0.946371 -0.084469  0.706033 -0.000000
  0C   4s        -0.000000 -7.382735  0.000000 -0.000000 -0.000000 -0.000000
  0C   3pz       -0.480312 -0.000000  0.727867  0.325715 -0.936669 -0.000000
  0C   3px        0.047735 -0.000000 -0.127432  1.182977  0.312340  0.000000
  0C   3py       -0.676126 -0.000000  0.983464 -0.087780  0.733706 -0.000000
  0C   1dz2       0.000000 -0.000000  0.000000  0.000000 -0.000000  0.328689
  0C   1dxz      -0.279184  0.000000 -0.609187  0.054373 -0.454480  0.000000
  0C   1dyz       0.019711  0.000000  0.078935 -0.732772 -0.193473 -0.000000
  0C   1dx2y2     0.000000 -0.000000  0.000000 -0.000000 -0.000000  0.872364
  0C   1dxy      -0.198329  0.000000 -0.450863 -0.201758  0.580201  0.000000
  0C   2dz2       0.000000  0.000000 -0.000000 -0.000000  0.000000 -0.420889
  0C   2dxz       0.059867 -0.000000  0.885754 -0.079058  0.660811 -0.000000
  0C   2dyz      -0.004227 -0.000000 -0.114771  1.065446  0.281309  0.000000
  0C   2dx2y2    -0.000000  0.000000 -0.000000  0.000000  0.000000 -1.117069
  0C   2dxy       0.042529  0.000000  0.655552  0.293354 -0.843609 -0.000000
  1H   1s         0.139227 -0.886801 -0.024966 -0.149896 -0.386234 -0.000000
  1H   2s        -0.272680  2.873585  0.134494  0.807483  2.080631  0.000000
  1H   3s         0.010789  0.515040  0.003289  0.019749  0.050888  0.000000
  1H   1pz        0.017846  0.027217  0.073740 -0.043298 -0.324988  0.096032
  1H   1px        0.000616 -0.027217 -0.001583  0.224605  0.249959 -0.172714
  1H   1py        0.031509 -0.027217  0.131919  0.071892  0.300597  0.268746
  1H   2pz        0.109175 -0.542339 -0.151414 -0.145548 -0.039753  0.059272
  1H   2px       -0.070152  0.542339  0.038058 -0.139278  0.157621 -0.106601
  1H   2py       -0.004853  0.542339 -0.171668  0.100628  0.078071  0.165874
  2H   1s         1.132191 -0.886801 -0.358192  0.184095  0.100381  0.000000
  2H   2s        -2.217435  2.873585  1.929569 -0.991712 -0.540751 -0.000000
  2H   3s         0.087736  0.515040  0.047193 -0.024255 -0.013226  0.000000
  2H   1pz        0.042073 -0.027217  0.284472 -0.062107 -0.167772 -0.096032
  2H   1px       -0.023610  0.027217 -0.212315  0.243414  0.092744  0.172714
  2H   1py        0.050430 -0.027217  0.315188 -0.111799  0.032965  0.268746
  2H   2pz       -0.492134  0.542339  0.063448 -0.164726  0.120543 -0.059272
  2H   2px        0.531156 -0.542339 -0.176804 -0.120100 -0.002676  0.106601
  2H   2py       -0.474470  0.542339  0.015194 -0.086662 -0.194807  0.165874
  3H   1s        -0.228990 -0.886801  0.074614 -0.310993  0.264546 -0.000000
  3H   2s         0.448485  2.873585 -0.401944  1.675312 -1.425101  0.000000
  3H   3s        -0.017745  0.515040 -0.009831  0.040974 -0.034855  0.000000
  3H   1pz        0.016136 -0.027217  0.046435  0.210185 -0.258061 -0.096032
  3H   1px       -0.006401 -0.027217 -0.056351  0.313206 -0.107961 -0.172714
  3H   1py        0.033220  0.027217  0.159224 -0.181591  0.233670 -0.268746
  3H   2pz        0.151628  0.542339 -0.179255  0.112903  0.028485 -0.059272
  3H   2px        0.103993  0.542339 -0.017783 -0.048939 -0.207315 -0.106601
  3H   2py       -0.047306 -0.542339 -0.143827 -0.157823  0.009832 -0.165874
  4H   1s        -1.042428 -0.886801  0.308544  0.276794  0.021307 -0.000000
  4H   2s         2.041631  2.873585 -1.662119 -1.491083 -0.114778  0.000000
  4H   3s        -0.080780  0.515040 -0.040652 -0.036469 -0.002807  0.000000
  4H   1pz        0.040362  0.027217  0.257167  0.191376 -0.100846  0.096032
  4H   1px        0.017825  0.027217  0.154381  0.294397  0.049254  0.172714
  4H   1py        0.048719  0.027217  0.287883  0.141684  0.099891 -0.268746
  4H   2pz       -0.449681 -0.542339  0.035607  0.093726  0.188782  0.059272
  4H   2px       -0.497316 -0.542339  0.197079 -0.068117 -0.047019  0.106601
  4H   2py       -0.432017 -0.542339 -0.012647  0.171789 -0.126568 -0.165874
                     42        43        44        45        46        47   
                   3.58574   3.95958   3.95958   3.95958   4.14750   4.14750
                   0.00000   0.00000   0.00000   0.00000   0.00000   0.00000
                  --------  --------  --------  --------  --------  --------
  0C   1s         0.000000 -0.000000 -0.000000 -0.000000 -0.000000  0.000000
  0C   2s         0.000000 -0.000000 -0.000000 -0.000000 -0.000000  0.000000
  0C   1pz       -0.000000 -0.882794  0.266742 -1.007243 -0.000000  0.000000
  0C   1px        0.000000  0.063220  1.331428  0.297186 -0.000000 -0.000000
  0C   1py        0.000000 -1.040045 -0.145480  0.873016 -0.000000 -0.000000
  0C   3s        -0.000000  0.000000  0.000000  0.000000  0.000000 -0.000000
  0C   2pz        0.000000  2.079181 -0.628239  2.372288  0.000000 -0.000000
  0C   2px       -0.000000 -0.148897 -3.135816 -0.699940  0.000000  0.000000
  0C   2py       -0.000000  2.449544  0.342639 -2.056152  0.000000  0.000000
  0C   4s        -0.000000  0.000000 -0.000000  0.000000  0.000000 -0.000000
  0C   3pz       -0.000000  1.188221 -0.359029  1.355728  0.000000 -0.000000
  0C   3px       -0.000000 -0.085092 -1.792072 -0.400005  0.000000  0.000000
  0C   3py       -0.000000  1.399878  0.195813 -1.175061  0.000000  0.000000
  0C   1dz2       0.872364 -0.000000  0.000000 -0.000000  0.000000  0.000000
  0C   1dxz       0.000000  0.073930  0.010341 -0.062057  0.000000 -0.000000
  0C   1dyz       0.000000 -0.004494 -0.094642 -0.021125 -0.000000  0.000000
  0C   1dx2y2    -0.328689  0.000000  0.000000  0.000000  0.000000  0.000000
  0C   1dxy       0.000000  0.062752 -0.018961  0.071598 -0.000000  0.000000
  0C   2dz2      -1.117069  0.000000 -0.000000  0.000000 -0.000000 -0.000000
  0C   2dxz      -0.000000  0.890912  0.124620 -0.747833  0.000000  0.000000
  0C   2dyz      -0.000000 -0.054155 -1.140513 -0.254572  0.000000  0.000000
  0C   2dx2y2     0.420889 -0.000000 -0.000000 -0.000000 -0.000000 -0.000000
  0C   2dxy      -0.000000  0.756209 -0.228494  0.862814  0.000000 -0.000000
  1H   1s        -0.000000  0.003160 -0.030892 -0.073179 -0.000000 -0.000000
  1H   2s         0.000000  0.129077 -1.261793 -2.988980  0.000000  0.000000
  1H   3s        -0.000000  0.035286 -0.344934 -0.817091  0.000000  0.000000
  1H   1pz        0.254877  0.149551 -0.144657 -0.084487 -0.566559 -0.282127
  1H   1px        0.210605 -0.020458 -0.107076  0.196330 -0.526537  0.351526
  1H   1py        0.044272  0.153321  0.125556  0.105629 -0.040023 -0.633653
  1H   2pz        0.157313 -0.288482  0.544828  0.844673  0.406998  0.202671
  1H   2px        0.129988  0.065510 -0.110032 -1.037850  0.378247 -0.252525
  1H   2py        0.027325 -0.234643 -0.511837 -0.881190  0.028751  0.455196
  2H   1s         0.000000  0.066747  0.040671  0.014499  0.000000 -0.000000
  2H   2s        -0.000000  2.726264  1.661195  0.592201 -0.000000  0.000000
  2H   3s         0.000000  0.745273  0.454117  0.161889 -0.000000  0.000000
  2H   1pz       -0.254877 -0.082718 -0.177146  0.110481  0.115732 -0.327334
  2H   1px       -0.210605  0.211812 -0.074586  0.001362  0.155755  0.306319
  2H   1py        0.044272 -0.057949 -0.112216 -0.185684  0.040023  0.633653
  2H   2pz       -0.157313  0.780202  0.694314 -0.052383 -0.083138  0.235146
  2H   2px       -0.129988 -1.003174 -0.259518 -0.140794 -0.111890 -0.220050
  2H   2py        0.027325  0.737420  0.582165  0.459158 -0.028751 -0.455196
  3H   1s         0.000000 -0.007410 -0.058600  0.053203 -0.000000  0.000000
  3H   2s        -0.000000 -0.302641 -2.393510  2.173086  0.000000 -0.000000
  3H   3s         0.000000 -0.082732 -0.654309  0.594052  0.000000 -0.000000
  3H   1pz       -0.254877  0.163670  0.152686 -0.018117 -0.115732  0.327334
  3H   1px        0.210605  0.014661 -0.015015 -0.223582  0.526537 -0.351526
  3H   1py       -0.044272  0.139202 -0.171787  0.039260  0.410804 -0.024192
  3H   2pz       -0.157313 -0.353443 -0.823262  0.539303  0.083138 -0.235146
  3H   2px        0.129988 -0.096072 -0.533605  0.894185 -0.378247  0.252525
  3H   2py       -0.027325 -0.169682  0.856253 -0.575821 -0.295109  0.017379
  4H   1s        -0.000000 -0.062498  0.048822  0.005477  0.000000  0.000000
  4H   2s         0.000000 -2.552701  1.994108  0.223693 -0.000000 -0.000000
  4H   3s        -0.000000 -0.697826  0.545125  0.061151 -0.000000 -0.000000
  4H   1pz        0.254877 -0.068600  0.120197  0.176850  0.566559  0.282127
  4H   1px       -0.210605 -0.217609 -0.047505 -0.028614 -0.155755 -0.306319
  4H   1py       -0.044272 -0.043831  0.185127 -0.119315 -0.410804  0.024192
  4H   2pz        0.157313  0.715241 -0.673776 -0.357752 -0.406998 -0.202671
  4H   2px       -0.129988  0.972613 -0.384119 -0.002871  0.111890  0.220050
  4H   2py       -0.027325  0.672460 -0.785925  0.153789  0.295109 -0.017379
                     48        49        50        51        52        53   
                   4.14750   4.46228   4.46228   4.46228   4.46400   4.46400
                   0.00000   0.00000   0.00000   0.00000   0.00000   0.00000
                  --------  --------  --------  --------  --------  --------
  0C   1s         0.000000  0.000000  0.000000  0.000000 -0.000000  0.000000
  0C   2s         0.000000  0.000000  0.000000  0.000000 -0.000000  0.000000
  0C   1pz       -0.000000  0.120108 -0.471786  0.170014  0.000000 -0.000000
  0C   1px        0.000000 -0.303909 -0.207539 -0.361219 -0.000000 -0.000000
  0C   1py       -0.000000 -0.398906  0.016064  0.326387  0.000000 -0.000000
  0C   3s        -0.000000 -0.000000 -0.000000 -0.000000  0.000000 -0.000000
  0C   2pz       -0.000000 -0.285427  1.121164 -0.404025 -0.000000  0.000000
  0C   2px       -0.000000  0.722217  0.493202  0.858410  0.000000  0.000000
  0C   2py        0.000000  0.947970 -0.038174 -0.775635 -0.000000  0.000000
  0C   4s        -0.000000  0.000000  0.000000  0.000000 -0.000000  0.000000
  0C   3pz       -0.000000  0.144457 -0.567429  0.204480  0.000000 -0.000000
  0C   3px       -0.000000 -0.365519 -0.249613 -0.434447 -0.000000 -0.000000
  0C   3py        0.000000 -0.479774  0.019320  0.392554  0.000000 -0.000000
  0C   1dz2       0.000000 -0.000000 -0.000000 -0.000000 -0.265604  0.703298
  0C   1dxz       0.000000 -0.102185  0.004115  0.083608  0.000000 -0.000000
  0C   1dyz       0.000000 -0.077850 -0.053164 -0.092531 -0.000000 -0.000000
  0C   1dx2y2     0.000000  0.000000  0.000000  0.000000 -0.703298 -0.265604
  0C   1dxy       0.000000  0.030767 -0.120854  0.043551  0.000000 -0.000000
  0C   2dz2      -0.000000  0.000000  0.000000  0.000000  0.289255 -0.765922
  0C   2dxz       0.000000  0.438459 -0.017656 -0.358749 -0.000000  0.000000
  0C   2dyz      -0.000000  0.334043  0.228117  0.397035  0.000000  0.000000
  0C   2dx2y2    -0.000000 -0.000000 -0.000000 -0.000000  0.765922  0.289255
  0C   2dxy      -0.000000 -0.132017  0.518565 -0.186871 -0.000000  0.000000
  1H   1s         0.000000  0.029437 -0.010027  0.007327  0.000000  0.000000
  1H   2s        -0.000000  0.811621 -0.276460  0.202032  0.000000  0.000000
  1H   3s        -0.000000 -0.189538  0.064562 -0.047181 -0.000000 -0.000000
  1H   1pz        0.050378 -0.252490 -0.547967  0.143311  0.148788 -0.393979
  1H   1px        0.048079 -0.017949 -0.451568 -0.424643 -0.266802 -0.325844
  1H   1py        0.002300 -0.157723 -0.122566  0.587076  0.415590 -0.068135
  1H   2pz       -0.036190 -0.131328  0.560937 -0.200555 -0.145379  0.384952
  1H   2px       -0.034538  0.351529  0.252920  0.429626  0.260688  0.318378
  1H   2py       -0.001652  0.465338 -0.014965 -0.394152 -0.406068  0.066574
  2H   1s        -0.000000 -0.000898  0.008878 -0.030678 -0.000000 -0.000000
  2H   2s         0.000000 -0.024766  0.244774 -0.845842 -0.000000 -0.000000
  2H   3s         0.000000  0.005784 -0.057162  0.197529  0.000000  0.000000
  2H   1pz       -0.531584  0.163625 -0.564724 -0.197157 -0.148788  0.393979
  2H   1px       -0.533884 -0.434064 -0.434811 -0.084175  0.266802  0.325844
  2H   1py       -0.002300 -0.600033  0.153080  0.032925  0.415590 -0.068135
  2H   2pz        0.381873 -0.143510  0.561427 -0.190587  0.145379 -0.384952
  2H   2px        0.383525  0.363711  0.252429  0.419658 -0.260688 -0.318378
  2H   2py        0.001652  0.478287 -0.023035 -0.377928 -0.406068  0.066574
  3H   1s         0.000000 -0.007694  0.024875  0.018515  0.000000  0.000000
  3H   2s        -0.000000 -0.212150  0.685839  0.510484  0.000000  0.000000
  3H   3s        -0.000000  0.049543 -0.160164 -0.119213 -0.000000 -0.000000
  3H   1pz        0.531584  0.064530 -0.331474  0.520113 -0.148788  0.393979
  3H   1px       -0.048079 -0.559353  0.057328 -0.261524 -0.266802 -0.325844
  3H   1py        0.483505 -0.474744 -0.339059  0.210273 -0.415590  0.068135
  3H   2pz       -0.381873 -0.140609  0.554598 -0.211586  0.145379 -0.384952
  3H   2px        0.034538  0.367379  0.238021  0.424850  0.260688  0.318378
  3H   2py       -0.347335  0.474619 -0.008627 -0.383120  0.406068 -0.066574
  4H   1s        -0.000000 -0.020844 -0.023725  0.004836 -0.000000 -0.000000
  4H   2s         0.000000 -0.574704 -0.654152  0.133325 -0.000000 -0.000000
  4H   3s        -0.000000  0.134211  0.152764 -0.031135  0.000000  0.000000
  4H   1pz       -0.050378  0.480645 -0.348231  0.179645  0.148788 -0.393979
  4H   1px        0.533884 -0.143238  0.040572 -0.601992  0.266802  0.325844
  4H   1py       -0.483505 -0.283013  0.369573  0.409728 -0.415590  0.068135
  4H   2pz        0.036190 -0.152791  0.555089 -0.201619 -0.145379  0.384952
  4H   2px       -0.383525  0.355197  0.238512  0.434818 -0.260688 -0.318378
  4H   2py        0.347335  0.469006 -0.029373 -0.388960  0.406068 -0.066574
                     54        55        56        57        58   
                   4.48899   5.45292   5.45292   5.45292  25.19753
                   0.00000   0.00000   0.00000   0.00000   0.00000
                  --------  --------  --------  --------  --------
  0C   1s         0.074095 -0.000000 -0.000000 -0.000000 -2.040226
  0C   2s         0.109612 -0.000000 -0.000000 -0.000000  2.242827
  0C   1pz        0.000000 -0.255326  0.114337 -0.271615  0.000000
  0C   1px        0.000000  0.049314  0.370888  0.109769 -0.000000
  0C   1py        0.000000 -0.290544 -0.037526  0.257323 -0.000000
  0C   3s        -0.267147  0.000000  0.000000  0.000000 -0.842009
  0C   2pz       -0.000000  0.967773 -0.433375  1.029514 -0.000000
  0C   2px       -0.000000 -0.186918 -1.405793 -0.416062  0.000000
  0C   2py       -0.000000  1.101261  0.142238 -0.975342  0.000000
  0C   4s         1.189379  0.000000 -0.000000  0.000000 -0.874341
  0C   3pz        0.000000  0.089440 -0.040052  0.095145 -0.000000
  0C   3px        0.000000 -0.017275 -0.129920 -0.038452  0.000000
  0C   3py        0.000000  0.101776  0.013145 -0.090139  0.000000
  0C   1dz2      -0.000000  0.000000  0.000000  0.000000 -0.000000
  0C   1dxz       0.000000  0.700566  0.090484 -0.620463  0.000000
  0C   1dyz       0.000000 -0.118908 -0.894294 -0.264677  0.000000
  0C   1dx2y2    -0.000000 -0.000000 -0.000000 -0.000000 -0.000000
  0C   1dxy       0.000000  0.615648 -0.275691  0.654925 -0.000000
  0C   2dz2       0.000000  0.000000 -0.000000  0.000000 -0.000000
  0C   2dxz      -0.000000  0.090417  0.011678 -0.080078  0.000000
  0C   2dyz      -0.000000 -0.015346 -0.115419 -0.034160  0.000000
  0C   2dx2y2     0.000000  0.000000  0.000000 -0.000000 -0.000000
  0C   2dxy      -0.000000  0.079457 -0.035581  0.084526 -0.000000
  1H   1s        -0.004465 -0.006122 -0.095123 -0.277392 -0.036989
  1H   2s        -0.003427 -0.019795 -0.307571 -0.896919  0.408806
  1H   3s        -0.240394  0.006115  0.095015  0.277076  0.065892
  1H   1pz       -0.373236  0.027657  0.195934  0.606026 -0.031832
  1H   1px        0.373236 -0.015857 -0.223728 -0.596755  0.031832
  1H   1py        0.373236  0.003611 -0.200333 -0.605207  0.031832
  1H   2pz        0.210854 -0.115988  0.075655 -0.057748 -0.111660
  1H   2px       -0.210854  0.021205  0.147590 -0.016716  0.111660
  1H   2py       -0.210854 -0.135159 -0.040316  0.051172  0.111660
  2H   1s        -0.004465  0.258490  0.127719  0.053880 -0.036989
  2H   2s        -0.003427  0.835802  0.412966  0.174216  0.408806
  2H   3s        -0.240394 -0.258196 -0.127573 -0.053819  0.065892
  2H   1pz        0.373236  0.564857  0.265318  0.130249  0.031832
  2H   1px       -0.373236 -0.553057 -0.293112 -0.120979 -0.031832
  2H   1py        0.373236  0.566875  0.274017  0.099952  0.031832
  2H   2pz       -0.210854 -0.054834  0.083554 -0.111910  0.111660
  2H   2px        0.210854 -0.039949  0.139691  0.037447 -0.111660
  2H   2py       -0.210854 -0.071037  0.013684  0.131447  0.111660
  3H   1s        -0.004465 -0.036712 -0.227032  0.182046 -0.036989
  3H   2s        -0.003427 -0.118706 -0.734086  0.588628  0.408806
  3H   3s        -0.240394  0.036671  0.226774 -0.181839  0.065892
  3H   1pz        0.373236 -0.063522 -0.489819  0.403069  0.031832
  3H   1px        0.373236 -0.080972 -0.504514  0.381223  0.031832
  3H   1py       -0.373236  0.094790  0.485419 -0.402250 -0.031832
  3H   2pz       -0.210854 -0.126368 -0.002411 -0.080852  0.111660
  3H   2px       -0.210854  0.013793  0.115625  0.094617  0.111660
  3H   2py        0.210854 -0.124779  0.037750  0.074277 -0.111660
  4H   1s        -0.004465 -0.215655  0.194436  0.041466 -0.036989
  4H   2s        -0.003427 -0.697300  0.628691  0.134075  0.408806
  4H   3s        -0.240394  0.215410 -0.194215 -0.041419  0.065892
  4H   1pz       -0.373236  0.473678 -0.420435 -0.072707 -0.031832
  4H   1px       -0.373236  0.456228 -0.435130 -0.094553 -0.031832
  4H   1py       -0.373236  0.475695 -0.411736 -0.103005 -0.031832
  4H   2pz        0.210854 -0.065214  0.005488 -0.135014 -0.111660
  4H   2px        0.210854  0.074947  0.123524  0.040455 -0.111660
  4H   2py        0.210854 -0.081417 -0.064382  0.108342 -0.111660

                      0         1         2         3         4         5   
                 -11.20331  -0.94448  -0.54599  -0.54599  -0.54599   0.14983
                   1.00000   1.00000   1.00000   1.00000   1.00000   0.00000
                  --------  --------  --------  --------  --------  --------
  0C   1s         0.563295 -0.102803 -0.000000 -0.000000  0.000000  0.045795
  0C   2s         0.466513 -0.170211 -0.000000 -0.000000  0.000000  0.081385
  0C   1pz       -0.000000  0.000000 -0.152699 -0.030221  0.112267  0.000000
  0C   1px        0.000000 -0.000000 -0.006502  0.187255  0.041563 -0.000000
  0C   1py        0.000000 -0.000000  0.116081 -0.029266  0.150010 -0.000000
  0C   3s         0.005016  0.421919  0.000000  0.000000 -0.000000 -0.179134
  0C   2pz        0.000000  0.000000 -0.229803 -0.045480  0.168954 -0.000000
  0C   2px       -0.000000 -0.000000 -0.009785  0.281807  0.062550  0.000000
  0C   2py       -0.000000 -0.000000  0.174694 -0.044043  0.225755  0.000000
  0C   4s         0.001444  0.210922  0.000000  0.000000 -0.000000 -3.401675
  0C   3pz        0.000000  0.000000 -0.141205 -0.027946  0.103816 -0.000000
  0C   3px       -0.000000 -0.000000 -0.006012  0.173159  0.038434 -0.000000
  0C   3py       -0.000000 -0.000000  0.107343 -0.027063  0.138717 -0.000000
  0C   1dz2       0.000000  0.000000 -0.000000 -0.000000  0.000000  0.000000
  0C   1dxz      -0.000000 -0.000000  0.011356 -0.002863  0.014676  0.000000
  0C   1dyz      -0.000000 -0.000000 -0.000636  0.018320  0.004066  0.000000
  0C   1dx2y2     0.000000  0.000000 -0.000000  0.000000  0.000000  0.000000
  0C   1dxy       0.000000 -0.000000 -0.014939 -0.002957  0.010983 -0.000000
  0C   2dz2       0.000000  0.000000 -0.000000 -0.000000  0.000000 -0.000000
  0C   2dxz      -0.000000 -0.000000  0.011352 -0.002862  0.014670  0.000000
  0C   2dyz      -0.000000 -0.000000 -0.000636  0.018312  0.004065  0.000000
  0C   2dx2y2     0.000000  0.000000 -0.000000  0.000000  0.000000 -0.000000
  0C   2dxy       0.000000  0.000000 -0.014933 -0.002955  0.010979  0.000000
  1H   1s         0.000453  0.083529 -0.138884 -0.099662 -0.041995 -0.012075
  1H   2s        -0.000567  0.118705 -0.220388 -0.158150 -0.066640  0.243196
  1H   3s        -0.000097  0.016481 -0.103754 -0.074453 -0.031372  0.951842
  1H   1pz       -0.000068 -0.005254  0.004358  0.004977  0.005011  0.010208
  1H   1px        0.000068  0.005254 -0.008069 -0.001317 -0.001425 -0.010208
  1H   1py        0.000068  0.005254 -0.005212 -0.006364  0.001103 -0.010208
  1H   2pz        0.000235 -0.009462  0.005319  0.008405  0.010769 -0.096097
  1H   2px       -0.000235  0.009462 -0.014524  0.000674 -0.001875  0.096097
  1H   2py       -0.000235  0.009462 -0.007436 -0.011845  0.004395  0.096097
  2H   1s         0.000453  0.083529  0.015948  0.130656 -0.116874 -0.012075
[...]
   18. RY ( 9) C  1             0.00076
   19. RY (10) C  1             0.00016
   20. RY (11) C  1             0.00014
   21. RY (12) C  1             0.00014
   22. RY (13) C  1             0.00014
   23. RY (14) C  1             0.00009
   24. RY (15) C  1             0.00009
   25. RY (16) C  1             0.00009
   26. RY (17) C  1             0.00009
   27. RY (18) C  1             0.00009
   28. RY ( 1) H  2             0.00133
   29. RY ( 2) H  2             0.00060
   30. RY ( 3) H  2             0.00060
   31. RY ( 4) H  2             0.00025
   32. RY ( 5) H  2             0.00010
   33. RY ( 6) H  2             0.00007
   34. RY ( 7) H  2             0.00007
   35. RY ( 8) H  2             0.00004
   36. RY ( 1) H  3             0.00133
   37. RY ( 2) H  3             0.00060
   38. RY ( 3) H  3             0.00060
   39. RY ( 4) H  3             0.00025
   40. RY ( 5) H  3             0.00010
   41. RY ( 6) H  3             0.00007
   42. RY ( 7) H  3             0.00007
   43. RY ( 8) H  3             0.00004
   44. RY ( 1) H  4             0.00133
   45. RY ( 2) H  4             0.00060
   46. RY ( 3) H  4             0.00060
   47. RY ( 4) H  4             0.00025
   48. RY ( 5) H  4             0.00010
   49. RY ( 6) H  4             0.00007
   50. RY ( 7) H  4             0.00007
   51. RY ( 8) H  4             0.00004
   52. RY ( 1) H  5             0.00133
   53. RY ( 2) H  5             0.00060
   54. RY ( 3) H  5             0.00060
   55. RY ( 4) H  5             0.00025
   56. RY ( 5) H  5             0.00010
   57. RY ( 6) H  5             0.00007
   58. RY ( 7) H  5             0.00007
   59. RY ( 8) H  5             0.00004
          -------------------------------
                 Total Lewis    4.93953  ( 98.7906%)
           Valence non-Lewis    0.02774  (  0.5548%)
           Rydberg non-Lewis    0.03273  (  0.6545%)
          -------------------------------
               Total unit  1    5.00000  (100.0000%)
              Charge unit  1    0.00000

 $CHOOSE
  ALPHA
   BOND S 1 2 S 1 3 S 1 4 S 1 5 END
  END
  BETA
   BOND S 1 2 S 1 3 S 1 4 S 1 5 END
  END
 $END

 NBO analysis completed in 0.12 CPU seconds (1 wall second)
 Maximum scratch memory used by NBO was 349272 words (2.66 MB)
Stopping NBO...Storing NBOs: methane.pmp2re.nbo

                                *** returned from   NBO  program ***


----------------------------------
MP2 DERIVATIVE INTEGRAL GENERATION
----------------------------------


Input Wavefunction Amplitudes       ... methane.mp2tbb.tmp
Input Correlated Electron Density   ... methane.pmp2re
Input Energy Weighted Density       ... methane.wmp2.tmp
Input SCF Electron Density          ... methane.scfp

One-Electron Terms    ...
                        ... One-Electron Terms done
Prescreening matrices              ... done

Batch handling in the gradient evaluation:
Memory available                      ... 3000.0 MB
Memory per occupied orbital in Q2     ...    0.3 MB
Memory per occupied orbital in Q3     ...    0.0 MB
Total memory requirement per |i>      ...    0.3 MB
Max. Number of orbitals possible      ...  10836
Number of orbitals treated per batch  ...     10
Number of batches to be done          ...      1
Batch   0: i=    0 ...     9

---------------------------------------
MP2 TOTAL ENERGY:      -40.414071235 Eh
---------------------------------------

-----------------------------------
NORM OF THE MP2 GRADIENT:  0.000000
-----------------------------------

-------------------------   --------------------
FINAL SINGLE POINT ENERGY       -40.414071235330
-------------------------   --------------------

                                *** OPTIMIZATION RUN DONE ***

                            ***************************************
                            *     ORCA property calculations      *
                            ***************************************

                                    ---------------------
                                    Active property flags
                                    ---------------------
   (+) Dipole Moment


------------------------------------------------------------------------------
                       ORCA ELECTRIC PROPERTIES CALCULATION
------------------------------------------------------------------------------

Dipole Moment Calculation                       ... on
Quadrupole Moment Calculation                   ... off
Polarizability Calculation                      ... off
GBWName                                         ... methane.gbw
Electron density file                           ... methane.scfp
The origin for moment calculation is the CENTER OF MASS  = (-0.000000, -0.000000 -0.000000)

-------------
DIPOLE MOMENT
-------------
                                X             Y             Z
Electronic contribution:     -0.00000      -0.00000      -0.00000
Nuclear contribution   :      0.00000       0.00000       0.00000
                        -----------------------------------------
Total Dipole Moment    :     -0.00000       0.00000       0.00000
                        -----------------------------------------
Magnitude (a.u.)       :      0.00000
Magnitude (Debye)      :      0.00000



--------------------
Rotational spectrum 
--------------------
 
Rotational constants in cm-1:     5.350882     5.350882     5.350882 
Rotational constants in MHz : 160415.393914 160415.393911 160415.393907 

 Dipole components along the rotational axes: 
x,y,z [a.u.] :     0.000000     0.000000     0.000000 
x,y,z [Debye]:     0.000000     0.000000     0.000000 

 

                         *** MP2 UNRELAXED DENSITY ***

------------------------------------------------------------------------------
                       ORCA ELECTRIC PROPERTIES CALCULATION
------------------------------------------------------------------------------

Dipole Moment Calculation                       ... on
Quadrupole Moment Calculation                   ... off
Polarizability Calculation                      ... off
GBWName                                         ... methane.gbw
Electron density file                           ... methane.pmp2ur
The origin for moment calculation is the CENTER OF MASS  = (-0.000000, -0.000000 -0.000000)

-------------
DIPOLE MOMENT
-------------
                                X             Y             Z
Electronic contribution:     -0.00000      -0.00000      -0.00000
Nuclear contribution   :      0.00000       0.00000       0.00000
                        -----------------------------------------
Total Dipole Moment    :     -0.00000       0.00000       0.00000
                        -----------------------------------------
Magnitude (a.u.)       :      0.00000
Magnitude (Debye)      :      0.00000



--------------------
Rotational spectrum 
--------------------
 
Rotational constants in cm-1:     5.350882     5.350882     5.350882 
Rotational constants in MHz : 160415.393914 160415.393911 160415.393907 

 Dipole components along the rotational axes: 
x,y,z [a.u.] :     0.000000     0.000000     0.000000 
x,y,z [Debye]:     0.000000     0.000000     0.000000 

 

                           *** MP2 RELAXED DENSITY ***

------------------------------------------------------------------------------
                       ORCA ELECTRIC PROPERTIES CALCULATION
------------------------------------------------------------------------------

Dipole Moment Calculation                       ... on
Quadrupole Moment Calculation                   ... off
Polarizability Calculation                      ... off
GBWName                                         ... methane.gbw
Electron density file                           ... methane.pmp2re
The origin for moment calculation is the CENTER OF MASS  = (-0.000000, -0.000000 -0.000000)

-------------
DIPOLE MOMENT
-------------
                                X             Y             Z
Electronic contribution:     -0.00000      -0.00000      -0.00000
Nuclear contribution   :      0.00000       0.00000       0.00000
                        -----------------------------------------
Total Dipole Moment    :     -0.00000       0.00000       0.00000
                        -----------------------------------------
Magnitude (a.u.)       :      0.00000
Magnitude (Debye)      :      0.00000



--------------------
Rotational spectrum 
--------------------
 
Rotational constants in cm-1:     5.350882     5.350882     5.350882 
Rotational constants in MHz : 160415.393914 160415.393911 160415.393907 

 Dipole components along the rotational axes: 
x,y,z [a.u.] :     0.000000     0.000000    -0.000000 
x,y,z [Debye]:     0.000000     0.000000    -0.000000 

 
------------------------------------------------------------------------------
                         ORCA MP2 H E S S I A N CALCULATION
------------------------------------------------------------------------------

Calculating analytic MP2 second derivatives ... (>methane.last_mp2) done

-----------------------
VIBRATIONAL FREQUENCIES
-----------------------

Scaling factor for frequencies =  1.000000000  (already applied!)

   0:         0.00 cm**-1
   1:         0.00 cm**-1
   2:         0.00 cm**-1
   3:         0.00 cm**-1
   4:         0.00 cm**-1
   5:         0.00 cm**-1
   6:      1371.33 cm**-1
   7:      1371.33 cm**-1
   8:      1371.33 cm**-1
   9:      1601.61 cm**-1
  10:      1601.61 cm**-1
  11:      3092.89 cm**-1
  12:      3220.96 cm**-1
  13:      3220.96 cm**-1
  14:      3220.96 cm**-1


------------
NORMAL MODES
------------

These modes are the Cartesian displacements weighted by the diagonal matrix
M(i,i)=1/sqrt(m[i]) where m[i] is the mass of the displaced atom
Thus, these vectors are normalized but *not* orthogonal

                  0          1          2          3          4          5    
      0       0.000000   0.000000   0.000000   0.000000   0.000000   0.000000
      1       0.000000   0.000000   0.000000   0.000000   0.000000   0.000000
      2       0.000000   0.000000   0.000000   0.000000   0.000000   0.000000
      3       0.000000   0.000000   0.000000   0.000000   0.000000   0.000000
      4       0.000000   0.000000   0.000000   0.000000   0.000000   0.000000
      5       0.000000   0.000000   0.000000   0.000000   0.000000   0.000000
      6       0.000000   0.000000   0.000000   0.000000   0.000000   0.000000
      7       0.000000   0.000000   0.000000   0.000000   0.000000   0.000000
      8       0.000000   0.000000   0.000000   0.000000   0.000000   0.000000
      9       0.000000   0.000000   0.000000   0.000000   0.000000   0.000000
     10       0.000000   0.000000   0.000000   0.000000   0.000000   0.000000
     11       0.000000   0.000000   0.000000   0.000000   0.000000   0.000000
     12       0.000000   0.000000   0.000000   0.000000   0.000000   0.000000
     13       0.000000   0.000000   0.000000   0.000000   0.000000   0.000000
     14       0.000000   0.000000   0.000000   0.000000   0.000000   0.000000
                  6          7          8          9         10         11    
      0      -0.033399   0.089075  -0.080585   0.000000  -0.000000  -0.000000
      1       0.098331  -0.027763  -0.071442  -0.000000   0.000000   0.000000
      2      -0.068988  -0.082695  -0.062816   0.000000   0.000000   0.000000
      3       0.411614  -0.162875   0.223964  -0.003285   0.408235   0.288675
      4      -0.226530   0.403132   0.179675   0.355184  -0.201273   0.288675
      5       0.084382   0.131970   0.470720   0.351899   0.206963  -0.288675
      6       0.044754  -0.059294   0.490505   0.003285  -0.408235  -0.288674
      7      -0.359309  -0.237722   0.245966   0.355185  -0.201272   0.288674
      8       0.451242   0.028388   0.204179  -0.351900  -0.206963   0.288674
      9      -0.212630  -0.367820   0.256146  -0.003285   0.408235   0.288675
     10      -0.101924   0.070804   0.480325  -0.355185   0.201273  -0.288675
     11      -0.040224   0.464298   0.170070  -0.351899  -0.206963   0.288675
     12       0.154229  -0.471402  -0.010395   0.003285  -0.408235  -0.288676
     13      -0.483915   0.094606  -0.054685  -0.355184   0.201273  -0.288676
     14       0.326636   0.360717  -0.096472   0.351899   0.206962  -0.288676
                  12         13         14    
      0       0.073014   0.004996  -0.056333
      1       0.044220  -0.062392   0.051781
      2       0.035256   0.067910   0.051718
      3      -0.245983   0.399083   0.167609
      4      -0.251686   0.385736   0.189022
      5       0.267426  -0.384644  -0.168523
      6       0.034988   0.002648   0.496626
      7      -0.011770  -0.014016  -0.497527
      8      -0.013545   0.011791  -0.497540
      9      -0.189025  -0.428847   0.168012
     10       0.212243   0.417479  -0.168913
     11      -0.196503  -0.416386   0.189412
     12      -0.469995  -0.032412  -0.161002
     13      -0.475697  -0.045758  -0.139589
     14      -0.477473  -0.019951  -0.139602


-----------
IR SPECTRUM
-----------

 Mode    freq (cm**-1)   T**2         TX         TY         TZ
-------------------------------------------------------------------
   6:      1371.33   11.256582  (  0.898782  -2.646155   1.856513)
   7:      1371.33   11.256575  ( -2.397077   0.747131   2.225397)
   8:      1371.33   11.256652  (  2.168596   1.922568   1.690437)
   9:      1601.61    0.000000  ( -0.000000   0.000001  -0.000001)
  10:      1601.61    0.000000  (  0.000001   0.000001  -0.000001)
  11:      3092.89    0.000000  (  0.000009   0.000023   0.000026)
  12:      3220.96   18.722404  (  3.420801   2.071756   1.651772)
  13:      3220.96   18.722309  (  0.234055  -2.923126   3.181645)
  14:      3220.96   18.722293  ( -2.639254   2.426006   2.423040)

The first frequency considered to be a vibration is 6
The total number of vibrations considered is 9


--------------------------
THERMOCHEMISTRY AT 298.15K
--------------------------

Temperature         ... 298.15 K
Pressure            ... 1.00 atm
Total Mass          ... 16.04 AMU

Throughout the following assumptions are being made:
  (1) The electronic state is orbitally nondegenerate
  (2) There are no thermally accessible electronically excited states
  (3) Hindered rotations indicated by low frequency modes are not
      treated as such but are treated as vibrations and this may
      cause some error
  (4) All equations used are the standard statistical mechanics
      equations for an ideal gas
  (5) All vibrations are strictly harmonic

freq.    1371.33  E(vib)   ...       0.01 
freq.    1371.33  E(vib)   ...       0.01 
freq.    1371.33  E(vib)   ...       0.01 
freq.    1601.61  E(vib)   ...       0.00 
freq.    1601.61  E(vib)   ...       0.00 
freq.    3092.89  E(vib)   ...       0.00 
freq.    3220.96  E(vib)   ...       0.00 
freq.    3220.96  E(vib)   ...       0.00 
freq.    3220.96  E(vib)   ...       0.00 

------------
INNER ENERGY
------------

The inner energy is: U= E(el) + E(ZPE) + E(vib) + E(rot) + E(trans)
    E(el)   - is the total energy from the electronic structure calculation
              = E(kin-el) + E(nuc-el) + E(el-el) + E(nuc-nuc)
    E(ZPE)  - the the zero temperature vibrational energy from the frequency calculation
    E(vib)  - the the finite temperature correction to E(ZPE) due to population
              of excited vibrational states
    E(rot)  - is the rotational thermal energy
    E(trans)- is the translational thermal energy

Summary of contributions to the inner energy U:
Electronic energy                ...    -40.41407124 Eh
Zero point energy                ...      0.04572963 Eh      28.70 kcal/mol
Thermal vibrational correction   ...      0.00003153 Eh       0.02 kcal/mol
Thermal rotational correction    ...      0.00141627 Eh       0.89 kcal/mol
Thermal translational correction ...      0.00141627 Eh       0.89 kcal/mol
-----------------------------------------------------------------------
Total thermal energy                    -40.36547753 Eh


Summary of corrections to the electronic energy:
(perhaps to be used in another calculation)
Total thermal correction                  0.00286407 Eh       1.80 kcal/mol
Non-thermal (ZPE) correction              0.04572963 Eh      28.70 kcal/mol
-----------------------------------------------------------------------
Total correction                          0.04859371 Eh      30.49 kcal/mol


--------
ENTHALPY
--------

The enthalpy is H = U + kB*T
                kB is Boltzmann's constant
Total free energy                 ...    -40.36547753 Eh 
Thermal Enthalpy correction       ...      0.00094421 Eh       0.59 kcal/mol
-----------------------------------------------------------------------
Total Enthalpy                    ...    -40.36453332 Eh


Note: Rotational entropy computed according to Herzberg 
Infrared and Raman Spectra, Chapter V,1, Van Nostrand Reinhold, 1945 
Point Group:  Td, Symmetry Number:  12  
Rotational constants in cm-1:     5.350882     5.350882     5.350882 

Vibrational entropy computed according to the QRRHO of S. Grimme
Chem.Eur.J. 2012 18 9955


-------
ENTROPY
-------

The entropy contributions are T*S = T*(S(el)+S(vib)+S(rot)+S(trans))
     S(el)   - electronic entropy
     S(vib)  - vibrational entropy
     S(rot)  - rotational entropy
     S(trans)- translational entropy
The entropies will be listed as mutliplied by the temperature to get
units of energy

Electronic entropy                ...      0.00000000 Eh      0.00 kcal/mol
Vibrational entropy               ...      0.00003616 Eh      0.02 kcal/mol
Rotational entropy                ...      0.00478915 Eh      3.01 kcal/mol
Translational entropy             ...      0.01627961 Eh     10.22 kcal/mol
-----------------------------------------------------------------------
Final entropy term                ...      0.02110492 Eh     13.24 kcal/mol

In case the symmetry of your molecule has not been determined correctly
or in case you have a reason to use a different symmetry number we print 
out the resulting rotational entropy values for sn=1,12 :
 --------------------------------------------------------
|  sn= 1 | S(rot)=       0.00713535 Eh      4.48 kcal/mol|
|  sn= 2 | S(rot)=       0.00648090 Eh      4.07 kcal/mol|
|  sn= 3 | S(rot)=       0.00609806 Eh      3.83 kcal/mol|
|  sn= 4 | S(rot)=       0.00582644 Eh      3.66 kcal/mol|
|  sn= 5 | S(rot)=       0.00561575 Eh      3.52 kcal/mol|
|  sn= 6 | S(rot)=       0.00544361 Eh      3.42 kcal/mol|
|  sn= 7 | S(rot)=       0.00529806 Eh      3.32 kcal/mol|
|  sn= 8 | S(rot)=       0.00517198 Eh      3.25 kcal/mol|
|  sn= 9 | S(rot)=       0.00506078 Eh      3.18 kcal/mol|
|  sn=10 | S(rot)=       0.00496130 Eh      3.11 kcal/mol|
|  sn=11 | S(rot)=       0.00487131 Eh      3.06 kcal/mol|
|  sn=12 | S(rot)=       0.00478915 Eh      3.01 kcal/mol|
 --------------------------------------------------------


-------------------
GIBBS FREE ENERGY
-------------------

The Gibbs free energy is G = H - T*S

Total enthalpy                    ...    -40.36453332 Eh 
Total entropy correction          ...     -0.02110492 Eh    -13.24 kcal/mol
-----------------------------------------------------------------------
Final Gibbs free energy         ...    -40.38563824 Eh

For completeness - the Gibbs free energy minus the electronic energy
G-E(el)                           ...      0.02843299 Eh     17.84 kcal/mol


Timings for individual modules:

Sum of individual times         ...      129.396 sec (=   2.157 min)
GTO integral calculation        ...        5.794 sec (=   0.097 min)   4.5 %
SCF iterations                  ...       22.065 sec (=   0.368 min)  17.1 %
MP2 module                      ...       26.020 sec (=   0.434 min)  20.1 %
Geometry relaxation             ...        0.112 sec (=   0.002 min)   0.1 %
Analytical frequency calculation...       75.405 sec (=   1.257 min)  58.3 %
                             ****ORCA TERMINATED NORMALLY****
TOTAL RUN TIME: 0 days 0 hours 2 minutes 10 seconds 796 msec
