
                                 *****************
                                 * O   R   C   A *
                                 *****************

           --- An Ab Initio, DFT and Semiempirical electronic structure package ---

                  #######################################################
                  #                        -***-                        #
                  #          Department of theory and spectroscopy      #
                  #               Directorship: Frank Neese             #
                  #        Max Planck Institute fuer Kohlenforschung    #
                  #                Kaiser Wilhelm Platz 1               #
                  #                 D-45470 Muelheim/Ruhr               #
                  #                      Germany                        #
                  #                                                     #
                  #                  All rights reserved                #
                  #                        -***-                        #
                  #######################################################


                         Program Version 4.2.1 -  RELEASE  -


 With contributions from (in alphabetic order):
   Daniel Aravena         : Magnetic Suceptibility
   Michael Atanasov       : Ab Initio Ligand Field Theory (pilot matlab implementation)
   Alexander A. Auer      : GIAO ZORA, VPT2
   Ute Becker             : Parallelization
   Giovanni Bistoni       : ED, misc. LED, open-shell LED, HFLD
   Martin Brehm           : Molecular dynamics
   Dmytro Bykov           : SCF Hessian
   Vijay G. Chilkuri      : MRCI spin determinant printing, contributions to CSF-ICE
   Dipayan Datta          : RHF DLPNO-CCSD density
   Achintya Kumar Dutta   : EOM-CC, STEOM-CC
   Dmitry Ganyushin       : Spin-Orbit,Spin-Spin,Magnetic field MRCI
   Miquel Garcia          : C-PCM Hessian, Gaussian charge scheme
   Yang Guo               : DLPNO-NEVPT2, CIM, IAO-localization
   Andreas Hansen         : Spin unrestricted coupled pair/coupled cluster methods
   Benjamin Helmich-Paris : CASSCF linear response (MC-RPA)
   Lee Huntington         : MR-EOM, pCC
   Robert Izsak           : Overlap fitted RIJCOSX, COSX-SCS-MP3, EOM
   Christian Kollmar      : KDIIS, OOCD, Brueckner-CCSD(T), CCSD density
   Simone Kossmann        : Meta GGA functionals, TD-DFT gradient, OOMP2, MP2 Hessian
   Martin Krupicka        : AUTO-CI
   Lucas Lang             : DCDCAS
   Dagmar Lenk            : GEPOL surface, SMD
   Dimitrios Liakos       : Extrapolation schemes; Compound Job, initial MDCI parallelization
   Dimitrios Manganas     : Further ROCIS development; embedding schemes
   Dimitrios Pantazis     : SARC Basis sets
   Taras Petrenko         : DFT Hessian,TD-DFT gradient, ASA, ECA, R-Raman, ABS, FL, XAS/XES, NRVS
   Peter Pinski           : DLPNO-MP2, DLPNO-MP2 Gradient
   Christoph Reimann      : Effective Core Potentials
   Marius Retegan         : Local ZFS, SOC
   Christoph Riplinger    : Optimizer, TS searches, QM/MM, DLPNO-CCSD(T), (RO)-DLPNO pert. Triples
   Tobias Risthaus        : Range-separated hybrids, TD-DFT gradient, RPA, STAB
   Michael Roemelt        : Original ROCIS implementation
   Masaaki Saitow         : Open-shell DLPNO-CCSD energy and density
   Barbara Sandhoefer     : DKH picture change effects
   Avijit Sen             : IP-ROCIS
   Kantharuban Sivalingam : CASSCF convergence, NEVPT2, FIC-MRCI
   Bernardo de Souza      : ESD, SOC TD-DFT
   Georgi Stoychev        : AutoAux, RI-MP2 NMR
   Willem Van den Heuvel  : Paramagnetic NMR
   Boris Wezisla          : Elementary symmetry handling
   Frank Wennmohs         : Technical directorship


 We gratefully acknowledge several colleagues who have allowed us to
 interface, adapt or use parts of their codes:
   Stefan Grimme, W. Hujo, H. Kruse,             : VdW corrections, initial TS optimization,
                  C. Bannwarth                     DFT functionals, gCP, sTDA/sTD-DF
   Ed Valeev, F. Pavosevic, A. Kumar             : LibInt (2-el integral package), F12 methods
   Garnet Chan, S. Sharma, J. Yang, R. Olivares  : DMRG
   Ulf Ekstrom                                   : XCFun DFT Library
   Mihaly Kallay                                 : mrcc  (arbitrary order and MRCC methods)
   Andreas Klamt, Michael Diedenhofen            : otool_cosmo (COSMO solvation model)
   Jiri Pittner, Ondrej Demel                    : Mk-CCSD
   Frank Weinhold                                : gennbo (NPA and NBO analysis)
   Christopher J. Cramer and Donald G. Truhlar   : smd solvation model
   Lars Goerigk                                  : TD-DFT with DH, B97 family of functionals
   V. Asgeirsson, H. Jonsson                     : NEB implementation
   FAccTs GmbH                                   : IRC, NEB, NEB-TS, Multilevel, MM, QM/MM, CI optimization
   S Lehtola, MJT Oliveira, MAL Marques          : LibXC Library


 Your calculation uses the libint2 library for the computation of 2-el integrals
 For citations please refer to: http://libint.valeyev.net

 Your ORCA version has been built with support for libXC version: 4.2.3
 For citations please refer to: https://tddft.org/programs/libxc/

 This ORCA versions uses:
   CBLAS   interface :  Fast vector & matrix operations
   LAPACKE interface :  Fast linear algebra routines
   SCALAPACK package :  Parallel linear algebra routines




***************************************
The coordinates will be read from file: init.xyz
***************************************


Your calculation utilizes the SMD solvation module
Please cite in your paper:
A.V. Marenich, C.J. Cramer, D.G. Truhlar J. Phys. Chem. B, 113, (2009), 6378 

Your calculation utilizes the semiempirical GFN2-xTB method
Please cite in your paper:
C. Bannwarth, Ehlert S., S. Grimme,  J. Chem. Theory Comput., 15, (2019), 1652.
   

Your calculation utilizes a Nudged-Elastic-Band implementation
 by V.Asgeirsson, C. Riplinger & H. Jonsson
Please cite in your paper:
 V. Asgeirsson et al., in prep. (2019)
   

----- Orbital basis set information -----
Your calculation utilizes the basis: def2-SVP
   F. Weigend and R. Ahlrichs, Phys. Chem. Chem. Phys. 7, 3297 (2005).

================================================================================
                                        WARNINGS
                       Please study these warnings very carefully!
================================================================================


WARNING: The environment variable RSH_COMMAND is not set!
  ===> : All Displacements for the Numerical Hessian calculation
         will be started on localhost

WARNING: Geometry Optimization
  ===> : Switching off AutoStart
         For restart on a previous wavefunction, please use MOREAD

WARNING: Found dipole moment calculation with XTB calculation
  ===> : Switching off dipole moment calculation


INFO   : the flag for use of LIBINT has been found!

================================================================================
                                       INPUT FILE
================================================================================
NAME = co2-hydration.inp
|  1> ! XTB2 NEB-TS NumFreq IRC
|  2> 
|  3> %neb
|  4>  neb_ts_xyzfile "guess.xyz"
|  5>  neb_end_xyzfile "final.xyz"
|  6> 
|  7>  interpolation XTB2TS
|  8>  # interpolation XTB2
|  9>  preopt_ends true
| 10>  reparam 35
| 11>  nimages 15
| 12> end
| 13> 
| 14> %geom
| 15>  maxiter 1000
| 16> end
| 17> 
| 18> %irc
| 19>  maxiter 1000
| 20>  de_init_displ 0.25
| 21>  TolMAXG 1e-3
| 22>  TolRMSG 2e-4
| 23> end
| 24> 
| 25> *xyzfile 0 1 init.xyz
| 26> 
| 27> %pal
| 28>  nprocs 4
| 29> end
| 30> 
| 31> %cpcm
| 32>  smd true
| 33>  smdsolvent "water"
| 34> end
| 35> 
| 36> 
| 37>                          ****END OF INPUT****
================================================================================


------------------------------------------------------------------------------- 
                         Nudged Elastic Band Calculation                       
------------------------------------------------------------------------------- 

Number of images (incl. end points)     ....  17
Number of intermediate images           ....  15
Number of optimized images              ....  15
Optimization of end points before NEB   ....  YES
Use existing gbw files for MO input     ....  NO
Number of atoms                         ....  6
Number of (active) degrees of freedom   ....  18
Constrained atoms                       ....  None


Before the actual NEB run reactant and product are preoptimized.

---------------------------------------------------------------
                        REACTANT OPTIMIZATION            
---------------------------------------------------------------

Geometry optimization settings:
Update method            Update   .... BFGS
Choice of coordinates    CoordSys .... Z-matrix Internals
Initial Hessian          InHess   .... Almoef's Model

Convergence Tolerances:
Energy Change            TolE     ....  5.0000e-06 Eh
Max. Gradient            TolMAXG  ....  3.0000e-04 Eh/bohr
RMS Gradient             TolRMSG  ....  1.0000e-04 Eh/bohr
Max. Displacement        TolMAXD  ....  4.0000e-03 bohr
RMS Displacement         TolRMSD  ....  2.0000e-03 bohr
Strict Convergence                ....  False
------------------------------------------------------------------------------
                        ORCA OPTIMIZATION COORDINATE SETUP
------------------------------------------------------------------------------

The optimization will be done in new redundant internal coordinates
Making redundant internal coordinates   ...  (new redundants) done
Evaluating the initial hessian          ...  (Almloef) done
Evaluating the coordinates              ...  done
Calculating the B-matrix                .... done
Calculating the G-matrix                .... done
Diagonalizing the G-matrix              .... done
The first mode is                       ....   23
The number of degrees of freedom        ....   12

    -----------------------------------------------------------------
                    Redundant Internal Coordinates


    -----------------------------------------------------------------
         Definition                    Initial Value    Approx d2E/dq
    -----------------------------------------------------------------
      1. B(C   1,O   0)                  1.1443         1.379919   
      2. B(O   2,O   0)                  2.8829         0.002080   
      3. B(O   2,C   1)                  2.6619         0.005232   
      4. B(H   3,O   0)                  3.0854         0.000211   
      5. B(H   3,C   1)                  3.2056         0.000152   
      6. B(H   3,O   2)                  0.9600         0.520004   
      7. B(O   4,C   1)                  1.1435         1.383949   
      8. B(O   4,O   2)                  2.9598         0.001569   
      9. B(H   5,O   4)                  3.4588         0.000054   
     10. B(H   5,C   1)                  3.4213         0.000069   
     11. B(H   5,O   2)                  0.9599         0.520153   
     12. A(C   1,O   0,O   2)           67.4030         0.200095   
     13. A(O   0,C   1,O   2)           89.2131         0.227044   
     14. A(O   2,C   1,O   4)           93.4564         0.227135   
     15. A(O   0,O   2,H   3)           92.9718         0.165775   
     16. A(C   1,O   2,H   3)          116.3557         0.184399   
     17. A(C   1,O   2,O   4)           22.6843         0.118509   
     18. A(H   3,O   2,O   4)          139.0400         0.161024   
     19. A(O   0,O   2,C   1)           23.3839         0.120456   
     20. A(C   1,O   2,H   5)          136.3609         0.184405   
     21. A(O   0,O   2,H   5)          159.7448         0.165780   
     22. A(O   4,O   2,H   5)          113.6767         0.161028   
     23. A(O   0,O   2,O   4)           46.0682         0.112748   
     24. A(H   3,O   2,H   5)          107.2833         0.321859   
     25. A(C   1,O   4,O   2)           63.8593         0.193289   
     26. D(H   5,O   2,C   1,O   0)    179.9878         0.001502   
     27. D(H   3,O   2,C   1,O   0)      0.0069         0.001502   
     28. D(H   5,O   2,O   0,C   1)     -0.0243         0.001500   
     29. D(H   3,O   2,O   0,C   1)   -179.9938         0.001500   
     30. D(H   5,O   2,C   1,O   4)     -0.0114         0.001502   
     31. D(O   0,O   2,C   1,O   4)   -179.9993         0.001502   
     32. D(O   4,O   2,C   1,O   0)    179.9993         0.001502   
     33. D(H   3,O   2,C   1,O   4)   -179.9923         0.001502   
     34. D(C   1,O   4,O   2,H   5)    179.9914         0.001500   
     35. D(C   1,O   4,O   2,H   3)      0.0105         0.001500   
    -----------------------------------------------------------------

Number of atoms                         .... 6
Number of degrees of freedom            .... 35

         *************************************************************
         *                GEOMETRY OPTIMIZATION CYCLE   1            *
         *************************************************************
      -----------------------------------------------------------      
     |                   =====================                   |     
     |                           x T B                           |     
     |                   =====================                   |     
     |                         S. Grimme                         |     
     |          Mulliken Center for Theoretical Chemistry        |     
     |                    University of Bonn                     |     
      -----------------------------------------------------------      

   * xtb version 6.3.0 (49875a8) compiled by 'schneider@apollo14' on 2020-05-23

   xtb is free software: you can redistribute it and/or modify it under
   the terms of the GNU Lesser General Public License as published by
   the Free Software Foundation, either version 3 of the License, or
   (at your option) any later version.
   
   xtb is distributed in the hope that it will be useful,
   but WITHOUT ANY WARRANTY; without even the implied warranty of
   MERCHANTABILITY or FITNESS FOR A PARTICULAR PURPOSE.  See the
   GNU Lesser General Public License for more details.
   
   Cite this work as:
   * S. Grimme, C. Bannwarth, P. Shushkov, J. Chem. Theory Comput., 2017,
     13, 1989-2009. DOI: 10.1021/acs.jctc.7b00118
   * C. Bannwarth, S. Ehlert and S. Grimme., J. Chem. Theory Comput., 2019,
     15, 1652-1671. DOI: 10.1021/acs.jctc.8b01176
   * P. Pracht, E. Caldeweyher, S. Ehlert, S. Grimme, ChemRxiv, 2019, preprint.
     DOI: 10.26434/chemrxiv.8326202.v1
   
   for GFN-FF:
   * S. Spicher and S. Grimme, Angew. Chem. Int. Ed., 2020,
     DOI: 10.1002/anie.202004239
   
   for DFT-D4:
   * E. Caldeweyher, C. Bannwarth and S. Grimme, J. Chem. Phys., 2017,
     147, 034112. DOI: 10.1063/1.4993215
   * E. Caldeweyher, S. Ehlert, A. Hansen, H. Neugebauer, S. Spicher,
     C. Bannwarth and S. Grimme, J. Chem. Phys., 2019, 150, 154122.
     DOI: 10.1063/1.5090222
   
   for sTDA-xTB:
   * S. Grimme and C. Bannwarth, J. Chem. Phys., 2016, 145, 054103.
     DOI: 10.1063/1.4959605
   
   in the mass-spec context:
   * V. Asgeirsson, C. Bauer and S. Grimme, Chem. Sci., 2017, 8, 4879.
     DOI: 10.1039/c7sc00601b
   * J. Koopman and S. Grimme, ACS Omega 2019, 4, 12, 15120-15133.
     DOI: 10.1021/acsomega.9b02011
   
   for metadynamics refer to:
   * S. Grimme, J. Chem. Theory Comput., 2019, 155, 2847-2862
     DOI: 10.1021/acs.jctc.9b00143
   
   with help from (in alphabetical order)
   C. Bannwarth, F. Bohle, G. Brandenburg, E. Caldeweyher, M. Checinski,
   S. Dohm, S. Ehlert, S. Ehrlich, F. März, H. Neugebauer, J. Pisarek,
   P. Pracht, P. Shushkov, and S. Spicher.
   
 * started run on 2020/06/06 at 12:32:46.936     

           -------------------------------------------------
          |                Calculation Setup                |
           -------------------------------------------------

          program call               : /opt/orca/otool_xtb co2-hydration_reactant_XTB.xyz --grad -c 0 -u 0 -P 4 --namespace co2-hydration_reactant --gbsa H2O
          calculation namespace      : co2-hydration_reactant
          coordinate file            : co2-hydration_reactant_XTB.xyz
          number of atoms            :                     6
          number of electrons        :                    24
          charge                     :                     0
          spin                       :                   0.0
          first test random number   :      0.12062766478608

   ID    Z sym.   atoms
    1    8 O      1, 3, 5
    2    6 C      2
    3    1 H      4, 6

molecular fragmentation (1/2 indicates fragments):
112212
# atoms in fragment 1/2:     3     3
 fragment masses (1/2) :       44.01       18.02
CMA distance (Bohr)    :   5.185
constraining FC (au)   :  0.0500
########################################################################
[WARNING] Please study the warnings concerning your input carefully
-1- prog_main_parseArguments: Process number higher than OMP_NUM_THREADS, I hope you know what you are doing.
########################################################################
 Solvent             : H2O
 Using internal parameter file: .param_gbsa2_H2O
 Gsolv ref. state (COSMO-RS): gsolv [1 M gas/solution]
 temperature (mdtemp)       :    298.14999999999998     
 dielectric constant        :    80.200000000000003     
 rho                        :    1.0000000000000000     
 mass                       :    18.000000000000000     
 surface tension            :    15.568945408385856     
 probe radius               :   0.97531378999999996     
 Gshift (Eh)                :    1.8574431267947933E-003
 c1                         :    1.5524381700000001     
 soset                      :   0.13032636000000000     
 HB correction              :  T

           -------------------------------------------------
          |                 G F N 2 - x T B                 |
           -------------------------------------------------

        Reference                      10.1021/acs.jctc.8b01176
      * Hamiltonian:
        H0-scaling (s, p, d)           1.850000    2.230000    2.230000
        zeta-weighting                 0.500000
      * Dispersion:
        s8                             2.700000
        a1                             0.520000
        a2                             5.000000
        s9                             5.000000
      * Repulsion:
        kExp                           1.500000    1.000000
        rExp                           1.000000
      * Coulomb:
        alpha                          2.000000
        third order                    shell-resolved
        anisotropic                    true
        a3                             3.000000
        a5                             4.000000
        cn-shift                       1.200000
        cn-exp                         4.000000
        max-rad                        5.000000


          ...................................................
          :                      SETUP                      :
          :.................................................:
          :  # basis functions                  18          :
          :  # atomic orbitals                  18          :
          :  # shells                           10          :
          :  # electrons                        24          :
          :  max. iterations                   250          :
          :  Hamiltonian                  GFN2-xTB          :
          :  restarted?                      false          :
          :  GBSA solvation                   true          :
          :  PC potential                    false          :
          :  electronic temp.          300.0000000     K    :
          :  accuracy                    1.0000000          :
          :  -> integral cutoff          0.2500000E+02      :
          :  -> integral neglect         0.1000000E-07      :
          :  -> SCF convergence          0.1000000E-05 Eh   :
          :  -> wf. convergence          0.1000000E-03 e    :
          :  Broyden damping             0.4000000          :
          ...................................................

 iter      E             dE          RMSdq      gap      omega  full diag
   1    -15.5238206 -0.155238E+02  0.679E+00    8.13       0.0  T
   2    -15.5482300 -0.244094E-01  0.349E+00    6.62       1.0  T
   3    -15.5491553 -0.925353E-03  0.149E+00    6.40       1.0  T
   4    -15.5505375 -0.138214E-02  0.287E-01    6.15       1.0  T
   5    -15.5506004 -0.629261E-04  0.614E-02    6.40       1.0  T
   6    -15.5506072 -0.677105E-05  0.360E-02    6.34       1.1  T
   7    -15.5506108 -0.360808E-05  0.248E-03    6.36      16.5  T
   8    -15.5506108 -0.243452E-07  0.730E-04    6.36      55.9  T
   9    -15.5506108 -0.137723E-08  0.778E-05    6.36     524.8  T

   *** convergence criteria satisfied after 9 iterations ***

         #    Occupation            Energy/Eh            Energy/eV
      -------------------------------------------------------------
         1        2.0000           -0.7972993             -21.6956
       ...           ...                  ...                  ...
         6        2.0000           -0.6505993             -17.7037
         7        2.0000           -0.5914777             -16.0949
         8        2.0000           -0.5633552             -15.3297
         9        2.0000           -0.5245795             -14.2745
        10        2.0000           -0.5232205             -14.2376
        11        2.0000           -0.5084281             -13.8350
        12        2.0000           -0.4472465             -12.1702 (HOMO)
        13                         -0.2134306              -5.8077 (LUMO)
        14                         -0.2109641              -5.7406
        15                          0.0949668               2.5842
        16                          0.2655057               7.2248
        17                          0.3221751               8.7668
        18                          1.3720945              37.3366
      -------------------------------------------------------------
                  HL-Gap            0.2338159 Eh            6.3625 eV
             Fermi-level           -0.3303386 Eh           -8.9890 eV

 SCC (total)                   0 d,  0 h,  0 min,  0.013 sec
 SCC setup                      ...        0 min,  0.001 sec (  6.192%)
 Dispersion                     ...        0 min,  0.000 sec (  0.203%)
 classical contributions        ...        0 min,  0.000 sec (  0.103%)
 integral evaluation            ...        0 min,  0.001 sec (  8.724%)
 iterations                     ...        0 min,  0.008 sec ( 63.448%)
 molecular gradient             ...        0 min,  0.001 sec ( 11.585%)
 printout                       ...        0 min,  0.001 sec (  9.642%)

         :::::::::::::::::::::::::::::::::::::::::::::::::::::
         ::                     SUMMARY                     ::
         :::::::::::::::::::::::::::::::::::::::::::::::::::::
         :: total energy             -15.391625536150 Eh    ::
         :: total w/o Gsasa/hb       -15.385625735145 Eh    ::
         :: gradient norm              0.004018106212 Eh/a0 ::
         :: HOMO-LUMO gap              6.362453910242 eV    ::
         ::.................................................::
         :: SCC energy               -15.547664533451 Eh    ::
         :: -> isotropic ES            0.075799425295 Eh    ::
         :: -> anisotropic ES          0.001430735514 Eh    ::
         :: -> anisotropic XC          0.000013368925 Eh    ::
         :: -> dispersion             -0.001774892370 Eh    ::
         :: -> Gsolv                  -0.010429479936 Eh    ::
         ::    -> Gborn               -0.004429678931 Eh    ::
         ::    -> Gsasa                0.001088829840 Eh    ::
         ::    -> Ghb                 -0.008946073972 Eh    ::
         ::    -> Gshift               0.001857443127 Eh    ::
         :: repulsion energy           0.156038571212 Eh    ::
         :: add. restraining           0.000000000000 Eh    ::
         :::::::::::::::::::::::::::::::::::::::::::::::::::::

           -------------------------------------------------
          |                Property Printout                |
           -------------------------------------------------

    * Orbital Energies and Occupations

         #    Occupation            Energy/Eh            Energy/eV
      -------------------------------------------------------------
         1        2.0000           -0.7972993             -21.6956
         2        2.0000           -0.7852687             -21.3682
         3        2.0000           -0.6820242             -18.5588
         4        2.0000           -0.6569736             -17.8772
         5        2.0000           -0.6520948             -17.7444
         6        2.0000           -0.6505993             -17.7037
         7        2.0000           -0.5914777             -16.0949
         8        2.0000           -0.5633552             -15.3297
         9        2.0000           -0.5245795             -14.2745
        10        2.0000           -0.5232205             -14.2376
        11        2.0000           -0.5084281             -13.8350
        12        2.0000           -0.4472465             -12.1702 (HOMO)
        13                         -0.2134306              -5.8077 (LUMO)
        14                         -0.2109641              -5.7406
        15                          0.0949668               2.5842
        16                          0.2655057               7.2248
        17                          0.3221751               8.7668
        18                          1.3720945              37.3366
      -------------------------------------------------------------
                  HL-Gap            0.2338159 Eh            6.3625 eV
             Fermi-level           -0.3303386 Eh           -8.9890 eV

     #   Z        covCN         q      C6AA      α(0)
     1   8 O      0.856    -0.246    18.833     5.818
     2   6 C      1.711     0.486    21.238     7.461
     3   8 O      1.611    -0.666    26.829     6.991
     4   1 H      0.805     0.333     0.628     1.245
     5   8 O      0.856    -0.246    18.832     5.818
     6   1 H      0.805     0.338     0.616     1.233

 Mol. C6AA /au·bohr⁶  :        398.807232
 Mol. C8AA /au·bohr⁸  :       8496.115958
 Mol. α(0) /au        :         28.566002


Wiberg/Mayer (AO) data.
largest (>0.10) Wiberg bond orders for each atom
          total WBO             WBO to atom ...
     1  O   2.355        C    2 1.960    O    5 0.391
     2  C   3.931        O    5 1.963    O    1 1.960
     3  O   1.784        H    4 0.888    H    6 0.884
     4  H   0.889        O    3 0.888
     5  O   2.357        C    2 1.963    O    1 0.391
     6  H   0.885        O    3 0.884
Topologies differ in total number of bonds
Writing topology from bond orders to xtbtopo.mol

molecular dipole:
                 x           y           z       tot (Debye)
 q only:       -0.769       0.092      -0.000
   full:       -1.012       0.119      -0.000       2.589
molecular quadrupole (traceless):
                xx          xy          yy          xz          yz          zz
 q only:        6.309       0.015      -3.822       0.001       0.000      -2.486
  q+dip:        8.281      -0.009      -5.291       0.001       0.000      -2.990
   full:        8.944       0.142      -6.337       0.001       0.000      -2.608


           -------------------------------------------------
          | TOTAL ENERGY              -15.391625536150 Eh   |
          | GRADIENT NORM               0.004018106212 Eh/α |
          | HOMO-LUMO GAP               6.362453910242 eV   |
           -------------------------------------------------

------------------------------------------------------------------------
 * finished run on 2020/06/06 at 12:32:46.979     
------------------------------------------------------------------------
 total:
 * wall-time:     0 d,  0 h,  0 min,  0.043 sec
 *  cpu-time:     0 d,  0 h,  0 min,  0.478 sec
 * ratio c/w:    11.138 speedup
 SCF:
 * wall-time:     0 d,  0 h,  0 min,  0.014 sec
 *  cpu-time:     0 d,  0 h,  0 min,  0.158 sec
 * ratio c/w:    10.998 speedup


-------------------------   --------------------
FINAL SINGLE POINT ENERGY       -15.391625536150
-------------------------   --------------------

------------------------------------------------------------------------------
                         ORCA GEOMETRY RELAXATION STEP
------------------------------------------------------------------------------

Reading the OPT-File                    .... done
Getting information on internals        .... done
Copying old internal coords+grads       .... done
Making the new internal coordinates     .... (new redundants).... done
Validating the new internal coordinates .... (new redundants).... done
Calculating the B-matrix                .... done
Calculating the G,G- and P matrices     .... done
Transforming gradient to internals      .... done
Projecting the internal gradient        .... done
Number of atoms                         ....   6
Number of internal coordinates          ....  35
Current Energy                          ....   -15.391625536 Eh
Current gradient norm                   ....     0.004018106 Eh/bohr
Maximum allowed component of the step   ....  0.300
Current trust radius                    ....  0.300
Evaluating the initial hessian          ....  (Almloef) done
Projecting the Hessian                  .... done
Forming the augmented Hessian           .... done
Diagonalizing the augmented Hessian     .... done
Last element of RFO vector              ....  0.999347987
Lowest eigenvalues of augmented Hessian:
 -0.000016320  0.001501011  0.001501224  0.001501976  0.002523323
Length of the computed step             ....  0.036128967
The final length of the internal step   ....  0.036128967
Converting the step to cartesian space:
 Initial RMS(Int)=    0.0061069101
Transforming coordinates:
 Iter   0:  RMS(Cart)=    0.0040998521 RMS(Int)=    1.5019272324
 Iter   1:  RMS(Cart)=    0.0000013928 RMS(Int)=    0.0000013549
 Iter   2:  RMS(Cart)=    0.0000000014 RMS(Int)=    0.0000000013
done
Storing new coordinates                 .... done

                                .--------------------.
          ----------------------|Geometry convergence|-------------------------
          Item                value                   Tolerance       Converged
          ---------------------------------------------------------------------
          RMS gradient        0.0003433131            0.0001000000      NO
          MAX gradient        0.0010959108            0.0003000000      NO
          RMS step            0.0061069101            0.0020000000      NO
          MAX step            0.0165457965            0.0040000000      NO
          ........................................................
          Max(Bonds)      0.0088      Max(Angles)    0.16
          Max(Dihed)        0.01      Max(Improp)    0.00
          ---------------------------------------------------------------------

The optimization has not yet converged - more geometry cycles are needed


    ---------------------------------------------------------------------------
                         Redundant Internal Coordinates
                            (Angstroem and degrees)

        Definition                    Value    dE/dq     Step     New-Value
    ----------------------------------------------------------------------------
     1. B(C   1,O   0)                1.1443  0.000465 -0.0002    1.1441   
     2. B(O   2,O   0)                2.8829  0.000377  0.0060    2.8889   
     3. B(O   2,C   1)                2.6619  0.000475  0.0063    2.6682   
     4. B(H   3,O   0)                3.0854 -0.000316  0.0088    3.0942   
     5. B(H   3,C   1)                3.2056 -0.000413  0.0084    3.2140   
     6. B(H   3,O   2)                0.9600 -0.001096  0.0015    0.9615   
     7. B(O   4,C   1)                1.1435 -0.000589  0.0002    1.1438   
     8. B(O   4,O   2)                2.9598  0.000358  0.0049    2.9647   
     9. B(H   5,O   4)                3.4588 -0.000206  0.0066    3.4654   
    10. B(H   5,C   1)                3.4213 -0.000492  0.0078    3.4291   
    11. B(H   5,O   2)                0.9599 -0.001055  0.0016    0.9615   
    12. A(C   1,O   0,O   2)           67.40  0.000057    0.04     67.44   
    13. A(O   0,C   1,O   2)           89.21 -0.000119    0.01     89.23   
    14. A(O   2,C   1,O   4)           93.46  0.000092   -0.06     93.40   
    15. A(O   0,O   2,H   3)           92.97 -0.000165    0.16     93.13   
    16. A(C   1,O   2,H   3)          116.36 -0.000103    0.11    116.46   
    17. A(C   1,O   2,O   4)           22.68 -0.000143   -0.03     22.65   
    18. A(H   3,O   2,O   4)          139.04 -0.000246    0.07    139.11   
    19. A(O   0,O   2,C   1)           23.38  0.000062   -0.06     23.33   
    20. A(C   1,O   2,H   5)          136.36 -0.000071    0.03    136.39   
    21. A(O   0,O   2,H   5)          159.74 -0.000008   -0.03    159.72   
    22. A(O   4,O   2,H   5)          113.68  0.000072    0.06    113.74   
    23. A(O   0,O   2,O   4)           46.07 -0.000081   -0.09     45.98   
    24. A(H   3,O   2,H   5)          107.28  0.000173   -0.13    107.15   
    25. A(C   1,O   4,O   2)           63.86  0.000051    0.09     63.95   
    26. D(H   5,O   2,C   1,O   0)    179.99 -0.000000    0.00    179.99   
    27. D(H   3,O   2,C   1,O   0)      0.01 -0.000000    0.01      0.01   
    28. D(H   5,O   2,O   0,C   1)     -0.02 -0.000000    0.01     -0.02   
    29. D(H   3,O   2,O   0,C   1)   -179.99 -0.000000    0.01   -179.99   
    30. D(H   5,O   2,C   1,O   4)     -0.01  0.000000   -0.01     -0.02   
    31. D(O   0,O   2,C   1,O   4)   -180.00  0.000000   -0.01   -180.01   
    32. D(O   4,O   2,C   1,O   0)    180.00 -0.000000    0.01    180.01   
    33. D(H   3,O   2,C   1,O   4)   -179.99  0.000000   -0.01   -180.00   
    34. D(C   1,O   4,O   2,H   5)    179.99  0.000000   -0.01    179.98   
    35. D(C   1,O   4,O   2,H   3)      0.01  0.000000   -0.01      0.00   
    ----------------------------------------------------------------------------

         *************************************************************
         *                GEOMETRY OPTIMIZATION CYCLE   2            *
         *************************************************************
      -----------------------------------------------------------      
     |                   =====================                   |     
     |                           x T B                           |     
     |                   =====================                   |     
     |                         S. Grimme                         |     
     |          Mulliken Center for Theoretical Chemistry        |     
     |                    University of Bonn                     |     
      -----------------------------------------------------------      

   * xtb version 6.3.0 (49875a8) compiled by 'schneider@apollo14' on 2020-05-23

   xtb is free software: you can redistribute it and/or modify it under
   the terms of the GNU Lesser General Public License as published by
   the Free Software Foundation, either version 3 of the License, or
   (at your option) any later version.
   
   xtb is distributed in the hope that it will be useful,
   but WITHOUT ANY WARRANTY; without even the implied warranty of
   MERCHANTABILITY or FITNESS FOR A PARTICULAR PURPOSE.  See the
   GNU Lesser General Public License for more details.
   
   Cite this work as:
   * S. Grimme, C. Bannwarth, P. Shushkov, J. Chem. Theory Comput., 2017,
     13, 1989-2009. DOI: 10.1021/acs.jctc.7b00118
   * C. Bannwarth, S. Ehlert and S. Grimme., J. Chem. Theory Comput., 2019,
     15, 1652-1671. DOI: 10.1021/acs.jctc.8b01176
   * P. Pracht, E. Caldeweyher, S. Ehlert, S. Grimme, ChemRxiv, 2019, preprint.
     DOI: 10.26434/chemrxiv.8326202.v1
   
   for GFN-FF:
   * S. Spicher and S. Grimme, Angew. Chem. Int. Ed., 2020,
     DOI: 10.1002/anie.202004239
   
   for DFT-D4:
   * E. Caldeweyher, C. Bannwarth and S. Grimme, J. Chem. Phys., 2017,
     147, 034112. DOI: 10.1063/1.4993215
   * E. Caldeweyher, S. Ehlert, A. Hansen, H. Neugebauer, S. Spicher,
     C. Bannwarth and S. Grimme, J. Chem. Phys., 2019, 150, 154122.
     DOI: 10.1063/1.5090222
   
   for sTDA-xTB:
   * S. Grimme and C. Bannwarth, J. Chem. Phys., 2016, 145, 054103.
     DOI: 10.1063/1.4959605
   
   in the mass-spec context:
   * V. Asgeirsson, C. Bauer and S. Grimme, Chem. Sci., 2017, 8, 4879.
     DOI: 10.1039/c7sc00601b
   * J. Koopman and S. Grimme, ACS Omega 2019, 4, 12, 15120-15133.
     DOI: 10.1021/acsomega.9b02011
   
   for metadynamics refer to:
   * S. Grimme, J. Chem. Theory Comput., 2019, 155, 2847-2862
     DOI: 10.1021/acs.jctc.9b00143
   
   with help from (in alphabetical order)
   C. Bannwarth, F. Bohle, G. Brandenburg, E. Caldeweyher, M. Checinski,
   S. Dohm, S. Ehlert, S. Ehrlich, F. März, H. Neugebauer, J. Pisarek,
   P. Pracht, P. Shushkov, and S. Spicher.
   
 * started run on 2020/06/06 at 12:32:47.018     

           -------------------------------------------------
          |                Calculation Setup                |
           -------------------------------------------------

          program call               : /opt/orca/otool_xtb co2-hydration_reactant_XTB.xyz --grad -c 0 -u 0 -P 4 --namespace co2-hydration_reactant --gbsa H2O
          calculation namespace      : co2-hydration_reactant
          coordinate file            : co2-hydration_reactant_XTB.xyz
          number of atoms            :                     6
          number of electrons        :                    24
          charge                     :                     0
          spin                       :                   0.0
          first test random number   :      0.16371916161392

   ID    Z sym.   atoms
    1    8 O      1, 3, 5
    2    6 C      2
    3    1 H      4, 6

molecular fragmentation (1/2 indicates fragments):
112212
# atoms in fragment 1/2:     3     3
 fragment masses (1/2) :       44.01       18.02
CMA distance (Bohr)    :   5.197
constraining FC (au)   :  0.0500
########################################################################
[WARNING] Please study the warnings concerning your input carefully
-1- prog_main_parseArguments: Process number higher than OMP_NUM_THREADS, I hope you know what you are doing.
########################################################################
 Solvent             : H2O
 Using internal parameter file: .param_gbsa2_H2O
 Gsolv ref. state (COSMO-RS): gsolv [1 M gas/solution]
 temperature (mdtemp)       :    298.14999999999998     
 dielectric constant        :    80.200000000000003     
 rho                        :    1.0000000000000000     
 mass                       :    18.000000000000000     
 surface tension            :    15.568945408385856     
 probe radius               :   0.97531378999999996     
 Gshift (Eh)                :    1.8574431267947933E-003
 c1                         :    1.5524381700000001     
 soset                      :   0.13032636000000000     
 HB correction              :  T

           -------------------------------------------------
          |                 G F N 2 - x T B                 |
           -------------------------------------------------

        Reference                      10.1021/acs.jctc.8b01176
      * Hamiltonian:
        H0-scaling (s, p, d)           1.850000    2.230000    2.230000
        zeta-weighting                 0.500000
      * Dispersion:
        s8                             2.700000
        a1                             0.520000
        a2                             5.000000
        s9                             5.000000
      * Repulsion:
        kExp                           1.500000    1.000000
        rExp                           1.000000
      * Coulomb:
        alpha                          2.000000
        third order                    shell-resolved
        anisotropic                    true
        a3                             3.000000
        a5                             4.000000
        cn-shift                       1.200000
        cn-exp                         4.000000
        max-rad                        5.000000


          ...................................................
          :                      SETUP                      :
          :.................................................:
          :  # basis functions                  18          :
          :  # atomic orbitals                  18          :
          :  # shells                           10          :
          :  # electrons                        24          :
          :  max. iterations                   250          :
          :  Hamiltonian                  GFN2-xTB          :
          :  restarted?                      false          :
          :  GBSA solvation                   true          :
          :  PC potential                    false          :
          :  electronic temp.          300.0000000     K    :
          :  accuracy                    1.0000000          :
          :  -> integral cutoff          0.2500000E+02      :
          :  -> integral neglect         0.1000000E-07      :
          :  -> SCF convergence          0.1000000E-05 Eh   :
          :  -> wf. convergence          0.1000000E-03 e    :
          :  Broyden damping             0.4000000          :
          ...................................................

 iter      E             dE          RMSdq      gap      omega  full diag
   1    -15.5232165 -0.155232E+02  0.679E+00    8.13       0.0  T
   2    -15.5477024 -0.244859E-01  0.349E+00    6.61       1.0  T
   3    -15.5486397 -0.937393E-03  0.149E+00    6.40       1.0  T
   4    -15.5500206 -0.138088E-02  0.288E-01    6.14       1.0  T
   5    -15.5500843 -0.636838E-04  0.613E-02    6.39       1.0  T
   6    -15.5500912 -0.685186E-05  0.355E-02    6.33       1.2  T
   7    -15.5500946 -0.346002E-05  0.272E-03    6.36      15.0  T
   8    -15.5500947 -0.293039E-07  0.734E-04    6.36      55.6  T
   9    -15.5500947 -0.136228E-08  0.839E-05    6.36     486.7  T

   *** convergence criteria satisfied after 9 iterations ***

         #    Occupation            Energy/Eh            Energy/eV
      -------------------------------------------------------------
         1        2.0000           -0.7973802             -21.6978
       ...           ...                  ...                  ...
         6        2.0000           -0.6506600             -17.7054
         7        2.0000           -0.5915439             -16.0967
         8        2.0000           -0.5630279             -15.3208
         9        2.0000           -0.5246530             -14.2765
        10        2.0000           -0.5233036             -14.2398
        11        2.0000           -0.5084899             -13.8367
        12        2.0000           -0.4471121             -12.1665 (HOMO)
        13                         -0.2135328              -5.8105 (LUMO)
        14                         -0.2110997              -5.7443
        15                          0.0927999               2.5252
        16                          0.2619570               7.1282
        17                          0.3219320               8.7602
        18                          1.3717869              37.3282
      -------------------------------------------------------------
                  HL-Gap            0.2335792 Eh            6.3560 eV
             Fermi-level           -0.3303225 Eh           -8.9885 eV

 SCC (total)                   0 d,  0 h,  0 min,  0.006 sec
 SCC setup                      ...        0 min,  0.000 sec (  6.547%)
 Dispersion                     ...        0 min,  0.000 sec (  0.505%)
 classical contributions        ...        0 min,  0.000 sec (  0.211%)
 integral evaluation            ...        0 min,  0.001 sec ( 17.613%)
 iterations                     ...        0 min,  0.003 sec ( 43.995%)
 molecular gradient             ...        0 min,  0.001 sec ( 23.217%)
 printout                       ...        0 min,  0.000 sec (  7.734%)

         :::::::::::::::::::::::::::::::::::::::::::::::::::::
         ::                     SUMMARY                     ::
         :::::::::::::::::::::::::::::::::::::::::::::::::::::
         :: total energy             -15.391637039375 Eh    ::
         :: total w/o Gsasa/hb       -15.385633078994 Eh    ::
         :: gradient norm              0.001616863519 Eh/a0 ::
         :: HOMO-LUMO gap              6.356014177184 eV    ::
         ::.................................................::
         :: SCC energy               -15.547147207837 Eh    ::
         :: -> isotropic ES            0.075849474728 Eh    ::
         :: -> anisotropic ES          0.001450022264 Eh    ::
         :: -> anisotropic XC          0.000033297700 Eh    ::
         :: -> dispersion             -0.001772892290 Eh    ::
         :: -> Gsolv                  -0.010454032364 Eh    ::
         ::    -> Gborn               -0.004450071983 Eh    ::
         ::    -> Gsasa                0.001090006832 Eh    ::
         ::    -> Ghb                 -0.008951410339 Eh    ::
         ::    -> Gshift               0.001857443127 Eh    ::
         :: repulsion energy           0.155509738223 Eh    ::
         :: add. restraining           0.000000000000 Eh    ::
         :::::::::::::::::::::::::::::::::::::::::::::::::::::

           -------------------------------------------------
          |                Property Printout                |
           -------------------------------------------------

    * Orbital Energies and Occupations

         #    Occupation            Energy/Eh            Energy/eV
      -------------------------------------------------------------
         1        2.0000           -0.7973802             -21.6978
         2        2.0000           -0.7853436             -21.3703
         3        2.0000           -0.6817773             -18.5521
         4        2.0000           -0.6570301             -17.8787
         5        2.0000           -0.6521636             -17.7463
         6        2.0000           -0.6506600             -17.7054
         7        2.0000           -0.5915439             -16.0967
         8        2.0000           -0.5630279             -15.3208
         9        2.0000           -0.5246530             -14.2765
        10        2.0000           -0.5233036             -14.2398
        11        2.0000           -0.5084899             -13.8367
        12        2.0000           -0.4471121             -12.1665 (HOMO)
        13                         -0.2135328              -5.8105 (LUMO)
        14                         -0.2110997              -5.7443
        15                          0.0927999               2.5252
        16                          0.2619570               7.1282
        17                          0.3219320               8.7602
        18                          1.3717869              37.3282
      -------------------------------------------------------------
                  HL-Gap            0.2335792 Eh            6.3560 eV
             Fermi-level           -0.3303225 Eh           -8.9885 eV

     #   Z        covCN         q      C6AA      α(0)
     1   8 O      0.856    -0.246    18.827     5.817
     2   6 C      1.711     0.486    21.239     7.461
     3   8 O      1.610    -0.666    26.826     6.990
     4   1 H      0.805     0.333     0.629     1.245
     5   8 O      0.856    -0.246    18.835     5.819
     6   1 H      0.805     0.338     0.616     1.233

 Mol. C6AA /au·bohr⁶  :        398.802531
 Mol. C8AA /au·bohr⁸  :       8495.949830
 Mol. α(0) /au        :         28.565997


Wiberg/Mayer (AO) data.
largest (>0.10) Wiberg bond orders for each atom
          total WBO             WBO to atom ...
     1  O   2.355        C    2 1.961    O    5 0.391
     2  C   3.931        O    5 1.963    O    1 1.961
     3  O   1.784        H    4 0.888    H    6 0.884
     4  H   0.889        O    3 0.888
     5  O   2.357        C    2 1.963    O    1 0.391
     6  H   0.886        O    3 0.884
Topologies differ in total number of bonds
Writing topology from bond orders to xtbtopo.mol

molecular dipole:
                 x           y           z       tot (Debye)
 q only:       -0.770       0.093      -0.000
   full:       -1.012       0.120      -0.000       2.591
molecular quadrupole (traceless):
                xx          xy          yy          xz          yz          zz
 q only:        6.332       0.016      -3.832       0.001       0.000      -2.500
  q+dip:        8.307      -0.009      -5.300       0.001       0.000      -3.006
   full:        8.971       0.141      -6.348       0.001       0.000      -2.623


           -------------------------------------------------
          | TOTAL ENERGY              -15.391637039375 Eh   |
          | GRADIENT NORM               0.001616863519 Eh/α |
          | HOMO-LUMO GAP               6.356014177184 eV   |
           -------------------------------------------------

------------------------------------------------------------------------
 * finished run on 2020/06/06 at 12:32:47.047     
------------------------------------------------------------------------
 total:
 * wall-time:     0 d,  0 h,  0 min,  0.029 sec
 *  cpu-time:     0 d,  0 h,  0 min,  0.318 sec
 * ratio c/w:    10.937 speedup
 SCF:
 * wall-time:     0 d,  0 h,  0 min,  0.007 sec
 *  cpu-time:     0 d,  0 h,  0 min,  0.077 sec
 * ratio c/w:    11.540 speedup


-------------------------   --------------------
FINAL SINGLE POINT ENERGY       -15.391637039370
-------------------------   --------------------

------------------------------------------------------------------------------
                         ORCA GEOMETRY RELAXATION STEP
------------------------------------------------------------------------------

Reading the OPT-File                    .... done
Getting information on internals        .... done
Copying old internal coords+grads       .... done
Making the new internal coordinates     .... (new redundants).... done
Validating the new internal coordinates .... (new redundants).... done
Calculating the B-matrix                .... done
Calculating the G,G- and P matrices     .... done
Transforming gradient to internals      .... done
Projecting the internal gradient        .... done
Number of atoms                         ....   6
Number of internal coordinates          ....  35
Current Energy                          ....   -15.391637039 Eh
Current gradient norm                   ....     0.001616864 Eh/bohr
Maximum allowed component of the step   ....  0.300
Current trust radius                    ....  0.300
Updating the Hessian (BFGS)             .... done
Forming the augmented Hessian           .... done
Diagonalizing the augmented Hessian     .... done
Last element of RFO vector              ....  0.998299352
Lowest eigenvalues of augmented Hessian:
 -0.000011376  0.001484128  0.001501049  0.001501242  0.001851548
Length of the computed step             ....  0.058395136
The final length of the internal step   ....  0.058395136
Converting the step to cartesian space:
 Initial RMS(Int)=    0.0098705795
Transforming coordinates:
 Iter   0:  RMS(Cart)=    0.0065556189 RMS(Int)=    2.1221154372
 Iter   1:  RMS(Cart)=    0.0000071603 RMS(Int)=    0.0000062272
 Iter   2:  RMS(Cart)=    0.0000000167 RMS(Int)=    0.0000000262
done
Storing new coordinates                 .... done

                                .--------------------.
          ----------------------|Geometry convergence|-------------------------
          Item                value                   Tolerance       Converged
          ---------------------------------------------------------------------
          Energy change      -0.0000115032            0.0000050000      NO
          RMS gradient        0.0001215316            0.0001000000      NO
          MAX gradient        0.0003316463            0.0003000000      NO
          RMS step            0.0098705795            0.0020000000      NO
          MAX step            0.0271219946            0.0040000000      NO
          ........................................................
          Max(Bonds)      0.0144      Max(Angles)    0.30
          Max(Dihed)        0.43      Max(Improp)    0.00
          ---------------------------------------------------------------------

The optimization has not yet converged - more geometry cycles are needed


    ---------------------------------------------------------------------------
                         Redundant Internal Coordinates
                            (Angstroem and degrees)

        Definition                    Value    dE/dq     Step     New-Value
    ----------------------------------------------------------------------------
     1. B(C   1,O   0)                1.1441  0.000216 -0.0002    1.1440   
     2. B(O   2,O   0)                2.8889  0.000174  0.0098    2.8987   
     3. B(O   2,C   1)                2.6682  0.000065  0.0104    2.6785   
     4. B(H   3,O   0)                3.0942 -0.000214  0.0144    3.1085   
     5. B(H   3,C   1)                3.2140 -0.000184  0.0132    3.2272   
     6. B(H   3,O   2)                0.9615  0.000044  0.0009    0.9624   
     7. B(O   4,C   1)                1.1438 -0.000078  0.0002    1.1439   
     8. B(O   4,O   2)                2.9647  0.000159  0.0076    2.9723   
     9. B(H   5,O   4)                3.4654 -0.000023  0.0093    3.4747   
    10. B(H   5,C   1)                3.4291 -0.000110  0.0114    3.4405   
    11. B(H   5,O   2)                0.9615 -0.000059  0.0010    0.9625   
    12. A(C   1,O   0,O   2)           67.44 -0.000045    0.07     67.51   
    13. A(O   0,C   1,O   2)           89.23  0.000016    0.02     89.25   
    14. A(O   2,C   1,O   4)           93.40  0.000069   -0.11     93.29   
    15. A(O   0,O   2,H   3)           93.13 -0.000234    0.30     93.43   
    16. A(C   1,O   2,H   3)          116.46 -0.000204    0.21    116.68   
    17. A(C   1,O   2,O   4)           22.65 -0.000029   -0.06     22.60   
    18. A(H   3,O   2,O   4)          139.11 -0.000233    0.16    139.27   
    19. A(O   0,O   2,C   1)           23.33  0.000029   -0.09     23.24   
    20. A(C   1,O   2,H   5)          136.39 -0.000127    0.04    136.43   
    21. A(O   0,O   2,H   5)          159.72 -0.000098   -0.04    159.67   
    22. A(O   4,O   2,H   5)          113.74 -0.000099    0.10    113.84   
    23. A(O   0,O   2,O   4)           45.98  0.000001   -0.14     45.84   
    24. A(H   3,O   2,H   5)          107.15  0.000332   -0.26    106.89   
    25. A(C   1,O   4,O   2)           63.95 -0.000040    0.17     64.12   
    26. D(H   5,O   2,C   1,O   0)    179.99  0.000002   -0.10    179.89   
    27. D(H   3,O   2,C   1,O   0)      0.01  0.000004   -0.27     -0.26   
    28. D(H   5,O   2,O   0,C   1)     -0.02  0.000003   -0.20     -0.22   
    29. D(H   3,O   2,O   0,C   1)   -179.99  0.000004   -0.24   -180.23   
    30. D(H   5,O   2,C   1,O   4)     -0.02 -0.000005    0.33      0.31   
    31. D(O   0,O   2,C   1,O   4)    179.99 -0.000007    0.43    180.42   
    32. D(O   4,O   2,C   1,O   0)   -179.99  0.000007   -0.43   -180.42   
    33. D(H   3,O   2,C   1,O   4)   -180.00 -0.000003    0.16   -179.83   
    34. D(C   1,O   4,O   2,H   5)    179.98 -0.000004    0.25    180.24   
    35. D(C   1,O   4,O   2,H   3)      0.00 -0.000004    0.22      0.23   
    ----------------------------------------------------------------------------

         *************************************************************
         *                GEOMETRY OPTIMIZATION CYCLE   3            *
         *************************************************************
      -----------------------------------------------------------      
     |                   =====================                   |     
     |                           x T B                           |     
     |                   =====================                   |     
     |                         S. Grimme                         |     
     |          Mulliken Center for Theoretical Chemistry        |     
     |                    University of Bonn                     |     
      -----------------------------------------------------------      

   * xtb version 6.3.0 (49875a8) compiled by 'schneider@apollo14' on 2020-05-23

   xtb is free software: you can redistribute it and/or modify it under
   the terms of the GNU Lesser General Public License as published by
   the Free Software Foundation, either version 3 of the License, or
   (at your option) any later version.
   
   xtb is distributed in the hope that it will be useful,
   but WITHOUT ANY WARRANTY; without even the implied warranty of
   MERCHANTABILITY or FITNESS FOR A PARTICULAR PURPOSE.  See the
   GNU Lesser General Public License for more details.
   
   Cite this work as:
   * S. Grimme, C. Bannwarth, P. Shushkov, J. Chem. Theory Comput., 2017,
     13, 1989-2009. DOI: 10.1021/acs.jctc.7b00118
   * C. Bannwarth, S. Ehlert and S. Grimme., J. Chem. Theory Comput., 2019,
     15, 1652-1671. DOI: 10.1021/acs.jctc.8b01176
   * P. Pracht, E. Caldeweyher, S. Ehlert, S. Grimme, ChemRxiv, 2019, preprint.
     DOI: 10.26434/chemrxiv.8326202.v1
   
   for GFN-FF:
   * S. Spicher and S. Grimme, Angew. Chem. Int. Ed., 2020,
     DOI: 10.1002/anie.202004239
   
   for DFT-D4:
   * E. Caldeweyher, C. Bannwarth and S. Grimme, J. Chem. Phys., 2017,
     147, 034112. DOI: 10.1063/1.4993215
   * E. Caldeweyher, S. Ehlert, A. Hansen, H. Neugebauer, S. Spicher,
     C. Bannwarth and S. Grimme, J. Chem. Phys., 2019, 150, 154122.
     DOI: 10.1063/1.5090222
   
   for sTDA-xTB:
   * S. Grimme and C. Bannwarth, J. Chem. Phys., 2016, 145, 054103.
     DOI: 10.1063/1.4959605
   
   in the mass-spec context:
   * V. Asgeirsson, C. Bauer and S. Grimme, Chem. Sci., 2017, 8, 4879.
     DOI: 10.1039/c7sc00601b
   * J. Koopman and S. Grimme, ACS Omega 2019, 4, 12, 15120-15133.
     DOI: 10.1021/acsomega.9b02011
   
   for metadynamics refer to:
   * S. Grimme, J. Chem. Theory Comput., 2019, 155, 2847-2862
     DOI: 10.1021/acs.jctc.9b00143
   
   with help from (in alphabetical order)
   C. Bannwarth, F. Bohle, G. Brandenburg, E. Caldeweyher, M. Checinski,
   S. Dohm, S. Ehlert, S. Ehrlich, F. März, H. Neugebauer, J. Pisarek,
   P. Pracht, P. Shushkov, and S. Spicher.
   
 * started run on 2020/06/06 at 12:32:47.077     

           -------------------------------------------------
          |                Calculation Setup                |
           -------------------------------------------------

          program call               : /opt/orca/otool_xtb co2-hydration_reactant_XTB.xyz --grad -c 0 -u 0 -P 4 --namespace co2-hydration_reactant --gbsa H2O
          calculation namespace      : co2-hydration_reactant
          coordinate file            : co2-hydration_reactant_XTB.xyz
          number of atoms            :                     6
          number of electrons        :                    24
          charge                     :                     0
          spin                       :                   0.0
          first test random number   :      0.94625564854935

   ID    Z sym.   atoms
    1    8 O      1, 3, 5
    2    6 C      2
    3    1 H      4, 6

molecular fragmentation (1/2 indicates fragments):
112212
# atoms in fragment 1/2:     3     3
 fragment masses (1/2) :       44.01       18.02
CMA distance (Bohr)    :   5.216
constraining FC (au)   :  0.0500
########################################################################
[WARNING] Please study the warnings concerning your input carefully
-1- prog_main_parseArguments: Process number higher than OMP_NUM_THREADS, I hope you know what you are doing.
########################################################################
 Solvent             : H2O
 Using internal parameter file: .param_gbsa2_H2O
 Gsolv ref. state (COSMO-RS): gsolv [1 M gas/solution]
 temperature (mdtemp)       :    298.14999999999998     
 dielectric constant        :    80.200000000000003     
 rho                        :    1.0000000000000000     
 mass                       :    18.000000000000000     
 surface tension            :    15.568945408385856     
 probe radius               :   0.97531378999999996     
 Gshift (Eh)                :    1.8574431267947933E-003
 c1                         :    1.5524381700000001     
 soset                      :   0.13032636000000000     
 HB correction              :  T

           -------------------------------------------------
          |                 G F N 2 - x T B                 |
           -------------------------------------------------

        Reference                      10.1021/acs.jctc.8b01176
      * Hamiltonian:
        H0-scaling (s, p, d)           1.850000    2.230000    2.230000
        zeta-weighting                 0.500000
      * Dispersion:
        s8                             2.700000
        a1                             0.520000
        a2                             5.000000
        s9                             5.000000
      * Repulsion:
        kExp                           1.500000    1.000000
        rExp                           1.000000
      * Coulomb:
        alpha                          2.000000
        third order                    shell-resolved
        anisotropic                    true
        a3                             3.000000
        a5                             4.000000
        cn-shift                       1.200000
        cn-exp                         4.000000
        max-rad                        5.000000


          ...................................................
          :                      SETUP                      :
          :.................................................:
          :  # basis functions                  18          :
          :  # atomic orbitals                  18          :
          :  # shells                           10          :
          :  # electrons                        24          :
          :  max. iterations                   250          :
          :  Hamiltonian                  GFN2-xTB          :
          :  restarted?                      false          :
          :  GBSA solvation                   true          :
          :  PC potential                    false          :
          :  electronic temp.          300.0000000     K    :
          :  accuracy                    1.0000000          :
          :  -> integral cutoff          0.2500000E+02      :
          :  -> integral neglect         0.1000000E-07      :
          :  -> SCF convergence          0.1000000E-05 Eh   :
          :  -> wf. convergence          0.1000000E-03 e    :
          :  Broyden damping             0.4000000          :
          ...................................................

 iter      E             dE          RMSdq      gap      omega  full diag
   1    -15.5228921 -0.155229E+02  0.679E+00    8.13       0.0  T
   2    -15.5474378 -0.245457E-01  0.349E+00    6.61       1.0  T
   3    -15.5483848 -0.947003E-03  0.149E+00    6.39       1.0  T
   4    -15.5497633 -0.137854E-02  0.289E-01    6.13       1.0  T
   5    -15.5498275 -0.641925E-04  0.613E-02    6.39       1.0  T
   6    -15.5498344 -0.689639E-05  0.351E-02    6.33       1.2  T
   7    -15.5498378 -0.335852E-05  0.290E-03    6.35      14.1  T
   8    -15.5498378 -0.331553E-07  0.732E-04    6.35      55.8  T
   9    -15.5498378 -0.133374E-08  0.880E-05    6.35     463.8  T

   *** convergence criteria satisfied after 9 iterations ***

         #    Occupation            Energy/Eh            Energy/eV
      -------------------------------------------------------------
         1        2.0000           -0.7975187             -21.7016
       ...           ...                  ...                  ...
         6        2.0000           -0.6507759             -17.7085
         7        2.0000           -0.5916330             -16.0992
         8        2.0000           -0.5626383             -15.3102
         9        2.0000           -0.5247626             -14.2795
        10        2.0000           -0.5234312             -14.2433
        11        2.0000           -0.5087203             -13.8430
        12        2.0000           -0.4470195             -12.1640 (HOMO)
        13                         -0.2136331              -5.8133 (LUMO)
        14                         -0.2112364              -5.7480
        15                          0.0919197               2.5013
        16                          0.2593865               7.0583
        17                          0.3218261               8.7573
        18                          1.3718751              37.3306
      -------------------------------------------------------------
                  HL-Gap            0.2333865 Eh            6.3508 eV
             Fermi-level           -0.3303263 Eh           -8.9886 eV

 SCC (total)                   0 d,  0 h,  0 min,  0.011 sec
 SCC setup                      ...        0 min,  0.000 sec (  4.265%)
 Dispersion                     ...        0 min,  0.000 sec (  0.273%)
 classical contributions        ...        0 min,  0.000 sec (  0.127%)
 integral evaluation            ...        0 min,  0.001 sec (  9.750%)
 iterations                     ...        0 min,  0.008 sec ( 67.830%)
 molecular gradient             ...        0 min,  0.001 sec ( 13.160%)
 printout                       ...        0 min,  0.000 sec (  4.467%)

         :::::::::::::::::::::::::::::::::::::::::::::::::::::
         ::                     SUMMARY                     ::
         :::::::::::::::::::::::::::::::::::::::::::::::::::::
         :: total energy             -15.391641159461 Eh    ::
         :: total w/o Gsasa/hb       -15.385634283566 Eh    ::
         :: gradient norm              0.001686497521 Eh/a0 ::
         :: HOMO-LUMO gap              6.350768637685 eV    ::
         ::.................................................::
         :: SCC energy               -15.546888153212 Eh    ::
         :: -> isotropic ES            0.075894635795 Eh    ::
         :: -> anisotropic ES          0.001478007781 Eh    ::
         :: -> anisotropic XC          0.000048357990 Eh    ::
         :: -> dispersion             -0.001769785768 Eh    ::
         :: -> Gsolv                  -0.010480921261 Eh    ::
         ::    -> Gborn               -0.004474045366 Eh    ::
         ::    -> Gsasa                0.001092197484 Eh    ::
         ::    -> Ghb                 -0.008956516506 Eh    ::
         ::    -> Gshift               0.001857443127 Eh    ::
         :: repulsion energy           0.155246557411 Eh    ::
         :: add. restraining           0.000000000000 Eh    ::
         :::::::::::::::::::::::::::::::::::::::::::::::::::::

           -------------------------------------------------
          |                Property Printout                |
           -------------------------------------------------

    * Orbital Energies and Occupations

         #    Occupation            Energy/Eh            Energy/eV
      -------------------------------------------------------------
         1        2.0000           -0.7975187             -21.7016
         2        2.0000           -0.7854644             -21.3736
         3        2.0000           -0.6816331             -18.5482
         4        2.0000           -0.6571142             -17.8810
         5        2.0000           -0.6522836             -17.7495
         6        2.0000           -0.6507759             -17.7085
         7        2.0000           -0.5916330             -16.0992
         8        2.0000           -0.5626383             -15.3102
         9        2.0000           -0.5247626             -14.2795
        10        2.0000           -0.5234312             -14.2433
        11        2.0000           -0.5087203             -13.8430
        12        2.0000           -0.4470195             -12.1640 (HOMO)
        13                         -0.2136331              -5.8133 (LUMO)
        14                         -0.2112364              -5.7480
        15                          0.0919197               2.5013
        16                          0.2593865               7.0583
        17                          0.3218261               8.7573
        18                          1.3718751              37.3306
      -------------------------------------------------------------
                  HL-Gap            0.2333865 Eh            6.3508 eV
             Fermi-level           -0.3303263 Eh           -8.9886 eV

     #   Z        covCN         q      C6AA      α(0)
     1   8 O      0.856    -0.245    18.821     5.816
     2   6 C      1.711     0.486    21.241     7.461
     3   8 O      1.610    -0.666    26.825     6.990
     4   1 H      0.805     0.333     0.629     1.246
     5   8 O      0.856    -0.246    18.835     5.819
     6   1 H      0.805     0.338     0.617     1.234

 Mol. C6AA /au·bohr⁶  :        398.797051
 Mol. C8AA /au·bohr⁸  :       8495.763950
 Mol. α(0) /au        :         28.565991


Wiberg/Mayer (AO) data.
largest (>0.10) Wiberg bond orders for each atom
          total WBO             WBO to atom ...
     1  O   2.356        C    2 1.961    O    5 0.392
     2  C   3.931        O    5 1.963    O    1 1.961
     3  O   1.783        H    4 0.888    H    6 0.885
     4  H   0.889        O    3 0.888
     5  O   2.357        C    2 1.963    O    1 0.392
     6  H   0.886        O    3 0.885
Topologies differ in total number of bonds
Writing topology from bond orders to xtbtopo.mol

molecular dipole:
                 x           y           z       tot (Debye)
 q only:       -0.770       0.093       0.004
   full:       -1.012       0.120       0.007       2.591
molecular quadrupole (traceless):
                xx          xy          yy          xz          yz          zz
 q only:        6.368       0.013      -3.850       0.007      -0.000      -2.517
  q+dip:        8.351      -0.012      -5.323       0.012       0.000      -3.027
   full:        9.015       0.135      -6.371       0.012       0.000      -2.644


           -------------------------------------------------
          | TOTAL ENERGY              -15.391641159461 Eh   |
          | GRADIENT NORM               0.001686497521 Eh/α |
          | HOMO-LUMO GAP               6.350768637685 eV   |
           -------------------------------------------------

------------------------------------------------------------------------
 * finished run on 2020/06/06 at 12:32:47.107     
------------------------------------------------------------------------
 total:
 * wall-time:     0 d,  0 h,  0 min,  0.030 sec
 *  cpu-time:     0 d,  0 h,  0 min,  0.333 sec
 * ratio c/w:    11.166 speedup
 SCF:
 * wall-time:     0 d,  0 h,  0 min,  0.012 sec
 *  cpu-time:     0 d,  0 h,  0 min,  0.124 sec
 * ratio c/w:    10.715 speedup


-------------------------   --------------------
FINAL SINGLE POINT ENERGY       -15.391641159460
-------------------------   --------------------

------------------------------------------------------------------------------
                         ORCA GEOMETRY RELAXATION STEP
------------------------------------------------------------------------------

Reading the OPT-File                    .... done
Getting information on internals        .... done
Copying old internal coords+grads       .... done
Making the new internal coordinates     .... (new redundants).... done
Validating the new internal coordinates .... (new redundants).... done
Calculating the B-matrix                .... done
Calculating the G,G- and P matrices     .... done
Transforming gradient to internals      .... done
Projecting the internal gradient        .... done
Number of atoms                         ....   6
Number of internal coordinates          ....  35
Current Energy                          ....   -15.391641159 Eh
Current gradient norm                   ....     0.001686498 Eh/bohr
Maximum allowed component of the step   ....  0.300
Current trust radius                    ....  0.300
Updating the Hessian (BFGS)             .... done
Forming the augmented Hessian           .... done
Diagonalizing the augmented Hessian     .... done
Last element of RFO vector              ....  0.926727578
Lowest eigenvalues of augmented Hessian:
 -0.000083269  0.000380475  0.001501054  0.001501243  0.014637713
Length of the computed step             ....  0.405441633
Warning: the length of the step is outside the trust region - taking restricted step instead
The input lambda is                     ....    -0.000083
   iter:   1  x=   -0.000174  g=  819.023495 f(x)=     0.074383
   iter:   2  x=   -0.000218  g=  442.595738 f(x)=     0.019416
   iter:   3  x=   -0.000225  g=  342.163625 f(x)=     0.002329
   iter:   4  x=   -0.000225  g=  329.398006 f(x)=     0.000044
   iter:   5  x=   -0.000225  g=  329.154844 f(x)=     0.000000
   iter:   6  x=   -0.000225  g=  329.154753 f(x)=     0.000000
The output lambda is                    ....    -0.000225 (6 iterations)
The final length of the internal step   ....  0.300000000
Converting the step to cartesian space:
 Initial RMS(Int)=    0.0507092553
Transforming coordinates:
 Iter   0:  RMS(Cart)=    0.0336964271 RMS(Int)=    2.5919369808
 Iter   1:  RMS(Cart)=    0.0001960885 RMS(Int)=    0.0001714692
 Iter   2:  RMS(Cart)=    0.0000023577 RMS(Int)=    0.0000036222
 Iter   3:  RMS(Cart)=    0.0000000637 RMS(Int)=    0.0000000581
done
Storing new coordinates                 .... done

                                .--------------------.
          ----------------------|Geometry convergence|-------------------------
          Item                value                   Tolerance       Converged
          ---------------------------------------------------------------------
          Energy change      -0.0000041201            0.0000050000      YES
          RMS gradient        0.0001844546            0.0001000000      NO
          MAX gradient        0.0006108577            0.0003000000      NO
          RMS step            0.0507092553            0.0020000000      NO
          MAX step            0.1416641661            0.0040000000      NO
          ........................................................
          Max(Bonds)      0.0750      Max(Angles)    1.65
          Max(Dihed)        2.23      Max(Improp)    0.00
          ---------------------------------------------------------------------

The optimization has not yet converged - more geometry cycles are needed


    ---------------------------------------------------------------------------
                         Redundant Internal Coordinates
                            (Angstroem and degrees)

        Definition                    Value    dE/dq     Step     New-Value
    ----------------------------------------------------------------------------
     1. B(C   1,O   0)                1.1440 -0.000059 -0.0010    1.1429   
     2. B(O   2,O   0)                2.8987  0.000005  0.0500    2.9487   
     3. B(O   2,C   1)                2.6785 -0.000158  0.0529    2.7314   
     4. B(H   3,O   0)                3.1085 -0.000117  0.0750    3.1835   
     5. B(H   3,C   1)                3.2272 -0.000033  0.0689    3.2961   
     6. B(H   3,O   2)                0.9624  0.000611  0.0043    0.9667   
     7. B(O   4,C   1)                1.1439  0.000272  0.0007    1.1446   
     8. B(O   4,O   2)                2.9723  0.000013  0.0375    3.0099   
     9. B(H   5,O   4)                3.4747  0.000101  0.0458    3.5205   
    10. B(H   5,C   1)                3.4405  0.000133  0.0579    3.4983   
    11. B(H   5,O   2)                0.9625  0.000427  0.0046    0.9671   
    12. A(C   1,O   0,O   2)           67.51 -0.000075    0.35     67.86   
    13. A(O   0,C   1,O   2)           89.25  0.000086    0.10     89.34   
    14. A(O   2,C   1,O   4)           93.29  0.000021   -0.65     92.64   
    15. A(O   0,O   2,H   3)           93.43 -0.000204    1.65     95.09   
    16. A(C   1,O   2,H   3)          116.68 -0.000216    1.21    117.88   
    17. A(C   1,O   2,O   4)           22.60  0.000051   -0.27     22.32   
    18. A(H   3,O   2,O   4)          139.27 -0.000165    0.93    140.20   
    19. A(O   0,O   2,C   1)           23.24 -0.000012   -0.45     22.79   
    20. A(C   1,O   2,H   5)          136.43 -0.000074    0.23    136.66   
    21. A(O   0,O   2,H   5)          159.67 -0.000086   -0.22    159.46   
    22. A(O   4,O   2,H   5)          113.84 -0.000125    0.50    114.34   
    23. A(O   0,O   2,O   4)           45.84  0.000039   -0.72     45.12   
    24. A(H   3,O   2,H   5)          106.89  0.000289   -1.44    105.46   
    25. A(C   1,O   4,O   2)           64.12 -0.000071    0.92     65.03   
    26. D(H   5,O   2,C   1,O   0)    179.89 -0.000056    0.54    180.43   
    27. D(H   3,O   2,C   1,O   0)     -0.26 -0.000147    1.38      1.12   
    28. D(H   5,O   2,O   0,C   1)     -0.22 -0.000111    1.07      0.85   
    29. D(H   3,O   2,O   0,C   1)    179.77 -0.000132    1.24    181.01   
    30. D(H   5,O   2,C   1,O   4)      0.31  0.000180   -1.69     -1.38   
    31. D(O   0,O   2,C   1,O   4)   -179.58  0.000236   -2.23   -181.80   
    32. D(O   4,O   2,C   1,O   0)    179.58 -0.000236    2.23    181.80   
    33. D(H   3,O   2,C   1,O   4)   -179.83  0.000089   -0.85   -180.68   
    34. D(C   1,O   4,O   2,H   5)   -179.76  0.000136   -1.27   -181.04   
    35. D(C   1,O   4,O   2,H   3)      0.23  0.000122   -1.16     -0.93   
    ----------------------------------------------------------------------------

         *************************************************************
         *                GEOMETRY OPTIMIZATION CYCLE   4            *
         *************************************************************
      -----------------------------------------------------------      
     |                   =====================                   |     
     |                           x T B                           |     
     |                   =====================                   |     
     |                         S. Grimme                         |     
     |          Mulliken Center for Theoretical Chemistry        |     
     |                    University of Bonn                     |     
      -----------------------------------------------------------      

   * xtb version 6.3.0 (49875a8) compiled by 'schneider@apollo14' on 2020-05-23

   xtb is free software: you can redistribute it and/or modify it under
   the terms of the GNU Lesser General Public License as published by
   the Free Software Foundation, either version 3 of the License, or
   (at your option) any later version.
   
   xtb is distributed in the hope that it will be useful,
   but WITHOUT ANY WARRANTY; without even the implied warranty of
   MERCHANTABILITY or FITNESS FOR A PARTICULAR PURPOSE.  See the
   GNU Lesser General Public License for more details.
   
   Cite this work as:
   * S. Grimme, C. Bannwarth, P. Shushkov, J. Chem. Theory Comput., 2017,
     13, 1989-2009. DOI: 10.1021/acs.jctc.7b00118
   * C. Bannwarth, S. Ehlert and S. Grimme., J. Chem. Theory Comput., 2019,
     15, 1652-1671. DOI: 10.1021/acs.jctc.8b01176
[...]
    2       -15.337299   -3.992287    0.028121  0.010754
    3       -15.341085   -6.368250    0.033714  0.012980
    4       -15.345388   -9.068668    0.037724  0.014280
    5       -15.350044   -11.989967    0.039507  0.014987
    6       -15.354762   -14.950759    0.038743  0.014841
    7       -15.359375   -17.845307    0.034593  0.014061
    8       -15.363648   -20.526720    0.033805  0.012796
    9       -15.367500   -22.943853    0.032918  0.011500
   10       -15.370979   -25.126792    0.031268  0.010430
   11       -15.374146   -27.114593    0.028933  0.009504
   12       -15.377032   -28.925499    0.026288  0.008649
   13       -15.379656   -30.571946    0.023631  0.007863
   14       -15.382038   -32.066514    0.021098  0.007143
   15       -15.384175   -33.407550    0.018352  0.006600
   16       -15.386046   -34.581386    0.016376  0.005827
   17       -15.387761   -35.657939    0.014061  0.005292
   18       -15.389267   -36.602675    0.012292  0.004634
   19       -15.390614   -37.448195    0.010294  0.004098
   20       -15.391777   -38.178193    0.008803  0.003520
   21       -15.392779   -38.806903    0.007058  0.002984
   22       -15.393614   -39.330517    0.005914  0.002462
   23       -15.394279   -39.747990    0.004056  0.001987
   24       -15.394776   -40.059811    0.003471  0.001436
   25       -15.395123   -40.277580    0.003053  0.001253
   26       -15.395158   -40.299463    0.002007  0.001030
   27       -15.395184   -40.315841    0.001828  0.000892
   28       -15.395237   -40.348921    0.001619  0.000683
   29       -15.395285   -40.379421    0.001290  0.000589
   30       -15.395320   -40.401486    0.001398  0.000558
   31       -15.395328   -40.406394    0.001038  0.000478
   32       -15.395335   -40.410379    0.000896  0.000400
   33       -15.395348   -40.418532    0.000746  0.000318
   34       -15.395359   -40.425588    0.000609  0.000275
   35       -15.395363   -40.428096    0.000542  0.000264
   36       -15.395365   -40.429337    0.000508  0.000237
   37       -15.395367   -40.430680    0.000479  0.000234
   38       -15.395368   -40.431503    0.000440  0.000201
   39       -15.395370   -40.432629    0.000460  0.000216
   40       -15.395371   -40.433130    0.000380  0.000171

                      ***********************HURRAY********************
                      ***            THE IRC HAS CONVERGED          ***
                      *************************************************


---------------------------------------------------------------
                       IRC PATH SUMMARY              
---------------------------------------------------------------
All gradients are in Eh/Bohr.

Step        E(Eh)      dE(kcal/mol)  max(|G|)   RMS(G) 
   1       -15.395371   -40.433130    0.000380  0.000171
   2       -15.395370   -40.432629    0.000460  0.000216
   3       -15.395368   -40.431503    0.000440  0.000201
   4       -15.395367   -40.430680    0.000479  0.000234
   5       -15.395365   -40.429337    0.000508  0.000237
   6       -15.395363   -40.428096    0.000542  0.000264
   7       -15.395359   -40.425588    0.000609  0.000275
   8       -15.395348   -40.418532    0.000746  0.000318
   9       -15.395335   -40.410379    0.000896  0.000400
  10       -15.395328   -40.406394    0.001038  0.000478
  11       -15.395320   -40.401486    0.001398  0.000558
  12       -15.395285   -40.379421    0.001290  0.000589
  13       -15.395237   -40.348921    0.001619  0.000683
  14       -15.395184   -40.315841    0.001828  0.000892
  15       -15.395158   -40.299463    0.002007  0.001030
  16       -15.395123   -40.277580    0.003053  0.001253
  17       -15.394776   -40.059811    0.003471  0.001436
  18       -15.394279   -39.747990    0.004056  0.001987
  19       -15.393614   -39.330517    0.005914  0.002462
  20       -15.392779   -38.806903    0.007058  0.002984
  21       -15.391777   -38.178193    0.008803  0.003520
  22       -15.390614   -37.448195    0.010294  0.004098
  23       -15.389267   -36.602675    0.012292  0.004634
  24       -15.387761   -35.657939    0.014061  0.005292
  25       -15.386046   -34.581386    0.016376  0.005827
  26       -15.384175   -33.407550    0.018352  0.006600
  27       -15.382038   -32.066514    0.021098  0.007143
  28       -15.379656   -30.571946    0.023631  0.007863
  29       -15.377032   -28.925499    0.026288  0.008649
  30       -15.374146   -27.114593    0.028933  0.009504
  31       -15.370979   -25.126792    0.031268  0.010430
  32       -15.367500   -22.943853    0.032918  0.011500
  33       -15.363648   -20.526720    0.033805  0.012796
  34       -15.359375   -17.845307    0.034593  0.014061
  35       -15.354762   -14.950759    0.038743  0.014841
  36       -15.350044   -11.989967    0.039507  0.014987
  37       -15.345388   -9.068668    0.037724  0.014280
  38       -15.341085   -6.368250    0.033714  0.012980
  39       -15.337299   -3.992287    0.028121  0.010754
  40       -15.334865   -2.464918    0.028672  0.011595
  41       -15.331193   -0.160720    0.005477  0.002501
  42       -15.330936    0.000000    0.000566  0.000171 <= TS
  43       -15.331178   -0.151349    0.004995  0.002428
  44       -15.333964   -1.899613    0.019090  0.008446
  45       -15.336145   -3.268551    0.022486  0.008630
  46       -15.338940   -5.022388    0.025766  0.009376
  47       -15.342032   -6.962844    0.027633  0.009972
  48       -15.345184   -8.940157    0.028515  0.010013
  49       -15.348350   -10.927283    0.028588  0.009924
  50       -15.351455   -12.875687    0.027774  0.009735
  51       -15.354443   -14.750283    0.026801  0.009351
  52       -15.357337   -16.566406    0.025413  0.009064
  53       -15.360082   -18.289102    0.024113  0.008592
  54       -15.362731   -19.951297    0.022557  0.008285
  55       -15.365221   -21.513944    0.021144  0.007787
  56       -15.367616   -23.016913    0.019617  0.007479
  57       -15.369853   -24.420279    0.018189  0.006979
  58       -15.371993   -25.763274    0.016725  0.006664
  59       -15.373981   -27.010501    0.016255  0.006187
  60       -15.375871   -28.196983    0.014568  0.005871
  61       -15.377618   -29.293239    0.014570  0.005433
  62       -15.379263   -30.325233    0.012698  0.005103
  63       -15.380766   -31.268515    0.012619  0.004776
  64       -15.382132   -32.125536    0.010186  0.004561
  65       -15.383327   -32.875218    0.010622  0.004354
  66       -15.384375   -33.533155    0.010678  0.004785
  67       -15.384583   -33.663884    0.008078  0.003805
  68       -15.385088   -33.980629    0.008364  0.003356
  69       -15.385598   -34.300517    0.007493  0.003191
  70       -15.386076   -34.600360    0.007196  0.003005
  71       -15.386526   -34.883050    0.006439  0.002842
  72       -15.386947   -35.147313    0.006131  0.002696
  73       -15.387338   -35.392522    0.005377  0.002580
  74       -15.387695   -35.616549    0.005191  0.002583
  75       -15.388005   -35.810965    0.005261  0.002664
  76       -15.388264   -35.973342    0.007506  0.003004
  77       -15.388362   -36.034934    0.004464  0.002419
  78       -15.388499   -36.120963    0.004220  0.001969
  79       -15.388650   -36.215986    0.004145  0.001900
  80       -15.388796   -36.307407    0.003879  0.001828
  81       -15.388937   -36.395530    0.003778  0.001761
  82       -15.389072   -36.480276    0.003601  0.001693
  83       -15.389202   -36.561854    0.003448  0.001629
  84       -15.389327   -36.640228    0.003339  0.001565
  85       -15.389447   -36.715577    0.003197  0.001504
  86       -15.389562   -36.787888    0.003093  0.001442
  87       -15.389672   -36.857286    0.002962  0.001384
  88       -15.389778   -36.923768    0.002862  0.001326
  89       -15.389880   -36.987415    0.002737  0.001279
  90       -15.389976   -37.047808    0.002650  0.001249
  91       -15.390066   -37.104141    0.002523  0.001255
  92       -15.390147   -37.154805    0.002658  0.001361
  93       -15.390184   -37.178324    0.002410  0.001279
  94       -15.390222   -37.202056    0.002367  0.001070
  95       -15.390264   -37.228428    0.002318  0.001047
  96       -15.390305   -37.254142    0.002273  0.001029
  97       -15.390345   -37.279104    0.002226  0.001000
  98       -15.390384   -37.303640    0.002183  0.000982
  99       -15.390422   -37.327480    0.002138  0.000955
 100       -15.390459   -37.350860    0.002097  0.000936
 101       -15.390495   -37.373619    0.002052  0.000912
 102       -15.390531   -37.395871    0.002012  0.000890
 103       -15.390565   -37.417594    0.001969  0.000869
 104       -15.390599   -37.438794    0.001930  0.000848
 105       -15.390632   -37.459478    0.001888  0.000827
 106       -15.390664   -37.479657    0.001849  0.000807
 107       -15.390696   -37.499336    0.001810  0.000787
 108       -15.390726   -37.518536    0.001773  0.000768
 109       -15.390756   -37.537253    0.001735  0.000748
 110       -15.390785   -37.555508    0.001699  0.000729
 111       -15.390813   -37.573294    0.001662  0.000711
 112       -15.390841   -37.590630    0.001627  0.000694
 113       -15.390868   -37.607482    0.001591  0.000679
 114       -15.390894   -37.623805    0.001558  0.000668
 115       -15.390919   -37.639512    0.001522  0.000667
 116       -15.390943   -37.654374    0.001492  0.000678
 117       -15.390965   -37.668130    0.001457  0.000718
 118       -15.390984   -37.680389    0.001710  0.000763
 119       -15.391002   -37.691410    0.001984  0.000808
 120       -15.391010   -37.696683    0.001395  0.000674
 121       -15.391017   -37.701182    0.001386  0.000622
 122       -15.391038   -37.714130    0.001358  0.000556
 123       -15.391060   -37.727792    0.001326  0.000541
 124       -15.391081   -37.740998    0.001296  0.000528
 125       -15.391101   -37.753782    0.001265  0.000510
 126       -15.391121   -37.766261    0.001235  0.000498
 127       -15.391140   -37.778304    0.001205  0.000485
 128       -15.391159   -37.789964    0.001178  0.000474
 129       -15.391177   -37.801188    0.001150  0.000482
 130       -15.391193   -37.811589    0.001126  0.000473
 131       -15.391209   -37.821478    0.001197  0.000568
 132       -15.391212   -37.823407    0.001094  0.000465
 133       -15.391219   -37.827466    0.001086  0.000512
 134       -15.391222   -37.829508    0.001080  0.000454
 135       -15.391228   -37.833550    0.001071  0.000502
 136       -15.391231   -37.835533    0.001065  0.000447
 137       -15.391238   -37.839398    0.001057  0.000498
 138       -15.391240   -37.841255    0.001052  0.000438
 139       -15.391247   -37.845156    0.001043  0.000492
 140       -15.391250   -37.846933    0.001038  0.000430
 141       -15.391256   -37.850749    0.001030  0.000487
 142       -15.391258   -37.852431    0.001025  0.000423
 143       -15.391264   -37.856216    0.001019  0.000482
 144       -15.391267   -37.857819    0.001012  0.000415
 145       -15.391273   -37.861534    0.001023  0.000478
 146       -15.391275   -37.863056    0.000999  0.000408
 147       -15.391281   -37.866713    0.001025  0.000473
 148       -15.391283   -37.868162    0.000987  0.000401
 149       -15.391289   -37.871746    0.001030  0.000469
 150       -15.391291   -37.873124    0.000974  0.000395
 151       -15.391297   -37.876632    0.001034  0.000465
 152       -15.391299   -37.877942    0.000962  0.000388
 153       -15.391304   -37.881366    0.001041  0.000462
 154       -15.391306   -37.882612    0.000951  0.000382
 155       -15.391312   -37.885942    0.001048  0.000459
 156       -15.391314   -37.887128    0.000939  0.000376
 157       -15.391319   -37.890355    0.001057  0.000457
 158       -15.391321   -37.891485    0.000928  0.000371
 159       -15.391325   -37.894600    0.001066  0.000455
 160       -15.391327   -37.895678    0.000917  0.000366
 161       -15.391332   -37.898671    0.001075  0.000453
 162       -15.391334   -37.899702    0.000907  0.000361
 163       -15.391338   -37.902571    0.001082  0.000451
 164       -15.391340   -37.903559    0.000897  0.000356
 165       -15.391344   -37.906304    0.001086  0.000448
 166       -15.391346   -37.907255    0.000887  0.000352
 167       -15.391350   -37.909884    0.001088  0.000445
 168       -15.391351   -37.910802    0.000878  0.000347
 169       -15.391355   -37.913323    0.001086  0.000442
 170       -15.391357   -37.914212    0.000869  0.000343
 171       -15.391361   -37.916637    0.001083  0.000438
 172       -15.391362   -37.917499    0.000860  0.000339
 173       -15.391366   -37.919836    0.001078  0.000435
 174       -15.391367   -37.920673    0.000852  0.000335
 175       -15.391371   -37.922929    0.001072  0.000431
 176       -15.391372   -37.923742    0.000844  0.000331
 177       -15.391375   -37.925924    0.001066  0.000427
 178       -15.391377   -37.926715    0.000836  0.000327
 179       -15.391380   -37.928827    0.001059  0.000423
 180       -15.391381   -37.929598    0.000828  0.000324
 181       -15.391385   -37.931645    0.001052  0.000419
 182       -15.391386   -37.932396    0.000820  0.000320
 183       -15.391389   -37.934382    0.001044  0.000415
 184       -15.391390   -37.935114    0.000812  0.000317
 185       -15.391393   -37.937042    0.001037  0.000411
 186       -15.391394   -37.937757    0.000805  0.000313
 187       -15.391397   -37.939630    0.001029  0.000407
 188       -15.391398   -37.940328    0.000798  0.000310
 189       -15.391401   -37.942150    0.001021  0.000403
 190       -15.391402   -37.942831    0.000790  0.000306
 191       -15.391405   -37.944604    0.001013  0.000399
 192       -15.391406   -37.945270    0.000783  0.000303
 193       -15.391409   -37.946996    0.001005  0.000396
 194       -15.391410   -37.947647    0.000776  0.000300
 195       -15.391413   -37.949329    0.000997  0.000392
 196       -15.391414   -37.949965    0.000770  0.000297
 197       -15.391416   -37.951604    0.000988  0.000388
 198       -15.391417   -37.952226    0.000763  0.000294
 199       -15.391420   -37.953825    0.000980  0.000385
 200       -15.391421   -37.954433    0.000757  0.000291
 201       -15.391423   -37.955993    0.000972  0.000381
 202       -15.391424   -37.956588    0.000750  0.000288
 203       -15.391427   -37.958110    0.000964  0.000377
 204       -15.391428   -37.958693    0.000744  0.000285
 205       -15.391430   -37.960179    0.000956  0.000374
 206       -15.391431   -37.960749    0.000738  0.000282
 207       -15.391433   -37.962201    0.000948  0.000370
 208       -15.391434   -37.962759    0.000732  0.000279
 209       -15.391436   -37.964178    0.000940  0.000367
 210       -15.391437   -37.964725    0.000725  0.000277
 211       -15.391439   -37.966111    0.000933  0.000364
 212       -15.391440   -37.966647    0.000720  0.000274
 213       -15.391442   -37.968003    0.000925  0.000360
 214       -15.391443   -37.968527    0.000714  0.000271
 215       -15.391445   -37.969854    0.000917  0.000357
 216       -15.391446   -37.970368    0.000708  0.000269
 217       -15.391448   -37.971665    0.000909  0.000354
 218       -15.391449   -37.972169    0.000702  0.000266
 219       -15.391451   -37.973439    0.000902  0.000351
 220       -15.391452   -37.973933    0.000697  0.000264
 221       -15.391454   -37.975176    0.000894  0.000348
 222       -15.391455   -37.975661    0.000692  0.000261
 223       -15.391457   -37.976879    0.000888  0.000345
 224       -15.391457   -37.977355    0.000687  0.000259
 225       -15.391459   -37.978551    0.000881  0.000342
 226       -15.391460   -37.979019    0.000682  0.000257
 227       -15.391462   -37.980192    0.000875  0.000339
 228       -15.391463   -37.980652    0.000677  0.000255
 229       -15.391464   -37.981804    0.000868  0.000337
 230       -15.391465   -37.982256    0.000673  0.000253
 231       -15.391467   -37.983388    0.000862  0.000334
 232       -15.391468   -37.983832    0.000668  0.000251
 233       -15.391469   -37.984943    0.000856  0.000331
 234       -15.391470   -37.985380    0.000664  0.000248
 235       -15.391472   -37.986471    0.000850  0.000329
 236       -15.391473   -37.986901    0.000660  0.000246
 237       -15.391474   -37.987972    0.000843  0.000326
 238       -15.391475   -37.988395    0.000655  0.000244
 239       -15.391477   -37.989449    0.000839  0.000324
 240       -15.391477   -37.989864    0.000651  0.000243
 241       -15.391479   -37.990897    0.000829  0.000321
 242       -15.391480   -37.991306    0.000646  0.000241
 243       -15.391481   -37.992325    0.000829  0.000319
 244       -15.391482   -37.992727    0.000642  0.000239
 245       -15.391483   -37.993721    0.000814  0.000315
 246       -15.391484   -37.994118    0.000638  0.000237
 247       -15.391486   -37.995109    0.000824  0.000316
 248       -15.391486   -37.995496    0.000634  0.000235
 249       -15.391488   -37.996447    0.000790  0.000308
 250       -15.391488   -37.996834    0.000630  0.000232
 251       -15.391490   -37.997810    0.000835  0.000316
 252       -15.391491   -37.998182    0.000625  0.000233
 253       -15.391492   -37.999070    0.000739  0.000295
 254       -15.391493   -37.999454    0.000621  0.000228
 255       -15.391494   -38.000451    0.000888  0.000326
 256       -15.391495   -38.000806    0.000617  0.000232
 257       -15.391496   -38.001577    0.000615  0.000269
 258       -15.391497   -38.001997    0.000614  0.000223
 259       -15.391498   -38.003031    0.000958  0.000339
 260       -15.391499   -38.003375    0.000609  0.000234
 261       -15.391500   -38.004026    0.000607  0.000245
 262       -15.391501   -38.004537    0.000606  0.000225
 263       -15.391502   -38.005319    0.000663  0.000274
 264       -15.391503   -38.005691    0.000602  0.000218
 265       -15.391504   -38.006661    0.000926  0.000329
 266       -15.391505   -38.006990    0.000598  0.000228
 267       -15.391506   -38.007623    0.000596  0.000241
 268       -15.391506   -38.008095    0.000594  0.000219
 269       -15.391508   -38.008885    0.000710  0.000280
 270       -15.391508   -38.009222    0.000591  0.000215
 271       -15.391510   -38.010086    0.000828  0.000305
 272       -15.391510   -38.010401    0.000587  0.000218
 273       -15.391511   -38.011095    0.000598  0.000257
 274       -15.391512   -38.011458    0.000583  0.000210
 275       -15.391513   -38.012373    0.000925  0.000325
 276       -15.391514   -38.012679    0.000579  0.000222
 277       -15.391515   -38.013236    0.000578  0.000227
 278       -15.391515   -38.013721    0.000576  0.000216
 279       -15.391516   -38.014341    0.000574  0.000240
 280       -15.391517   -38.014725    0.000572  0.000206
 281       -15.391518   -38.015559    0.000853  0.000306
 282       -15.391519   -38.015851    0.000569  0.000214
 283       -15.391520   -38.016436    0.000567  0.000233
 284       -15.391520   -38.016828    0.000565  0.000204
 285       -15.391522   -38.017600    0.000784  0.000289
 286       -15.391522   -38.017886    0.000563  0.000208
 287       -15.391523   -38.018522    0.000582  0.000247
 288       -15.391523   -38.018846    0.000561  0.000200
 289       -15.391525   -38.019676    0.000894  0.000312
 290       -15.391525   -38.019956    0.000558  0.000213
 291       -15.391526   -38.020457    0.000557  0.000216
 292       -15.391527   -38.020914    0.000556  0.000209
 293       -15.391528   -38.021451    0.000555  0.000223
 294       -15.391528   -38.021841    0.000554  0.000200
 295       -15.391529   -38.022526    0.000693  0.000266
 296       -15.391530   -38.022804    0.000552  0.000199

Timings for individual modules:

Sum of individual times         ...      273.416 sec (=   4.557 min)
Geometry relaxation             ...        1.368 sec (=   0.023 min)   0.5 %
XTB module                      ...       43.692 sec (=   0.728 min)  16.0 %
                             ****ORCA TERMINATED NORMALLY****
TOTAL RUN TIME: 0 days 0 hours 18 minutes 32 seconds 91 msec
