(SLURM) JOB ID:         124

                                 *****************
                                 * O   R   C   A *
                                 *****************

           --- An Ab Initio, DFT and Semiempirical electronic structure package ---

                  #######################################################
                  #                        -***-                        #
                  #          Department of theory and spectroscopy      #
                  #               Directorship: Frank Neese             #
                  #        Max Planck Institute fuer Kohlenforschung    #
                  #                Kaiser Wilhelm Platz 1               #
                  #                 D-45470 Muelheim/Ruhr               #
                  #                      Germany                        #
                  #                                                     #
                  #                  All rights reserved                #
                  #                        -***-                        #
                  #######################################################


                         Program Version 4.2.1 -  RELEASE  -


 With contributions from (in alphabetic order):
   Daniel Aravena         : Magnetic Suceptibility
   Michael Atanasov       : Ab Initio Ligand Field Theory (pilot matlab implementation)
   Alexander A. Auer      : GIAO ZORA, VPT2
   Ute Becker             : Parallelization
   Giovanni Bistoni       : ED, misc. LED, open-shell LED, HFLD
   Martin Brehm           : Molecular dynamics
   Dmytro Bykov           : SCF Hessian
   Vijay G. Chilkuri      : MRCI spin determinant printing, contributions to CSF-ICE
   Dipayan Datta          : RHF DLPNO-CCSD density
   Achintya Kumar Dutta   : EOM-CC, STEOM-CC
   Dmitry Ganyushin       : Spin-Orbit,Spin-Spin,Magnetic field MRCI
   Miquel Garcia          : C-PCM Hessian, Gaussian charge scheme
   Yang Guo               : DLPNO-NEVPT2, CIM, IAO-localization
   Andreas Hansen         : Spin unrestricted coupled pair/coupled cluster methods
   Benjamin Helmich-Paris : CASSCF linear response (MC-RPA)
   Lee Huntington         : MR-EOM, pCC
   Robert Izsak           : Overlap fitted RIJCOSX, COSX-SCS-MP3, EOM
   Christian Kollmar      : KDIIS, OOCD, Brueckner-CCSD(T), CCSD density
   Simone Kossmann        : Meta GGA functionals, TD-DFT gradient, OOMP2, MP2 Hessian
   Martin Krupicka        : AUTO-CI
   Lucas Lang             : DCDCAS
   Dagmar Lenk            : GEPOL surface, SMD
   Dimitrios Liakos       : Extrapolation schemes; Compound Job, initial MDCI parallelization
   Dimitrios Manganas     : Further ROCIS development; embedding schemes
   Dimitrios Pantazis     : SARC Basis sets
   Taras Petrenko         : DFT Hessian,TD-DFT gradient, ASA, ECA, R-Raman, ABS, FL, XAS/XES, NRVS
   Peter Pinski           : DLPNO-MP2, DLPNO-MP2 Gradient
   Christoph Reimann      : Effective Core Potentials
   Marius Retegan         : Local ZFS, SOC
   Christoph Riplinger    : Optimizer, TS searches, QM/MM, DLPNO-CCSD(T), (RO)-DLPNO pert. Triples
   Tobias Risthaus        : Range-separated hybrids, TD-DFT gradient, RPA, STAB
   Michael Roemelt        : Original ROCIS implementation
   Masaaki Saitow         : Open-shell DLPNO-CCSD energy and density
   Barbara Sandhoefer     : DKH picture change effects
   Avijit Sen             : IP-ROCIS
   Kantharuban Sivalingam : CASSCF convergence, NEVPT2, FIC-MRCI
   Bernardo de Souza      : ESD, SOC TD-DFT
   Georgi Stoychev        : AutoAux, RI-MP2 NMR
   Willem Van den Heuvel  : Paramagnetic NMR
   Boris Wezisla          : Elementary symmetry handling
   Frank Wennmohs         : Technical directorship


 We gratefully acknowledge several colleagues who have allowed us to
 interface, adapt or use parts of their codes:
   Stefan Grimme, W. Hujo, H. Kruse,             : VdW corrections, initial TS optimization,
                  C. Bannwarth                     DFT functionals, gCP, sTDA/sTD-DF
   Ed Valeev, F. Pavosevic, A. Kumar             : LibInt (2-el integral package), F12 methods
   Garnet Chan, S. Sharma, J. Yang, R. Olivares  : DMRG
   Ulf Ekstrom                                   : XCFun DFT Library
   Mihaly Kallay                                 : mrcc  (arbitrary order and MRCC methods)
   Andreas Klamt, Michael Diedenhofen            : otool_cosmo (COSMO solvation model)
   Jiri Pittner, Ondrej Demel                    : Mk-CCSD
   Frank Weinhold                                : gennbo (NPA and NBO analysis)
   Christopher J. Cramer and Donald G. Truhlar   : smd solvation model
   Lars Goerigk                                  : TD-DFT with DH, B97 family of functionals
   V. Asgeirsson, H. Jonsson                     : NEB implementation
   FAccTs GmbH                                   : IRC, NEB, NEB-TS, Multilevel, MM, QM/MM, CI optimization
   S Lehtola, MJT Oliveira, MAL Marques          : LibXC Library


 Your calculation uses the libint2 library for the computation of 2-el integrals
 For citations please refer to: http://libint.valeyev.net

 Your ORCA version has been built with support for libXC version: 4.2.3
 For citations please refer to: https://tddft.org/programs/libxc/

 This ORCA versions uses:
   CBLAS   interface :  Fast vector & matrix operations
   LAPACKE interface :  Fast linear algebra routines
   SCALAPACK package :  Parallel linear algebra routines




***************************************
The coordinates will be read from file: init.xyz
***************************************


Your calculation utilizes the SMD solvation module
Please cite in your paper:
A.V. Marenich, C.J. Cramer, D.G. Truhlar J. Phys. Chem. B, 113, (2009), 6378 

Your calculation utilizes the semiempirical GFN2-xTB method
Please cite in your paper:
C. Bannwarth, Ehlert S., S. Grimme,  J. Chem. Theory Comput., 15, (2019), 1652.
   

----- Orbital basis set information -----
Your calculation utilizes the basis: def2-SVP
   F. Weigend and R. Ahlrichs, Phys. Chem. Chem. Phys. 7, 3297 (2005).

================================================================================
                                        WARNINGS
                       Please study these warnings very carefully!
================================================================================

WARNING: Gradients needed for Numerical Frequencies
  ===> : Setting RunTyp to EnGrad

WARNING: The environment variable RSH_COMMAND is not set!
  ===> : All Displacements for the Numerical Hessian calculation
         will be started on localhost

WARNING: Found dipole moment calculation with XTB calculation
  ===> : Switching off dipole moment calculation


INFO   : the flag for use of LIBINT has been found!

================================================================================
                                       INPUT FILE
================================================================================
NAME = /tmp/slurm-scratch/freq.124/freq.inp
|  1> ! XTB2 NumFreq
|  2> %maxcore 1450
|  3> 
|  4> * xyzfile 0 1 init.xyz
|  5> 
|  6> %cpcm
|  7>  smd true
|  8>  smdsolvent "ch2cl2"
|  9> end
| 10> %pal nprocs 8 end
| 11> 
| 12>                          ****END OF INPUT****
================================================================================

                     *******************************
                     * Energy+Gradient Calculation *
                     *******************************

      -----------------------------------------------------------      
     |                   =====================                   |     
     |                           x T B                           |     
     |                   =====================                   |     
     |                         S. Grimme                         |     
     |          Mulliken Center for Theoretical Chemistry        |     
     |                    University of Bonn                     |     
      -----------------------------------------------------------      

   * xtb version 6.3.0 (preview) compiled by 'ehlert@majestix' on 2020-01-15

   This program is distributed in the hope that it will be useful,
   but WITHOUT ANY WARRANTY; without even the implied warranty of
   MERCHANTABILITY or FITNESS FOR A PARTICULAR PURPOSE.
   
   FOR NON-COMMERCIAL, ACADEMIA USE ONLY.
   
   Cite this work as:
   * S. Grimme, C. Bannwarth, P. Shushkov, J. Chem. Theory Comput., 2017,
     13, 1989-2009. DOI: 10.1021/acs.jctc.7b00118
   * C. Bannwarth, S. Ehlert and S. Grimme., J. Chem. Theory Comput., 2019,
     15, 1652-1671. DOI: 10.1021/acs.jctc.8b01176
   * P. Pracht, E. Caldeweyher, S. Ehlert, S. Grimme, ChemRxiv, 2019, preprint.
     DOI: 10.26434/chemrxiv.8326202.v1
   * S. Grimme, S. Spicher unpublished
   
   for DFT-D4:
   * E. Caldeweyher, C. Bannwarth and S. Grimme, J. Chem. Phys., 2017,
     147, 034112. DOI: 10.1063/1.4993215
   * E. Caldeweyher, S. Ehlert, A. Hansen, H. Neugebauer, S. Spicher,
     C. Bannwarth and S. Grimme, J. Chem. Phys., 2019, 150, 154122.
     DOI: 10.1063/1.5090222
   
   for sTDA-xTB:
   * S. Grimme and C. Bannwarth, J. Chem. Phys., 2016, 145, 054103.
     DOI: 10.1063/1.4959605
   
   in the mass-spec context:
   * V. Asgeirsson, C. Bauer and S. Grimme, Chem. Sci., 2017, 8, 4879.
     DOI: 10.1039/c7sc00601b
   
   for metadynamics refer to:
   * S. Grimme, J. Chem. Theory Comput., 2019, 155, 2847-2862
     DOI: 10.1021/acs.jctc.9b00143
   
   with help from (in alphabetical order)
   C. Bannwarth, F. Bohle, G. Brandenburg, E. Caldeweyher, M. Checinski,
   S. Dohm, S. Ehlert, S. Ehrlich, F. März, H. Neugebauer, J. Pisarek,
   P. Pracht, P. Shushkov, and S. Spicher.
   
 * started run on 2020/08/22 at 13:59:45.489     

           -------------------------------------------------
          |                Calculation Setup                |
           -------------------------------------------------

          program call               : /opt/orca/otool_xtb /tmp/slurm-scratch/freq.124/freq_XTB.xyz --grad -c 0 -u 0 -P 8 --namespace /tmp/slurm-scratch/freq.124/freq --gbsa CH2Cl2
          hostname                   : headnode-pbs
          calculation namespace      : /tmp/slurm-scratch/freq.124/freq
          coordinate file            : /tmp/slurm-scratch/freq.124/freq_XTB.xyz
          omp threads                :                     8
          number of atoms            :                    49
          number of electrons        :                   112
          charge                     :                     0
          spin                       :                   0.0
          first test random number   :      0.15647097877228


molecular fragmentation (1/2 indicates fragments):
1111111111112111112122222211111222222222211112222
# atoms in fragment 1/2:    27    22
 fragment masses (1/2) :      161.24      109.17
CMA distance (Bohr)    :   7.161
constraining FC (au)   :  0.0500

########################################################################
# WARNING! Please study the warnings concerning your input carefully
#  - Process number higher than OMP_NUM_THREADS, I hope you know what you are doing.
########################################################################

           ------------------------------------------------- 
          |                 G F N 2 - x T B                 |
          | Geometry, Frequencies, Noncovalent interactions |
          |            JCTC 2019 parametrisation            |
           ------------------------------------------------- 
             k(s)              :                1.8500
             k(p)              :                2.2300
             k(d)              :                2.2300
             k(f)              :                2.0000
             kEN (H0ij)        :               -2.0000
             D4 a1             :                0.5200
             D4 a2             :                5.0000
             D4 s6             :                1.0000
             D4 s8             :                2.7000
             D4 s9             :                5.0000
             alphaj            :                2.0000

  Z AO/shell   Hii/eV     exponent
  1     Wed Apr 25 08:07:45 CEST 2018   EN: 2.200 GM2: 0.406  GM3: 0.0800  RAES: 1.40
     1s    -10.707211    1.230000
  6     Wed Apr 25 08:07:45 CEST 2018   EN: 2.550 GM2: 0.538  GM3: 0.1500  RAES: 3.00
     2s    -13.970922    2.096432
     2p    -10.063292    1.800000
  7     Wed Apr 25 08:07:45 CEST 2018   EN: 3.040 GM2: 0.461  GM3:-0.0640  RAES: 1.90
     2s    -16.686243    2.339881
     2p    -12.523956    2.014332
  8     Wed Apr 25 08:07:45 CEST 2018   EN: 3.440 GM2: 0.452  GM3:-0.0517  RAES: 1.80
     2s    -20.229985    2.439742
     2p    -15.503117    2.137023

 Solvent             : CH2Cl2
 Using internal parameter file: .param_gbsa2_CH2Cl2
 Gsolv ref. state (COSMO-RS): gsolv [1 M gas/solution]
 temperature (mdtemp)       :    298.150000000000     
 dielectric constant        :    8.93000000000000     
 rho                        :    1.33000000000000     
 mass                       :    84.9300000000000     
 surface tension            :    15.5689454083859     
 probe radius               :   0.719875900000000     
 Gshift (Eh)                :   4.440829173451759E-003
 c1                         :    1.49173776000000     
 soset                      :   0.000000000000000E+000
 HB correction              :  F
           ------------------------------------------------- 
          |        Self-Consistent Charge Iterations        |
           ------------------------------------------------- 

          ...................................................
          :                      SETUP                      :
          :.................................................:
          :  # basis functions                 106          :
          :  # atomic orbitals                 106          :
          :  # shells                           68          :
          :  # electrons                       112          :
          :  max. iterations                   250          :
          :  Hamiltonian                  GFN2-xTB          :
          :  GBSA solvation                   true          :
          :  PC potential                    false          :
          :  electronic temp.          300.0000000     K    :
          :  accuracy                    1.0000000          :
          :  -> integral cutoff          0.2500000E+02      :
          :  -> integral neglect         0.1000000E-07      :
          :  -> SCF convergence          0.1000000E-05 Eh   :
          :  -> wf. convergence          0.1000000E-03 e    :
          :  Broyden damping             0.4000000          :
          ...................................................
  Checking positiv definite overlap ...  done.
 

 iter      E             dE          RMSdq      gap      omega  full diag
   1    -62.1491451 -0.621491E+02  0.351E+00    3.00       0.0  T
   2    -62.2130541 -0.639091E-01  0.206E+00    3.25       1.0  T
   3    -62.2092465  0.380759E-02  0.757E-01    2.92       1.0  T
   4    -62.2158054 -0.655889E-02  0.350E-01    3.08       1.0  T
   5    -62.2193256 -0.352016E-02  0.666E-02    2.98       1.0  T
   6    -62.2193429 -0.172764E-04  0.311E-02    2.99       1.0  T
   7    -62.2193494 -0.654086E-05  0.138E-02    2.99       1.0  T
   8    -62.2193519 -0.247740E-05  0.404E-03    2.99       3.5  T
   9    -62.2193522 -0.291691E-06  0.145E-03    2.99       9.8  T
  10    -62.2193522 -0.550423E-08  0.751E-04    2.99      19.0  T
  11    -62.2193522 -0.692349E-08  0.312E-04    2.99      45.8  T

   *** convergence criteria satisfied after 11 iterations ***

         #    Occupation            Energy/Eh            Energy/eV
      -------------------------------------------------------------
         1        2.0000           -0.6740712             -18.3424
       ...           ...                  ...                  ...
        50        2.0000           -0.4270782             -11.6214
        51        2.0000           -0.4252446             -11.5715
        52        2.0000           -0.4226605             -11.5012
        53        2.0000           -0.4096694             -11.1477
        54        2.0000           -0.3994048             -10.8684
        55        2.0000           -0.3898089             -10.6072
        56        2.0000           -0.3813301             -10.3765 (HOMO)
        57                         -0.2713651              -7.3842 (LUMO)
        58                         -0.2295175              -6.2455
        59                         -0.1899927              -5.1700
        60                         -0.0891879              -2.4269
        61                          0.0088738               0.2415
       ...                                ...                  ...
       106                          0.6495139              17.6742
      -------------------------------------------------------------
                  HL-Gap            0.1099650 Eh            2.9923 eV
             Fermi-level           -0.3263476 Eh           -8.8804 eV

 SCC (total)                   0 d,  0 h,  0 min,  0.097 sec
 SCC setup                      ...        0 min,  0.012 sec ( 12.752%)
 Dispersion                     ...        0 min,  0.001 sec (  1.170%)
 integral evaluation            ...        0 min,  0.020 sec ( 20.446%)
 zeroth order Hamiltonian       ...        0 min,  0.000 sec (  0.071%)
 iterations                     ...        0 min,  0.041 sec ( 42.274%)
 molecular gradient             ...        0 min,  0.022 sec ( 22.432%)
 printout                       ...        0 min,  0.001 sec (  0.751%)

         :::::::::::::::::::::::::::::::::::::::::::::::::::::
         ::                     SUMMARY                     ::
         :::::::::::::::::::::::::::::::::::::::::::::::::::::
         :: total energy             -61.381917764833 Eh    ::
         :: total w/o Gsasa/hb       -61.357759685952 Eh    ::
         :: gradient norm              0.029164687962 Eh/a0 ::
         :: HOMO-LUMO gap              2.992300082305 eV    ::
         ::.................................................::
         :: SCC energy               -62.243510272433 Eh    ::
         :: -> isotropic ES            0.097791962022 Eh    ::
         :: -> anisotropic ES          0.000577310343 Eh    ::
         :: -> anisotropic XC          0.039617166845 Eh    ::
         :: -> dispersion             -0.040626677042 Eh    ::
         :: -> Gsolv                  -0.032489678448 Eh    ::
         ::    -> Gborn               -0.008331599567 Eh    ::
         ::    -> Gsasa               -0.028598908055 Eh    ::
         ::    -> Ghb                  0.000000000000 Eh    ::
         ::    -> Gshift               0.004440829173 Eh    ::
         :: repulsion energy           0.860735852880 Eh    ::
         :: add. restraining           0.000000000000 Eh    ::
         :::::::::::::::::::::::::::::::::::::::::::::::::::::

           -------------------------------------------------
          |                Property Printout                |
           -------------------------------------------------

    * Orbital Energies and Occupations

         #    Occupation            Energy/Eh            Energy/eV
      -------------------------------------------------------------
         1        2.0000           -0.6740712             -18.3424
       ...           ...                  ...                  ...
        44        2.0000           -0.4403875             -11.9836
        45        2.0000           -0.4393210             -11.9545
        46        2.0000           -0.4384218             -11.9301
        47        2.0000           -0.4362030             -11.8697
        48        2.0000           -0.4318910             -11.7524
        49        2.0000           -0.4286979             -11.6655
        50        2.0000           -0.4270782             -11.6214
        51        2.0000           -0.4252446             -11.5715
        52        2.0000           -0.4226605             -11.5012
        53        2.0000           -0.4096694             -11.1477
        54        2.0000           -0.3994048             -10.8684
        55        2.0000           -0.3898089             -10.6072
        56        2.0000           -0.3813301             -10.3765 (HOMO)
        57                         -0.2713651              -7.3842 (LUMO)
        58                         -0.2295175              -6.2455
        59                         -0.1899927              -5.1700
        60                         -0.0891879              -2.4269
        61                          0.0088738               0.2415
        62                          0.0309830               0.8431
        63                          0.0570730               1.5530
        64                          0.0817137               2.2235
        65                          0.0842654               2.2930
        66                          0.0967449               2.6326
        67                          0.1045841               2.8459
       ...                                ...                  ...
       106                          0.6495139              17.6742
      -------------------------------------------------------------
                  HL-Gap            0.1099650 Eh            2.9923 eV
             Fermi-level           -0.3263476 Eh           -8.8804 eV

     #   Z        covCN         q      C6AA      α(0)
     1   6 C      2.970     0.006    27.888     8.662
     2   6 C      2.919    -0.026    28.657     8.779
     3   6 C      2.914    -0.027    28.677     8.781
     4   6 C      2.916    -0.024    28.609     8.771
     5   6 C      2.913    -0.029    28.715     8.787
     6   6 C      2.923    -0.031    28.784     8.798
     7   6 C      2.860     0.080    26.208     8.391
     8   1 H      0.926     0.048     2.347     2.396
     9   1 H      0.925     0.035     2.515     2.480
    10   1 H      0.925     0.044     2.393     2.419
    11   7 N      1.825    -0.263    27.671     7.795
    12   6 C      3.769     0.021    20.253     6.413
    13   1 H      0.860     0.175     1.244     1.747
    14   6 C      3.802    -0.056    21.571     6.612
    15   1 H      0.924     0.006     2.960     2.691
    16   1 H      0.924     0.048     2.350     2.397
    17   1 H      0.924     0.041     2.433     2.439
    18   1 H      0.924     0.031     2.570     2.507
    19   8 O      1.608    -0.632    25.971     6.878
    20   1 H      0.924     0.003     3.004     2.710
    21   1 H      0.805     0.281     0.782     1.389
    22   8 O      1.604    -0.625    25.806     6.856
    23   1 H      0.803     0.312     0.687     1.302
    24   1 H      0.805     0.289     0.754     1.364
    25   1 H      0.801     0.311     0.690     1.305
    26   1 H      0.860     0.151     1.392     1.848
    27   1 H      0.925     0.045     2.385     2.415
    28   1 H      0.925     0.042     2.423     2.434
    29   6 C      3.800    -0.053    21.526     6.606
    30   1 H      0.924     0.036     2.509     2.477
    31   1 H      0.924     0.029     2.601     2.522
    32   7 N      2.628    -0.369    29.532     8.071
    33   6 C      3.731     0.009    20.518     6.466
    34   1 H      0.924     0.037     2.485     2.465
    35   1 H      0.924     0.036     2.498     2.472
    36   6 C      3.800    -0.069    21.829     6.652
    37   1 H      0.924     0.040     2.443     2.444
    38   1 H      0.924     0.032     2.562     2.503
    39   6 C      3.799    -0.052    21.509     6.603
    40   1 H      0.924     0.027     2.633     2.538
    41   1 H      0.924     0.031     2.577     2.511
    42   6 C      3.750    -0.101    22.497     6.765
    43   1 H      0.924     0.035     2.511     2.478
    44   1 H      0.924     0.037     2.489     2.467
    45   1 H      0.924     0.034     2.531     2.488
    46   6 C      3.750    -0.102    22.505     6.766
    47   1 H      0.924     0.035     2.522     2.483
    48   1 H      0.924     0.035     2.516     2.480
    49   1 H      0.924     0.038     2.478     2.462

 Mol. C6AA /au·bohr⁶  :      19250.361063
 Mol. C8AA /au·bohr⁸  :     418240.346114
 Mol. α(0) /au        :        212.085857


Wiberg/Mayer (AO) data.
largest (>0.10) Wiberg bond orders for each atom
          total WBO             WBO to atom ...
     1  C   3.989        C    6 1.380    C    2 1.368    C    7 1.082    C    4 0.100
     2  C   3.990        C    3 1.465    C    1 1.368    H    8 0.966    C    5 0.106
     3  C   3.991        C    2 1.465    C    4 1.424    H   27 0.970    C    6 0.105
     4  C   3.987        C    5 1.437    C    3 1.424    H   10 0.971    C    1 0.100
     5  C   3.991        C    6 1.450    C    4 1.437    H   28 0.970    C    2 0.106
     6  C   3.987        C    5 1.450    C    1 1.380    H    9 0.967    C    3 0.105
     7  C   3.969        N   11 1.840    C    1 1.082    H   20 0.940
     8  H   0.998        C    2 0.966
     9  H   0.999        C    6 0.967
    10  H   0.998        C    4 0.971
    11  N   3.070        C    7 1.840    C   12 1.022
    12  C   3.984        N   11 1.022    C   14 0.991    H   15 0.965    H   16 0.949
    13  H   0.969        N   32 0.941
    14  C   3.992        C   29 1.006    C   12 0.991    H   18 0.978    H   17 0.974
    15  H   1.000        C   12 0.965
    16  H   0.994        C   12 0.949
    17  H   0.998        C   14 0.974
    18  H   0.999        C   14 0.978
    19  O   1.799        H   21 0.917    H   23 0.851
    20  H   1.000        C    7 0.940
    21  H   0.921        O   19 0.917
    22  O   1.852        H   24 0.915    H   25 0.818
    23  H   0.903        O   19 0.851
    24  H   0.916        O   22 0.915
    25  H   0.903        O   22 0.818
    26  H   0.977        N   32 0.963
    27  H   0.998        C    3 0.970
    28  H   0.998        C    5 0.970
    29  C   3.996        C   42 1.019    C   14 1.006    H   31 0.978    H   30 0.976
    30  H   0.999        C   29 0.976
    31  H   0.999        C   29 0.978
    32  N   3.092        C   33 1.013    H   26 0.963    H   13 0.941
    33  C   3.980        N   32 1.013    C   36 1.000    H   35 0.975    H   34 0.973
    34  H   0.999        C   33 0.973
    35  H   0.999        C   33 0.975
    36  C   3.996        C   39 1.007    C   33 1.000    H   38 0.977    H   37 0.972
    37  H   0.998        C   36 0.972
    38  H   0.999        C   36 0.977
    39  C   3.997        C   46 1.019    C   36 1.007    H   41 0.978    H   40 0.976
    40  H   0.999        C   39 0.976
    41  H   0.999        C   39 0.978
    42  C   3.995        C   29 1.019    H   45 0.988    H   43 0.988    H   44 0.987
    43  H   0.999        C   42 0.988
    44  H   0.998        C   42 0.987
    45  H   0.999        C   42 0.988
    46  C   3.996        C   39 1.019    H   47 0.988    H   48 0.987    H   49 0.986
    47  H   0.999        C   46 0.988
    48  H   0.998        C   46 0.987
    49  H   0.999        C   46 0.986

molecular dipole:
                 x           y           z       tot (Debye)
 q only:       -0.697      -0.022       0.929
   full:       -0.771      -0.204       0.827       2.919
molecular quadrupole (traceless):
                xx          xy          yy          xz          yz          zz
 q only:       12.587      -4.286      -2.097       4.424       4.064     -10.490
  q+dip:       14.528      -7.798      -4.172       1.988       8.345     -10.356
   full:       13.276      -7.593      -1.671       3.046       6.656     -11.605

           -------------------------------------------------
          |                Property Printout                |
           -------------------------------------------------

    * Orbital Energies and Occupations

         #    Occupation            Energy/Eh            Energy/eV
      -------------------------------------------------------------
         1        2.0000           -0.6740712             -18.3424
       ...           ...                  ...                  ...
        44        2.0000           -0.4403875             -11.9836
        45        2.0000           -0.4393210             -11.9545
        46        2.0000           -0.4384218             -11.9301
        47        2.0000           -0.4362030             -11.8697
        48        2.0000           -0.4318910             -11.7524
        49        2.0000           -0.4286979             -11.6655
        50        2.0000           -0.4270782             -11.6214
        51        2.0000           -0.4252446             -11.5715
        52        2.0000           -0.4226605             -11.5012
        53        2.0000           -0.4096694             -11.1477
        54        2.0000           -0.3994048             -10.8684
        55        2.0000           -0.3898089             -10.6072
        56        2.0000           -0.3813301             -10.3765 (HOMO)
        57                         -0.2713651              -7.3842 (LUMO)
        58                         -0.2295175              -6.2455
        59                         -0.1899927              -5.1700
        60                         -0.0891879              -2.4269
        61                          0.0088738               0.2415
        62                          0.0309830               0.8431
        63                          0.0570730               1.5530
        64                          0.0817137               2.2235
        65                          0.0842654               2.2930
        66                          0.0967449               2.6326
        67                          0.1045841               2.8459
       ...                                ...                  ...
       106                          0.6495139              17.6742
      -------------------------------------------------------------
                  HL-Gap            0.1099650 Eh            2.9923 eV
             Fermi-level           -0.3263476 Eh           -8.8804 eV

     #   Z        covCN         q      C6AA      α(0)
     1   6 C      2.970     0.006    27.888     8.662
     2   6 C      2.919    -0.026    28.657     8.779
     3   6 C      2.914    -0.027    28.677     8.781
     4   6 C      2.916    -0.024    28.609     8.771
     5   6 C      2.913    -0.029    28.715     8.787
     6   6 C      2.923    -0.031    28.784     8.798
     7   6 C      2.860     0.080    26.208     8.391
     8   1 H      0.926     0.048     2.347     2.396
     9   1 H      0.925     0.035     2.515     2.480
    10   1 H      0.925     0.044     2.393     2.419
    11   7 N      1.825    -0.263    27.671     7.795
    12   6 C      3.769     0.021    20.253     6.413
    13   1 H      0.860     0.175     1.244     1.747
    14   6 C      3.802    -0.056    21.571     6.612
    15   1 H      0.924     0.006     2.960     2.691
    16   1 H      0.924     0.048     2.350     2.397
    17   1 H      0.924     0.041     2.433     2.439
    18   1 H      0.924     0.031     2.570     2.507
    19   8 O      1.608    -0.632    25.971     6.878
    20   1 H      0.924     0.003     3.004     2.710
    21   1 H      0.805     0.281     0.782     1.389
    22   8 O      1.604    -0.625    25.806     6.856
    23   1 H      0.803     0.312     0.687     1.302
    24   1 H      0.805     0.289     0.754     1.364
    25   1 H      0.801     0.311     0.690     1.305
    26   1 H      0.860     0.151     1.392     1.848
    27   1 H      0.925     0.045     2.385     2.415
    28   1 H      0.925     0.042     2.423     2.434
    29   6 C      3.800    -0.053    21.526     6.606
    30   1 H      0.924     0.036     2.509     2.477
    31   1 H      0.924     0.029     2.601     2.522
    32   7 N      2.628    -0.369    29.532     8.071
    33   6 C      3.731     0.009    20.518     6.466
    34   1 H      0.924     0.037     2.485     2.465
    35   1 H      0.924     0.036     2.498     2.472
    36   6 C      3.800    -0.069    21.829     6.652
    37   1 H      0.924     0.040     2.443     2.444
    38   1 H      0.924     0.032     2.562     2.503
    39   6 C      3.799    -0.052    21.509     6.603
    40   1 H      0.924     0.027     2.633     2.538
    41   1 H      0.924     0.031     2.577     2.511
    42   6 C      3.750    -0.101    22.497     6.765
    43   1 H      0.924     0.035     2.511     2.478
    44   1 H      0.924     0.037     2.489     2.467
    45   1 H      0.924     0.034     2.531     2.488
    46   6 C      3.750    -0.102    22.505     6.766
    47   1 H      0.924     0.035     2.522     2.483
    48   1 H      0.924     0.035     2.516     2.480
    49   1 H      0.924     0.038     2.478     2.462

 Mol. C6AA /au·bohr⁶  :      19250.361063
 Mol. C8AA /au·bohr⁸  :     418240.346114
 Mol. α(0) /au        :        212.085857


Wiberg/Mayer (AO) data.
largest (>0.10) Wiberg bond orders for each atom
          total WBO             WBO to atom ...
     1  C   3.989        C    6 1.380    C    2 1.368    C    7 1.082    C    4 0.100
     2  C   3.990        C    3 1.465    C    1 1.368    H    8 0.966    C    5 0.106
     3  C   3.991        C    2 1.465    C    4 1.424    H   27 0.970    C    6 0.105
     4  C   3.987        C    5 1.437    C    3 1.424    H   10 0.971    C    1 0.100
     5  C   3.991        C    6 1.450    C    4 1.437    H   28 0.970    C    2 0.106
     6  C   3.987        C    5 1.450    C    1 1.380    H    9 0.967    C    3 0.105
     7  C   3.969        N   11 1.840    C    1 1.082    H   20 0.940
     8  H   0.998        C    2 0.966
     9  H   0.999        C    6 0.967
    10  H   0.998        C    4 0.971
    11  N   3.070        C    7 1.840    C   12 1.022
    12  C   3.984        N   11 1.022    C   14 0.991    H   15 0.965    H   16 0.949
    13  H   0.969        N   32 0.941
    14  C   3.992        C   29 1.006    C   12 0.991    H   18 0.978    H   17 0.974
    15  H   1.000        C   12 0.965
    16  H   0.994        C   12 0.949
    17  H   0.998        C   14 0.974
    18  H   0.999        C   14 0.978
    19  O   1.799        H   21 0.917    H   23 0.851
    20  H   1.000        C    7 0.940
    21  H   0.921        O   19 0.917
    22  O   1.852        H   24 0.915    H   25 0.818
    23  H   0.903        O   19 0.851
    24  H   0.916        O   22 0.915
    25  H   0.903        O   22 0.818
    26  H   0.977        N   32 0.963
    27  H   0.998        C    3 0.970
    28  H   0.998        C    5 0.970
    29  C   3.996        C   42 1.019    C   14 1.006    H   31 0.978    H   30 0.976
    30  H   0.999        C   29 0.976
    31  H   0.999        C   29 0.978
    32  N   3.092        C   33 1.013    H   26 0.963    H   13 0.941
    33  C   3.980        N   32 1.013    C   36 1.000    H   35 0.975    H   34 0.973
    34  H   0.999        C   33 0.973
    35  H   0.999        C   33 0.975
    36  C   3.996        C   39 1.007    C   33 1.000    H   38 0.977    H   37 0.972
    37  H   0.998        C   36 0.972
    38  H   0.999        C   36 0.977
    39  C   3.997        C   46 1.019    C   36 1.007    H   41 0.978    H   40 0.976
    40  H   0.999        C   39 0.976
    41  H   0.999        C   39 0.978
    42  C   3.995        C   29 1.019    H   45 0.988    H   43 0.988    H   44 0.987
    43  H   0.999        C   42 0.988
    44  H   0.998        C   42 0.987
    45  H   0.999        C   42 0.988
    46  C   3.996        C   39 1.019    H   47 0.988    H   48 0.987    H   49 0.986
    47  H   0.999        C   46 0.988
    48  H   0.998        C   46 0.987
    49  H   0.999        C   46 0.986

molecular dipole:
                 x           y           z       tot (Debye)
 q only:       -0.697      -0.022       0.929
   full:       -0.771      -0.204       0.827       2.919
molecular quadrupole (traceless):
                xx          xy          yy          xz          yz          zz
 q only:       12.587      -4.286      -2.097       4.424       4.064     -10.490
  q+dip:       14.528      -7.798      -4.172       1.988       8.345     -10.356
   full:       13.276      -7.593      -1.671       3.046       6.656     -11.605


           -------------------------------------------------
          | TOTAL ENERGY              -61.381917764833 Eh   |
          | GRADIENT NORM               0.029164687962 Eh/α |
          | HOMO-LUMO GAP               2.992300082305 eV   |
           -------------------------------------------------

------------------------------------------------------------------------
 * finished run on 2020/08/22 at 13:59:45.658     
------------------------------------------------------------------------
 total:
 * wall-time:     0 d,  0 h,  0 min,  0.169 sec
 *  cpu-time:     0 d,  0 h,  0 min,  1.225 sec
 * ratio c/w:     7.244 speedup
 SCF:
 * wall-time:     0 d,  0 h,  0 min,  0.098 sec
 *  cpu-time:     0 d,  0 h,  0 min,  0.733 sec
 * ratio c/w:     7.501 speedup


-------------------------   --------------------
FINAL SINGLE POINT ENERGY       -61.381917764830
-------------------------   --------------------


----------------------------------------------------------------------------
                           ORCA NUMERICAL FREQUENCIES
                              (8-process run)
----------------------------------------------------------------------------

Number of atoms                ... 49
Central differences            ... used
Number of displacements        ... 294
Numerical increment            ... 5.000e-03 bohr
IR-spectrum generation         ... on
Raman-spectrum generation      ... off
Surface Crossing Hessian       ... off
List of participating nodes    ...  /tmp/slurm-scratch/freq.124/freq.hostnames

The output will be reduced. Please look at the following files:
SCF program output             ... >/tmp/slurm-scratch/freq.124/freq.lastscf
Integral program output        ... >/tmp/slurm-scratch/freq.124/freq.lastint
Gradient program output        ... >/tmp/slurm-scratch/freq.124/freq.lastgrad
Dipole moment program output   ... >/tmp/slurm-scratch/freq.124/freq.lastmom
AutoCI program output          ... >/tmp/slurm-scratch/freq.124/freq.lastautoci


         <<< Energy and Gradient at the input geometry >>>

        <<< Energy and Gradient at displaced geometries >>>
             <<<Displacing   2/coordinate 3 (+)>>>
             <<<Displacing   3/coordinate 2 (+)>>>
             <<<Displacing   2/coordinate 3 (-)>>>
             <<<Displacing   3/coordinate 2 (-)>>>
             <<<Displacing   2/coordinate 2 (+)>>>
             <<<Displacing   1/coordinate 1 (+)>>>
             <<<Displacing   1/coordinate 2 (+)>>>
             <<<Displacing   2/coordinate 2 (-)>>>
             <<<Displacing   1/coordinate 1 (-)>>>
             <<<Displacing   3/coordinate 1 (+)>>>
             <<<Displacing   1/coordinate 3 (+)>>>
             <<<Displacing   1/coordinate 2 (-)>>>
             <<<Displacing   2/coordinate 1 (+)>>>
             <<<Displacing   3/coordinate 1 (-)>>>
             <<<Displacing   1/coordinate 3 (-)>>>
             <<<Displacing   2/coordinate 1 (-)>>>
             <<<Displacing   6/coordinate 1 (+)>>>
             <<<Displacing   3/coordinate 3 (+)>>>
             <<<Displacing   6/coordinate 1 (-)>>>
             <<<Displacing   5/coordinate 1 (+)>>>
             <<<Displacing   4/coordinate 1 (+)>>>
             <<<Displacing   4/coordinate 2 (+)>>>
             <<<Displacing   3/coordinate 3 (-)>>>
             <<<Displacing   4/coordinate 1 (-)>>>
             <<<Displacing   5/coordinate 1 (-)>>>
             <<<Displacing   4/coordinate 2 (-)>>>
             <<<Displacing   4/coordinate 3 (+)>>>
             <<<Displacing   5/coordinate 2 (+)>>>
             <<<Displacing   4/coordinate 3 (-)>>>
             <<<Displacing   5/coordinate 3 (+)>>>
             <<<Displacing   5/coordinate 2 (-)>>>
             <<<Displacing   5/coordinate 3 (-)>>>
             <<<Displacing   7/coordinate 1 (+)>>>
             <<<Displacing   7/coordinate 1 (-)>>>
             <<<Displacing   7/coordinate 2 (+)>>>
             <<<Displacing   7/coordinate 2 (-)>>>
             <<<Displacing   7/coordinate 3 (+)>>>
             <<<Displacing   6/coordinate 3 (+)>>>
             <<<Displacing   6/coordinate 2 (+)>>>
             <<<Displacing   7/coordinate 3 (-)>>>
             <<<Displacing   6/coordinate 3 (-)>>>
             <<<Displacing   6/coordinate 2 (-)>>>
             <<<Displacing   8/coordinate 2 (+)>>>
             <<<Displacing   8/coordinate 2 (-)>>>
             <<<Displacing   8/coordinate 1 (+)>>>
             <<<Displacing   8/coordinate 1 (-)>>>
             <<<Displacing   8/coordinate 3 (+)>>>
             <<<Displacing   8/coordinate 3 (-)>>>
             <<<Displacing   9/coordinate 3 (+)>>>
             <<<Displacing   9/coordinate 3 (-)>>>
             <<<Displacing   9/coordinate 1 (+)>>>
             <<<Displacing  10/coordinate 2 (+)>>>
             <<<Displacing  10/coordinate 1 (+)>>>
             <<<Displacing   9/coordinate 1 (-)>>>
             <<<Displacing  10/coordinate 2 (-)>>>
             <<<Displacing   9/coordinate 2 (+)>>>
             <<<Displacing  10/coordinate 3 (+)>>>
             <<<Displacing  10/coordinate 1 (-)>>>
             <<<Displacing   9/coordinate 2 (-)>>>
             <<<Displacing  10/coordinate 3 (-)>>>
             <<<Displacing  11/coordinate 2 (+)>>>
             <<<Displacing  11/coordinate 2 (-)>>>
             <<<Displacing  11/coordinate 1 (+)>>>
             <<<Displacing  11/coordinate 1 (-)>>>
             <<<Displacing  11/coordinate 3 (+)>>>
             <<<Displacing  12/coordinate 1 (+)>>>
             <<<Displacing  11/coordinate 3 (-)>>>
             <<<Displacing  12/coordinate 1 (-)>>>
             <<<Displacing  12/coordinate 3 (+)>>>
             <<<Displacing  12/coordinate 3 (-)>>>
             <<<Displacing  13/coordinate 1 (+)>>>
             <<<Displacing  12/coordinate 2 (+)>>>
             <<<Displacing  13/coordinate 1 (-)>>>
             <<<Displacing  12/coordinate 2 (-)>>>
             <<<Displacing  13/coordinate 2 (+)>>>
             <<<Displacing  13/coordinate 2 (-)>>>
             <<<Displacing  13/coordinate 3 (+)>>>
             <<<Displacing  13/coordinate 3 (-)>>>
             <<<Displacing  14/coordinate 1 (+)>>>
             <<<Displacing  14/coordinate 1 (-)>>>
             <<<Displacing  14/coordinate 3 (+)>>>
             <<<Displacing  14/coordinate 2 (+)>>>
             <<<Displacing  14/coordinate 3 (-)>>>
             <<<Displacing  14/coordinate 2 (-)>>>
             <<<Displacing  15/coordinate 1 (+)>>>
             <<<Displacing  15/coordinate 1 (-)>>>
             <<<Displacing  15/coordinate 2 (+)>>>
             <<<Displacing  15/coordinate 2 (-)>>>
             <<<Displacing  15/coordinate 3 (+)>>>
             <<<Displacing  16/coordinate 1 (+)>>>
             <<<Displacing  15/coordinate 3 (-)>>>
             <<<Displacing  16/coordinate 1 (-)>>>
             <<<Displacing  16/coordinate 3 (+)>>>
             <<<Displacing  16/coordinate 3 (-)>>>
             <<<Displacing  16/coordinate 2 (+)>>>
             <<<Displacing  16/coordinate 2 (-)>>>
             <<<Displacing  17/coordinate 1 (+)>>>
             <<<Displacing  17/coordinate 2 (+)>>>
             <<<Displacing  17/coordinate 1 (-)>>>
             <<<Displacing  17/coordinate 2 (-)>>>
             <<<Displacing  17/coordinate 3 (+)>>>
             <<<Displacing  17/coordinate 3 (-)>>>
             <<<Displacing  18/coordinate 1 (+)>>>
             <<<Displacing  18/coordinate 1 (-)>>>
             <<<Displacing  19/coordinate 1 (+)>>>
             <<<Displacing  18/coordinate 3 (+)>>>
             <<<Displacing  19/coordinate 1 (-)>>>
             <<<Displacing  18/coordinate 3 (-)>>>
             <<<Displacing  18/coordinate 2 (+)>>>
             <<<Displacing  18/coordinate 2 (-)>>>
             <<<Displacing  19/coordinate 2 (+)>>>
             <<<Displacing  19/coordinate 2 (-)>>>
             <<<Displacing  19/coordinate 3 (+)>>>
             <<<Displacing  19/coordinate 3 (-)>>>
             <<<Displacing  20/coordinate 1 (+)>>>
             <<<Displacing  20/coordinate 2 (+)>>>
             <<<Displacing  20/coordinate 1 (-)>>>
             <<<Displacing  20/coordinate 3 (+)>>>
             <<<Displacing  20/coordinate 2 (-)>>>
             <<<Displacing  20/coordinate 3 (-)>>>
             <<<Displacing  21/coordinate 3 (+)>>>
             <<<Displacing  21/coordinate 2 (+)>>>
             <<<Displacing  21/coordinate 3 (-)>>>
             <<<Displacing  21/coordinate 1 (+)>>>
             <<<Displacing  21/coordinate 2 (-)>>>
             <<<Displacing  21/coordinate 1 (-)>>>
             <<<Displacing  22/coordinate 1 (+)>>>
             <<<Displacing  22/coordinate 1 (-)>>>
             <<<Displacing  22/coordinate 3 (+)>>>
             <<<Displacing  22/coordinate 2 (+)>>>
             <<<Displacing  22/coordinate 3 (-)>>>
             <<<Displacing  23/coordinate 2 (+)>>>
             <<<Displacing  22/coordinate 2 (-)>>>
             <<<Displacing  23/coordinate 2 (-)>>>
             <<<Displacing  23/coordinate 1 (+)>>>
             <<<Displacing  23/coordinate 1 (-)>>>
             <<<Displacing  23/coordinate 3 (+)>>>
             <<<Displacing  24/coordinate 1 (+)>>>
             <<<Displacing  23/coordinate 3 (-)>>>
             <<<Displacing  24/coordinate 1 (-)>>>
             <<<Displacing  24/coordinate 2 (+)>>>
             <<<Displacing  24/coordinate 2 (-)>>>
             <<<Displacing  24/coordinate 3 (+)>>>
             <<<Displacing  24/coordinate 3 (-)>>>
             <<<Displacing  25/coordinate 1 (+)>>>
             <<<Displacing  25/coordinate 1 (-)>>>
             <<<Displacing  25/coordinate 3 (+)>>>
             <<<Displacing  25/coordinate 3 (-)>>>
             <<<Displacing  26/coordinate 1 (+)>>>
             <<<Displacing  25/coordinate 2 (+)>>>
             <<<Displacing  26/coordinate 1 (-)>>>
             <<<Displacing  25/coordinate 2 (-)>>>
             <<<Displacing  26/coordinate 3 (+)>>>
             <<<Displacing  26/coordinate 2 (+)>>>
             <<<Displacing  26/coordinate 3 (-)>>>
             <<<Displacing  26/coordinate 2 (-)>>>
             <<<Displacing  27/coordinate 1 (+)>>>
             <<<Displacing  27/coordinate 1 (-)>>>
             <<<Displacing  27/coordinate 2 (+)>>>
             <<<Displacing  27/coordinate 2 (-)>>>
             <<<Displacing  28/coordinate 1 (+)>>>
             <<<Displacing  27/coordinate 3 (+)>>>
             <<<Displacing  28/coordinate 1 (-)>>>
             <<<Displacing  27/coordinate 3 (-)>>>
             <<<Displacing  28/coordinate 2 (+)>>>
             <<<Displacing  28/coordinate 2 (-)>>>
             <<<Displacing  28/coordinate 3 (+)>>>
             <<<Displacing  29/coordinate 1 (+)>>>
             <<<Displacing  28/coordinate 3 (-)>>>
             <<<Displacing  29/coordinate 1 (-)>>>
             <<<Displacing  29/coordinate 2 (+)>>>
             <<<Displacing  29/coordinate 3 (+)>>>
             <<<Displacing  29/coordinate 2 (-)>>>
             <<<Displacing  29/coordinate 3 (-)>>>
             <<<Displacing  30/coordinate 1 (+)>>>
             <<<Displacing  30/coordinate 1 (-)>>>
             <<<Displacing  30/coordinate 2 (+)>>>
             <<<Displacing  30/coordinate 2 (-)>>>
             <<<Displacing  30/coordinate 3 (+)>>>
             <<<Displacing  30/coordinate 3 (-)>>>
             <<<Displacing  31/coordinate 1 (+)>>>
             <<<Displacing  31/coordinate 1 (-)>>>
             <<<Displacing  31/coordinate 3 (+)>>>
             <<<Displacing  31/coordinate 2 (+)>>>
             <<<Displacing  31/coordinate 3 (-)>>>
             <<<Displacing  32/coordinate 1 (+)>>>
             <<<Displacing  31/coordinate 2 (-)>>>
             <<<Displacing  32/coordinate 1 (-)>>>
             <<<Displacing  32/coordinate 2 (+)>>>
             <<<Displacing  32/coordinate 2 (-)>>>
             <<<Displacing  32/coordinate 3 (+)>>>
             <<<Displacing  32/coordinate 3 (-)>>>
             <<<Displacing  33/coordinate 1 (+)>>>
             <<<Displacing  33/coordinate 1 (-)>>>
             <<<Displacing  34/coordinate 1 (+)>>>
             <<<Displacing  34/coordinate 1 (-)>>>
             <<<Displacing  33/coordinate 2 (+)>>>
             <<<Displacing  33/coordinate 3 (+)>>>
             <<<Displacing  33/coordinate 2 (-)>>>
             <<<Displacing  33/coordinate 3 (-)>>>
             <<<Displacing  34/coordinate 2 (+)>>>
             <<<Displacing  34/coordinate 2 (-)>>>
             <<<Displacing  34/coordinate 3 (+)>>>
             <<<Displacing  34/coordinate 3 (-)>>>
             <<<Displacing  35/coordinate 1 (+)>>>
             <<<Displacing  35/coordinate 1 (-)>>>
             <<<Displacing  35/coordinate 2 (+)>>>
             <<<Displacing  35/coordinate 2 (-)>>>
             <<<Displacing  35/coordinate 3 (+)>>>
             <<<Displacing  35/coordinate 3 (-)>>>
             <<<Displacing  36/coordinate 1 (+)>>>
             <<<Displacing  37/coordinate 1 (+)>>>
             <<<Displacing  36/coordinate 1 (-)>>>
             <<<Displacing  36/coordinate 2 (+)>>>
             <<<Displacing  36/coordinate 3 (+)>>>
             <<<Displacing  37/coordinate 1 (-)>>>
             <<<Displacing  36/coordinate 2 (-)>>>
             <<<Displacing  36/coordinate 3 (-)>>>
             <<<Displacing  37/coordinate 2 (+)>>>
             <<<Displacing  37/coordinate 2 (-)>>>
             <<<Displacing  38/coordinate 1 (+)>>>
             <<<Displacing  38/coordinate 1 (-)>>>
             <<<Displacing  37/coordinate 3 (+)>>>
             <<<Displacing  37/coordinate 3 (-)>>>
             <<<Displacing  38/coordinate 2 (+)>>>
             <<<Displacing  38/coordinate 2 (-)>>>
             <<<Displacing  38/coordinate 3 (+)>>>
             <<<Displacing  38/coordinate 3 (-)>>>
             <<<Displacing  39/coordinate 1 (+)>>>
             <<<Displacing  39/coordinate 1 (-)>>>
             <<<Displacing  39/coordinate 2 (+)>>>
             <<<Displacing  39/coordinate 3 (+)>>>
             <<<Displacing  39/coordinate 2 (-)>>>
             <<<Displacing  39/coordinate 3 (-)>>>
             <<<Displacing  40/coordinate 1 (+)>>>
             <<<Displacing  40/coordinate 1 (-)>>>
             <<<Displacing  40/coordinate 2 (+)>>>
             <<<Displacing  40/coordinate 2 (-)>>>
             <<<Displacing  40/coordinate 3 (+)>>>
             <<<Displacing  41/coordinate 1 (+)>>>
             <<<Displacing  40/coordinate 3 (-)>>>
             <<<Displacing  41/coordinate 1 (-)>>>
             <<<Displacing  42/coordinate 1 (+)>>>
             <<<Displacing  42/coordinate 1 (-)>>>
             <<<Displacing  41/coordinate 2 (+)>>>
             <<<Displacing  42/coordinate 2 (+)>>>
             <<<Displacing  41/coordinate 2 (-)>>>
             <<<Displacing  42/coordinate 2 (-)>>>
             <<<Displacing  41/coordinate 3 (+)>>>
             <<<Displacing  41/coordinate 3 (-)>>>
             <<<Displacing  42/coordinate 3 (+)>>>
             <<<Displacing  42/coordinate 3 (-)>>>
             <<<Displacing  43/coordinate 1 (+)>>>
             <<<Displacing  43/coordinate 3 (+)>>>
             <<<Displacing  43/coordinate 1 (-)>>>
             <<<Displacing  43/coordinate 2 (+)>>>
             <<<Displacing  43/coordinate 3 (-)>>>
             <<<Displacing  43/coordinate 2 (-)>>>
             <<<Displacing  44/coordinate 2 (+)>>>
             <<<Displacing  44/coordinate 1 (+)>>>
             <<<Displacing  44/coordinate 2 (-)>>>
             <<<Displacing  44/coordinate 1 (-)>>>
             <<<Displacing  44/coordinate 3 (+)>>>
             <<<Displacing  44/coordinate 3 (-)>>>
             <<<Displacing  45/coordinate 1 (+)>>>
             <<<Displacing  45/coordinate 1 (-)>>>
             <<<Displacing  46/coordinate 1 (+)>>>
             <<<Displacing  45/coordinate 2 (+)>>>
             <<<Displacing  46/coordinate 1 (-)>>>
             <<<Displacing  45/coordinate 2 (-)>>>
             <<<Displacing  45/coordinate 3 (+)>>>
             <<<Displacing  47/coordinate 1 (+)>>>
             <<<Displacing  46/coordinate 3 (+)>>>
             <<<Displacing  45/coordinate 3 (-)>>>
             <<<Displacing  46/coordinate 2 (+)>>>
             <<<Displacing  46/coordinate 3 (-)>>>
             <<<Displacing  47/coordinate 1 (-)>>>
             <<<Displacing  46/coordinate 2 (-)>>>
             <<<Displacing  47/coordinate 2 (+)>>>
             <<<Displacing  47/coordinate 2 (-)>>>
             <<<Displacing  47/coordinate 3 (+)>>>
             <<<Displacing  48/coordinate 1 (+)>>>
             <<<Displacing  47/coordinate 3 (-)>>>
             <<<Displacing  48/coordinate 1 (-)>>>
             <<<Displacing  48/coordinate 2 (+)>>>
             <<<Displacing  48/coordinate 2 (-)>>>
             <<<Displacing  49/coordinate 1 (+)>>>
             <<<Displacing  49/coordinate 1 (-)>>>
             <<<Displacing  48/coordinate 3 (+)>>>
             <<<Displacing  49/coordinate 2 (+)>>>
             <<<Displacing  48/coordinate 3 (-)>>>
             <<<Displacing  49/coordinate 2 (-)>>>
             <<<Displacing  49/coordinate 3 (+)>>>
             <<<Displacing  49/coordinate 3 (-)>>>

-----------------------
VIBRATIONAL FREQUENCIES
-----------------------

Scaling factor for frequencies =  1.000000000 (already applied!)

   0:         0.00 cm**-1
   1:         0.00 cm**-1
   2:         0.00 cm**-1
   3:         0.00 cm**-1
   4:         0.00 cm**-1
   5:         0.00 cm**-1
   6:         8.12 cm**-1
   7:        22.03 cm**-1
   8:        25.01 cm**-1
   9:        26.58 cm**-1
  10:        37.96 cm**-1
  11:        50.75 cm**-1
  12:        58.87 cm**-1
  13:        67.61 cm**-1
  14:        74.20 cm**-1
  15:        79.67 cm**-1
  16:        87.34 cm**-1
  17:        92.41 cm**-1
  18:       104.15 cm**-1
  19:       112.47 cm**-1
  20:       125.68 cm**-1
  21:       134.57 cm**-1
  22:       144.48 cm**-1
  23:       156.08 cm**-1
  24:       168.80 cm**-1
  25:       176.39 cm**-1
  26:       212.87 cm**-1
  27:       220.73 cm**-1
  28:       253.58 cm**-1
  29:       268.75 cm**-1
  30:       270.47 cm**-1
  31:       276.12 cm**-1
  32:       285.80 cm**-1
  33:       314.56 cm**-1
  34:       366.54 cm**-1
  35:       384.05 cm**-1
  36:       395.06 cm**-1
  37:       397.66 cm**-1
  38:       430.41 cm**-1
  39:       441.35 cm**-1
  40:       443.76 cm**-1
  41:       476.14 cm**-1
  42:       506.32 cm**-1
  43:       511.62 cm**-1
  44:       588.48 cm**-1
  45:       624.01 cm**-1
  46:       664.42 cm**-1
  47:       669.37 cm**-1
  48:       756.03 cm**-1
  49:       764.17 cm**-1
  50:       771.74 cm**-1
  51:       803.60 cm**-1
  52:       818.76 cm**-1
  53:       823.21 cm**-1
  54:       858.56 cm**-1
  55:       879.91 cm**-1
  56:       898.09 cm**-1
  57:       915.05 cm**-1
  58:       922.37 cm**-1
  59:       932.73 cm**-1
  60:       936.19 cm**-1
  61:       937.51 cm**-1
  62:       942.09 cm**-1
  63:       949.40 cm**-1
  64:       984.80 cm**-1
  65:       992.36 cm**-1
  66:      1015.09 cm**-1
  67:      1023.18 cm**-1
  68:      1065.04 cm**-1
  69:      1067.94 cm**-1
  70:      1075.92 cm**-1
  71:      1086.77 cm**-1
  72:      1102.34 cm**-1
  73:      1106.17 cm**-1
  74:      1112.67 cm**-1
  75:      1124.86 cm**-1
  76:      1138.56 cm**-1
  77:      1142.98 cm**-1
  78:      1178.36 cm**-1
  79:      1184.71 cm**-1
  80:      1204.50 cm**-1
  81:      1211.08 cm**-1
  82:      1221.32 cm**-1
  83:      1252.21 cm**-1
  84:      1260.48 cm**-1
  85:      1268.03 cm**-1
  86:      1274.96 cm**-1
  87:      1275.89 cm**-1
  88:      1276.68 cm**-1
  89:      1280.17 cm**-1
  90:      1296.11 cm**-1
  91:      1304.70 cm**-1
  92:      1327.05 cm**-1
  93:      1336.73 cm**-1
  94:      1357.85 cm**-1
  95:      1369.68 cm**-1
  96:      1374.18 cm**-1
  97:      1423.93 cm**-1
  98:      1427.25 cm**-1
  99:      1428.03 cm**-1
 100:      1456.92 cm**-1
 101:      1467.95 cm**-1
 102:      1494.04 cm**-1
 103:      1502.04 cm**-1
 104:      1504.96 cm**-1
 105:      1506.55 cm**-1
 106:      1507.60 cm**-1
 107:      1508.62 cm**-1
 108:      1511.14 cm**-1
 109:      1512.54 cm**-1
 110:      1516.40 cm**-1
 111:      1541.94 cm**-1
 112:      1545.39 cm**-1
 113:      1561.72 cm**-1
 114:      1564.06 cm**-1
 115:      1569.51 cm**-1
 116:      1670.86 cm**-1
 117:      2809.40 cm**-1
 118:      2877.73 cm**-1
 119:      2883.40 cm**-1
 120:      2934.98 cm**-1
 121:      2941.50 cm**-1
 122:      2943.61 cm**-1
 123:      2951.57 cm**-1
 124:      2961.43 cm**-1
 125:      2963.69 cm**-1
 126:      2964.63 cm**-1
 127:      2967.44 cm**-1
 128:      2972.11 cm**-1
 129:      2973.82 cm**-1
 130:      2979.28 cm**-1
 131:      2980.67 cm**-1
 132:      2985.61 cm**-1
 133:      2986.18 cm**-1
 134:      2989.20 cm**-1
 135:      2997.96 cm**-1
 136:      2998.58 cm**-1
 137:      3045.72 cm**-1
 138:      3055.46 cm**-1
 139:      3061.37 cm**-1
 140:      3071.02 cm**-1
 141:      3079.92 cm**-1
 142:      3220.23 cm**-1
 143:      3336.77 cm**-1
 144:      3405.57 cm**-1
 145:      3579.71 cm**-1
 146:      3613.30 cm**-1


------------
NORMAL MODES
------------

These modes are the cartesian displacements weighted by the diagonal matrix
M(i,i)=1/sqrt(m[i]) where m[i] is the mass of the displaced atom
Thus, these vectors are normalized but *not* orthogonal

                  0          1          2          3          4          5    
      0       0.000000   0.000000   0.000000   0.000000   0.000000   0.000000
      1       0.000000   0.000000   0.000000   0.000000   0.000000   0.000000
      2       0.000000   0.000000   0.000000   0.000000   0.000000   0.000000
      3       0.000000   0.000000   0.000000   0.000000   0.000000   0.000000
      4       0.000000   0.000000   0.000000   0.000000   0.000000   0.000000
      5       0.000000   0.000000   0.000000   0.000000   0.000000   0.000000
      6       0.000000   0.000000   0.000000   0.000000   0.000000   0.000000
      7       0.000000   0.000000   0.000000   0.000000   0.000000   0.000000
      8       0.000000   0.000000   0.000000   0.000000   0.000000   0.000000
      9       0.000000   0.000000   0.000000   0.000000   0.000000   0.000000
     10       0.000000   0.000000   0.000000   0.000000   0.000000   0.000000
     11       0.000000   0.000000   0.000000   0.000000   0.000000   0.000000
     12       0.000000   0.000000   0.000000   0.000000   0.000000   0.000000
     13       0.000000   0.000000   0.000000   0.000000   0.000000   0.000000
     14       0.000000   0.000000   0.000000   0.000000   0.000000   0.000000
     15       0.000000   0.000000   0.000000   0.000000   0.000000   0.000000
     16       0.000000   0.000000   0.000000   0.000000   0.000000   0.000000
     17       0.000000   0.000000   0.000000   0.000000   0.000000   0.000000
     18       0.000000   0.000000   0.000000   0.000000   0.000000   0.000000
     19       0.000000   0.000000   0.000000   0.000000   0.000000   0.000000
     20       0.000000   0.000000   0.000000   0.000000   0.000000   0.000000
     21       0.000000   0.000000   0.000000   0.000000   0.000000   0.000000
     22       0.000000   0.000000   0.000000   0.000000   0.000000   0.000000
     23       0.000000   0.000000   0.000000   0.000000   0.000000   0.000000
     24       0.000000   0.000000   0.000000   0.000000   0.000000   0.000000
     25       0.000000   0.000000   0.000000   0.000000   0.000000   0.000000
     26       0.000000   0.000000   0.000000   0.000000   0.000000   0.000000
     27       0.000000   0.000000   0.000000   0.000000   0.000000   0.000000
     28       0.000000   0.000000   0.000000   0.000000   0.000000   0.000000
     29       0.000000   0.000000   0.000000   0.000000   0.000000   0.000000
     30       0.000000   0.000000   0.000000   0.000000   0.000000   0.000000
     31       0.000000   0.000000   0.000000   0.000000   0.000000   0.000000
     32       0.000000   0.000000   0.000000   0.000000   0.000000   0.000000
     33       0.000000   0.000000   0.000000   0.000000   0.000000   0.000000
     34       0.000000   0.000000   0.000000   0.000000   0.000000   0.000000
     35       0.000000   0.000000   0.000000   0.000000   0.000000   0.000000
     36       0.000000   0.000000   0.000000   0.000000   0.000000   0.000000
     37       0.000000   0.000000   0.000000   0.000000   0.000000   0.000000
     38       0.000000   0.000000   0.000000   0.000000   0.000000   0.000000
     39       0.000000   0.000000   0.000000   0.000000   0.000000   0.000000
     40       0.000000   0.000000   0.000000   0.000000   0.000000   0.000000
     41       0.000000   0.000000   0.000000   0.000000   0.000000   0.000000
     42       0.000000   0.000000   0.000000   0.000000   0.000000   0.000000
     43       0.000000   0.000000   0.000000   0.000000   0.000000   0.000000
     44       0.000000   0.000000   0.000000   0.000000   0.000000   0.000000
     45       0.000000   0.000000   0.000000   0.000000   0.000000   0.000000
     46       0.000000   0.000000   0.000000   0.000000   0.000000   0.000000
     47       0.000000   0.000000   0.000000   0.000000   0.000000   0.000000
     48       0.000000   0.000000   0.000000   0.000000   0.000000   0.000000
     49       0.000000   0.000000   0.000000   0.000000   0.000000   0.000000
     50       0.000000   0.000000   0.000000   0.000000   0.000000   0.000000
     51       0.000000   0.000000   0.000000   0.000000   0.000000   0.000000
     52       0.000000   0.000000   0.000000   0.000000   0.000000   0.000000
     53       0.000000   0.000000   0.000000   0.000000   0.000000   0.000000
     54       0.000000   0.000000   0.000000   0.000000   0.000000   0.000000
     55       0.000000   0.000000   0.000000   0.000000   0.000000   0.000000
     56       0.000000   0.000000   0.000000   0.000000   0.000000   0.000000
     57       0.000000   0.000000   0.000000   0.000000   0.000000   0.000000
     58       0.000000   0.000000   0.000000   0.000000   0.000000   0.000000
     59       0.000000   0.000000   0.000000   0.000000   0.000000   0.000000
     60       0.000000   0.000000   0.000000   0.000000   0.000000   0.000000
     61       0.000000   0.000000   0.000000   0.000000   0.000000   0.000000
     62       0.000000   0.000000   0.000000   0.000000   0.000000   0.000000
     63       0.000000   0.000000   0.000000   0.000000   0.000000   0.000000
     64       0.000000   0.000000   0.000000   0.000000   0.000000   0.000000
     65       0.000000   0.000000   0.000000   0.000000   0.000000   0.000000
     66       0.000000   0.000000   0.000000   0.000000   0.000000   0.000000
     67       0.000000   0.000000   0.000000   0.000000   0.000000   0.000000
     68       0.000000   0.000000   0.000000   0.000000   0.000000   0.000000
     69       0.000000   0.000000   0.000000   0.000000   0.000000   0.000000
     70       0.000000   0.000000   0.000000   0.000000   0.000000   0.000000
     71       0.000000   0.000000   0.000000   0.000000   0.000000   0.000000
     72       0.000000   0.000000   0.000000   0.000000   0.000000   0.000000
     73       0.000000   0.000000   0.000000   0.000000   0.000000   0.000000
     74       0.000000   0.000000   0.000000   0.000000   0.000000   0.000000
     75       0.000000   0.000000   0.000000   0.000000   0.000000   0.000000
     76       0.000000   0.000000   0.000000   0.000000   0.000000   0.000000
     77       0.000000   0.000000   0.000000   0.000000   0.000000   0.000000
     78       0.000000   0.000000   0.000000   0.000000   0.000000   0.000000
     79       0.000000   0.000000   0.000000   0.000000   0.000000   0.000000
     80       0.000000   0.000000   0.000000   0.000000   0.000000   0.000000
     81       0.000000   0.000000   0.000000   0.000000   0.000000   0.000000
     82       0.000000   0.000000   0.000000   0.000000   0.000000   0.000000
     83       0.000000   0.000000   0.000000   0.000000   0.000000   0.000000
     84       0.000000   0.000000   0.000000   0.000000   0.000000   0.000000
     85       0.000000   0.000000   0.000000   0.000000   0.000000   0.000000
     86       0.000000   0.000000   0.000000   0.000000   0.000000   0.000000
     87       0.000000   0.000000   0.000000   0.000000   0.000000   0.000000
     88       0.000000   0.000000   0.000000   0.000000   0.000000   0.000000
     89       0.000000   0.000000   0.000000   0.000000   0.000000   0.000000
     90       0.000000   0.000000   0.000000   0.000000   0.000000   0.000000
     91       0.000000   0.000000   0.000000   0.000000   0.000000   0.000000
     92       0.000000   0.000000   0.000000   0.000000   0.000000   0.000000
     93       0.000000   0.000000   0.000000   0.000000   0.000000   0.000000
     94       0.000000   0.000000   0.000000   0.000000   0.000000   0.000000
     95       0.000000   0.000000   0.000000   0.000000   0.000000   0.000000
     96       0.000000   0.000000   0.000000   0.000000   0.000000   0.000000
     97       0.000000   0.000000   0.000000   0.000000   0.000000   0.000000
     98       0.000000   0.000000   0.000000   0.000000   0.000000   0.000000
     99       0.000000   0.000000   0.000000   0.000000   0.000000   0.000000
    100       0.000000   0.000000   0.000000   0.000000   0.000000   0.000000
    101       0.000000   0.000000   0.000000   0.000000   0.000000   0.000000
    102       0.000000   0.000000   0.000000   0.000000   0.000000   0.000000
    103       0.000000   0.000000   0.000000   0.000000   0.000000   0.000000
    104       0.000000   0.000000   0.000000   0.000000   0.000000   0.000000
    105       0.000000   0.000000   0.000000   0.000000   0.000000   0.000000
    106       0.000000   0.000000   0.000000   0.000000   0.000000   0.000000
    107       0.000000   0.000000   0.000000   0.000000   0.000000   0.000000
    108       0.000000   0.000000   0.000000   0.000000   0.000000   0.000000
    109       0.000000   0.000000   0.000000   0.000000   0.000000   0.000000
    110       0.000000   0.000000   0.000000   0.000000   0.000000   0.000000
    111       0.000000   0.000000   0.000000   0.000000   0.000000   0.000000
    112       0.000000   0.000000   0.000000   0.000000   0.000000   0.000000
    113       0.000000   0.000000   0.000000   0.000000   0.000000   0.000000
    114       0.000000   0.000000   0.000000   0.000000   0.000000   0.000000
    115       0.000000   0.000000   0.000000   0.000000   0.000000   0.000000
    116       0.000000   0.000000   0.000000   0.000000   0.000000   0.000000
    117       0.000000   0.000000   0.000000   0.000000   0.000000   0.000000
    118       0.000000   0.000000   0.000000   0.000000   0.000000   0.000000
    119       0.000000   0.000000   0.000000   0.000000   0.000000   0.000000
    120       0.000000   0.000000   0.000000   0.000000   0.000000   0.000000
    121       0.000000   0.000000   0.000000   0.000000   0.000000   0.000000
    122       0.000000   0.000000   0.000000   0.000000   0.000000   0.000000
    123       0.000000   0.000000   0.000000   0.000000   0.000000   0.000000
    124       0.000000   0.000000   0.000000   0.000000   0.000000   0.000000
    125       0.000000   0.000000   0.000000   0.000000   0.000000   0.000000
    126       0.000000   0.000000   0.000000   0.000000   0.000000   0.000000
    127       0.000000   0.000000   0.000000   0.000000   0.000000   0.000000
    128       0.000000   0.000000   0.000000   0.000000   0.000000   0.000000
    129       0.000000   0.000000   0.000000   0.000000   0.000000   0.000000
    130       0.000000   0.000000   0.000000   0.000000   0.000000   0.000000
    131       0.000000   0.000000   0.000000   0.000000   0.000000   0.000000
    132       0.000000   0.000000   0.000000   0.000000   0.000000   0.000000
    133       0.000000   0.000000   0.000000   0.000000   0.000000   0.000000
    134       0.000000   0.000000   0.000000   0.000000   0.000000   0.000000
    135       0.000000   0.000000   0.000000   0.000000   0.000000   0.000000
    136       0.000000   0.000000   0.000000   0.000000   0.000000   0.000000
    137       0.000000   0.000000   0.000000   0.000000   0.000000   0.000000
    138       0.000000   0.000000   0.000000   0.000000   0.000000   0.000000
    139       0.000000   0.000000   0.000000   0.000000   0.000000   0.000000
    140       0.000000   0.000000   0.000000   0.000000   0.000000   0.000000
    141       0.000000   0.000000   0.000000   0.000000   0.000000   0.000000
    142       0.000000   0.000000   0.000000   0.000000   0.000000   0.000000
    143       0.000000   0.000000   0.000000   0.000000   0.000000   0.000000
    144       0.000000   0.000000   0.000000   0.000000   0.000000   0.000000
    145       0.000000   0.000000   0.000000   0.000000   0.000000   0.000000
    146       0.000000   0.000000   0.000000   0.000000   0.000000   0.000000
                  6          7          8          9         10         11    
      0      -0.017119  -0.077766   0.050366   0.013818  -0.035104  -0.010037
      1       0.001278  -0.017946  -0.022873  -0.019929   0.065007  -0.005191
      2      -0.023148  -0.036524  -0.037813  -0.008703  -0.031668  -0.031469
      3      -0.003981  -0.077716   0.069501   0.022841  -0.030528  -0.005743
      4      -0.010019  -0.029611   0.010038  -0.034280   0.074507   0.090581
      5      -0.015392  -0.033396  -0.039715  -0.001734  -0.032563  -0.055395
      6       0.006429  -0.081905   0.087427   0.026882  -0.034894   0.002417
      7      -0.023876  -0.007818   0.011254  -0.025692   0.134923   0.122977
      8      -0.019052  -0.038962  -0.056449  -0.009201  -0.054784  -0.076536
      9       0.004520  -0.085381   0.085957   0.022661  -0.042314   0.006583
     10      -0.028258   0.021142  -0.016590  -0.004719   0.182115   0.063494
     11      -0.030091  -0.046502  -0.072847  -0.023182  -0.074364  -0.074762
     12      -0.008172  -0.084662   0.066752   0.013819  -0.045204   0.003736
     13      -0.018931   0.029137  -0.046586   0.011934   0.168003  -0.038601
     14      -0.037436  -0.048385  -0.072203  -0.030935  -0.071504  -0.048323
     15      -0.019022  -0.080969   0.049180   0.009452  -0.041155  -0.004207
     16      -0.003627   0.010887  -0.051019   0.006092   0.109874  -0.075492
     17      -0.034479  -0.043910  -0.054849  -0.024462  -0.049526  -0.025371
     18      -0.030989  -0.075346   0.030926   0.006497  -0.029822  -0.018752
     19       0.018854  -0.031377  -0.030778  -0.032492   0.017442  -0.017698
     20      -0.018047  -0.033648  -0.018318   0.001662  -0.017775  -0.020277
     21      -0.002820  -0.074233   0.069856   0.026347  -0.023199  -0.009242
     22      -0.005451  -0.058239   0.035738  -0.052698   0.033985   0.137775
     23      -0.008259  -0.025373  -0.029308   0.008932  -0.012646  -0.055576
     24      -0.029119  -0.081071   0.033966   0.004712  -0.043525  -0.004602
     25       0.003654   0.016670  -0.076924   0.021824   0.097852  -0.161415
     26      -0.040336  -0.045628  -0.053630  -0.030880  -0.046849  -0.002075
     27       0.012896  -0.088440   0.099908   0.026187  -0.045731   0.012399
     28      -0.038687   0.036857  -0.014826  -0.000222   0.229088   0.092986
     29      -0.033046  -0.050652  -0.086128  -0.028317  -0.091651  -0.092832
     30      -0.030184  -0.075461   0.032711   0.007315  -0.031559  -0.016943
     31      -0.009542  -0.059361  -0.010286  -0.041700  -0.015341   0.052171
     32       0.012735  -0.023875  -0.003759   0.011958  -0.015410  -0.040678
     33      -0.050781  -0.075417   0.012043   0.002930  -0.022407  -0.014836
     34      -0.000286  -0.069576  -0.025389  -0.050514  -0.037904   0.046556
     35       0.023956  -0.019822   0.015678   0.018661  -0.014557  -0.040297
     36      -0.059757   0.087676  -0.068548   0.019123  -0.015579   0.021637
     37       0.007304   0.121605  -0.037436   0.028978  -0.157396   0.101765
     38       0.043586   0.106265  -0.045015   0.105399   0.047846   0.010602
     39       0.064311  -0.079047  -0.041547  -0.029628  -0.051337   0.009216
     40      -0.117203  -0.062188   0.045875  -0.011304  -0.005991   0.019133
     41       0.015074  -0.009536   0.067154   0.037336  -0.006048  -0.050067
     42      -0.059549  -0.075687  -0.007595  -0.002416  -0.015815  -0.009337
     43       0.111341  -0.080004  -0.099493  -0.090070  -0.072929   0.065191
     44      -0.034991  -0.015730   0.034430   0.032493   0.007125  -0.044706
     45      -0.153578  -0.073984   0.059173   0.032693   0.002137  -0.032326
     46      -0.024094  -0.072757  -0.016221  -0.044636  -0.038159   0.040408
     47       0.111754  -0.029335  -0.028932  -0.009055  -0.050153  -0.029285
     48       0.085478  -0.093513  -0.023310  -0.036476  -0.054862  -0.022324
     49      -0.220666  -0.041350   0.113724   0.031328   0.023557   0.009158
     50       0.076328  -0.029280   0.049789   0.013365  -0.021733  -0.067962
     51       0.162684  -0.082906  -0.085714  -0.057337  -0.077206   0.030756
     52      -0.096478  -0.052193   0.037394  -0.011435  -0.011118   0.039796
     53      -0.075947   0.021534   0.110026   0.077610   0.018530  -0.028712
     54       0.041704   0.168473   0.155684  -0.408693   0.059674  -0.076811
     55       0.044032   0.159010   0.085944   0.042493  -0.064890  -0.348586
     56       0.032886   0.073143   0.222211  -0.000153   0.006612   0.302794
     57      -0.044269  -0.071922   0.014521   0.001062  -0.024173  -0.025323
     58       0.061671  -0.010274  -0.060713  -0.037468   0.017479  -0.089681
     59      -0.041459  -0.040324  -0.015885  -0.000216  -0.014142   0.003833
     60       0.041525   0.115111   0.107948  -0.453678   0.157230  -0.091810
     61       0.046432   0.107798   0.065538  -0.078790   0.029812  -0.325138
     62       0.037637   0.143931   0.327373  -0.069321  -0.119966   0.384709
     63      -0.004737   0.070774  -0.110077  -0.014408   0.105139   0.002802
     64      -0.003939   0.183870   0.063008   0.081066  -0.287494   0.071044
     65       0.052533   0.023640   0.144009   0.104398   0.182847   0.009324
     66       0.023981   0.140535   0.067656  -0.265994   0.062182  -0.051353
     67       0.026790   0.177156   0.087285   0.066673  -0.162789  -0.196756
     68       0.039975   0.050488   0.193293   0.027431   0.080465   0.197834
     69      -0.000716   0.054839  -0.119766  -0.022954   0.149634   0.017397
     70       0.000503   0.172536   0.053057   0.094125  -0.249279   0.031773
     71       0.059899   0.008846   0.128070   0.140483   0.239053  -0.090600
     72      -0.007434   0.079105  -0.109863  -0.007199   0.078753  -0.008118
     73      -0.006425   0.164140   0.029155   0.073210  -0.259785   0.099063
     74       0.038633   0.013943   0.089182   0.116288   0.150274   0.022830
     75      -0.035410   0.082717  -0.132480  -0.036418   0.016197  -0.001777
     76       0.049189   0.182982  -0.086450   0.036362  -0.159377   0.081330
     77      -0.001530  -0.005681  -0.024014   0.040576   0.086751   0.022414
     78       0.016203  -0.082006   0.102199   0.033537  -0.032696   0.004665
     79      -0.030884  -0.015295   0.035011  -0.036542   0.143851   0.196029
     80      -0.013551  -0.037082  -0.057148  -0.003915  -0.056312  -0.094754
     81      -0.009569  -0.086993   0.065479   0.010206  -0.050263   0.007423
     82      -0.022770   0.050021  -0.067354   0.030002   0.202501  -0.089664
     83      -0.045594  -0.053482  -0.084832  -0.042727  -0.086011  -0.045637
     84       0.021908  -0.059709  -0.058133  -0.015729  -0.043086   0.047754
     85      -0.118532  -0.093939   0.034938  -0.030251  -0.007027  -0.024063
     86       0.049199  -0.015209   0.083768   0.032132  -0.012663  -0.067376
     87      -0.070055  -0.049644  -0.024472   0.005145  -0.022620   0.024572
     88      -0.134023  -0.102931   0.039069  -0.032833  -0.003580  -0.044197
     89       0.133437  -0.051291   0.049242  -0.002269  -0.031713  -0.086752
     90       0.002360  -0.046965  -0.074251  -0.007902  -0.039083   0.079408
     91      -0.022069  -0.121615  -0.019652  -0.063159  -0.028722  -0.011335
     92      -0.009671   0.006743   0.097551   0.052992   0.000296  -0.050555
     93      -0.025685   0.094964  -0.098308   0.019588   0.023058  -0.000488
     94       0.012278   0.114627  -0.041590   0.025670  -0.144974   0.097069
     95       0.015766   0.022639  -0.018585   0.076153   0.086344   0.018095
     96       0.009761   0.107636  -0.069523   0.093978   0.055019  -0.014057
     97       0.019688   0.016890  -0.025863   0.002721  -0.070161   0.076705
     98      -0.008966  -0.003090  -0.037335   0.016849   0.075612   0.024799
     99       0.010681   0.120078  -0.040724   0.146889   0.063357  -0.010468
    100      -0.037566  -0.052084   0.005567  -0.025600  -0.054185   0.092790
    101       0.014326   0.032408  -0.031079   0.062527   0.074715   0.020847
    102       0.070945   0.103288  -0.082560   0.111164   0.091301  -0.047415
    103       0.024680   0.004848  -0.024940   0.000603  -0.059763   0.071919
    104      -0.046930  -0.092240  -0.014411  -0.022060   0.113275   0.029090
    105      -0.033884   0.113822  -0.062348   0.082622   0.031847   0.010249
    106       0.097679   0.011657  -0.045452   0.018170  -0.033421   0.034102
    107      -0.019172   0.045550  -0.093561  -0.045800   0.018073   0.037595
    108      -0.101688   0.125607  -0.058062   0.057607  -0.003075   0.048243
    109       0.089105   0.031020  -0.047451   0.020312  -0.046027   0.040590
    110      -0.002866   0.112574  -0.105619  -0.020879  -0.007344   0.036912
    111      -0.020827   0.110724  -0.092874   0.044050   0.023010   0.003684
    112       0.143712   0.058325  -0.066891   0.036471  -0.040301   0.014976
    113      -0.034170   0.018394  -0.104648  -0.083888   0.015218   0.043042
    114      -0.008589   0.109817  -0.023308   0.152075   0.067237  -0.005100
    115       0.131897  -0.079033  -0.033784   0.008621   0.023249   0.005881
    116      -0.033480   0.044524  -0.116571  -0.087648  -0.000659   0.045973
    117      -0.020214   0.121838  -0.000846   0.190656   0.079358   0.000499
    118       0.091968  -0.097816  -0.028387  -0.002023   0.036660   0.023111
    119      -0.020399   0.063998  -0.102434  -0.052388   0.001158   0.040758
    120       0.055745   0.075842  -0.014437   0.171273   0.092856  -0.041511
    121       0.139830  -0.098335  -0.031491   0.006420   0.034858  -0.000312
    122      -0.043225  -0.006251  -0.113511  -0.107434   0.026830   0.045184
    123       0.123983  -0.071453  -0.094951  -0.038006  -0.065722   0.074238
    124      -0.223188  -0.077374   0.088342  -0.003328   0.016168  -0.056399
    125       0.051363  -0.003322   0.124577   0.042612  -0.013049  -0.080677
    126       0.142666  -0.082377  -0.078974  -0.041008  -0.067585   0.050830
    127      -0.318488  -0.051048   0.138793   0.024554   0.035383  -0.073044
    128       0.110608  -0.024229   0.113553   0.027192  -0.023518  -0.091330
    129       0.092129  -0.059232  -0.105891  -0.032006  -0.060775   0.093945
    130      -0.221384  -0.097407   0.081417  -0.011314   0.018410  -0.078155
    131       0.075002  -0.006923   0.134806   0.040306  -0.017435  -0.089417
    132       0.213457  -0.082104  -0.126937  -0.057288  -0.085350   0.097163
    133      -0.208783  -0.070393   0.083756  -0.003508   0.011753  -0.041352
    134      -0.028838   0.029493   0.154801   0.067789   0.001177  -0.070880
    135      -0.052766   0.134094  -0.026963   0.144010   0.052536   0.019495
    136       0.209883  -0.118372  -0.032598   0.016169   0.043373  -0.036750
    137      -0.054177   0.083357  -0.159617  -0.147084  -0.055924   0.062850
[...]
  29:       268.75    0.000000  (  0.000000   0.000000   0.000000)
  30:       270.47    0.000000  (  0.000000   0.000000   0.000000)
  31:       276.12    0.000000  (  0.000000   0.000000   0.000000)
  32:       285.80    0.000000  (  0.000000   0.000000   0.000000)
  33:       314.56    0.000000  (  0.000000   0.000000   0.000000)
  34:       366.54    0.000000  (  0.000000   0.000000   0.000000)
  35:       384.05    0.000000  (  0.000000   0.000000   0.000000)
  36:       395.06    0.000000  (  0.000000   0.000000   0.000000)
  37:       397.66    0.000000  (  0.000000   0.000000   0.000000)
  38:       430.41    0.000000  (  0.000000   0.000000   0.000000)
  39:       441.35    0.000000  (  0.000000   0.000000   0.000000)
  40:       443.76    0.000000  (  0.000000   0.000000   0.000000)
  41:       476.14    0.000000  (  0.000000   0.000000   0.000000)
  42:       506.32    0.000000  (  0.000000   0.000000   0.000000)
  43:       511.62    0.000000  (  0.000000   0.000000   0.000000)
  44:       588.48    0.000000  (  0.000000   0.000000   0.000000)
  45:       624.01    0.000000  (  0.000000   0.000000   0.000000)
  46:       664.42    0.000000  (  0.000000   0.000000   0.000000)
  47:       669.37    0.000000  (  0.000000   0.000000   0.000000)
  48:       756.03    0.000000  (  0.000000   0.000000   0.000000)
  49:       764.17    0.000000  (  0.000000   0.000000   0.000000)
  50:       771.74    0.000000  (  0.000000   0.000000   0.000000)
  51:       803.60    0.000000  (  0.000000   0.000000   0.000000)
  52:       818.76    0.000000  (  0.000000   0.000000   0.000000)
  53:       823.21    0.000000  (  0.000000   0.000000   0.000000)
  54:       858.56    0.000000  (  0.000000   0.000000   0.000000)
  55:       879.91    0.000000  (  0.000000   0.000000   0.000000)
  56:       898.09    0.000000  (  0.000000   0.000000   0.000000)
  57:       915.05    0.000000  (  0.000000   0.000000   0.000000)
  58:       922.37    0.000000  (  0.000000   0.000000   0.000000)
  59:       932.73    0.000000  (  0.000000   0.000000   0.000000)
  60:       936.19    0.000000  (  0.000000   0.000000   0.000000)
  61:       937.51    0.000000  (  0.000000   0.000000   0.000000)
  62:       942.09    0.000000  (  0.000000   0.000000   0.000000)
  63:       949.40    0.000000  (  0.000000   0.000000   0.000000)
  64:       984.80    0.000000  (  0.000000   0.000000   0.000000)
  65:       992.36    0.000000  (  0.000000   0.000000   0.000000)
  66:      1015.09    0.000000  (  0.000000   0.000000   0.000000)
  67:      1023.18    0.000000  (  0.000000   0.000000   0.000000)
  68:      1065.04    0.000000  (  0.000000   0.000000   0.000000)
  69:      1067.94    0.000000  (  0.000000   0.000000   0.000000)
  70:      1075.92    0.000000  (  0.000000   0.000000   0.000000)
  71:      1086.77    0.000000  (  0.000000   0.000000   0.000000)
  72:      1102.34    0.000000  (  0.000000   0.000000   0.000000)
  73:      1106.17    0.000000  (  0.000000   0.000000   0.000000)
  74:      1112.67    0.000000  (  0.000000   0.000000   0.000000)
  75:      1124.86    0.000000  (  0.000000   0.000000   0.000000)
  76:      1138.56    0.000000  (  0.000000   0.000000   0.000000)
  77:      1142.98    0.000000  (  0.000000   0.000000   0.000000)
  78:      1178.36    0.000000  (  0.000000   0.000000   0.000000)
  79:      1184.71    0.000000  (  0.000000   0.000000   0.000000)
  80:      1204.50    0.000000  (  0.000000   0.000000   0.000000)
  81:      1211.08    0.000000  (  0.000000   0.000000   0.000000)
  82:      1221.32    0.000000  (  0.000000   0.000000   0.000000)
  83:      1252.21    0.000000  (  0.000000   0.000000   0.000000)
  84:      1260.48    0.000000  (  0.000000   0.000000   0.000000)
  85:      1268.03    0.000000  (  0.000000   0.000000   0.000000)
  86:      1274.96    0.000000  (  0.000000   0.000000   0.000000)
  87:      1275.89    0.000000  (  0.000000   0.000000   0.000000)
  88:      1276.68    0.000000  (  0.000000   0.000000   0.000000)
  89:      1280.17    0.000000  (  0.000000   0.000000   0.000000)
  90:      1296.11    0.000000  (  0.000000   0.000000   0.000000)
  91:      1304.70    0.000000  (  0.000000   0.000000   0.000000)
  92:      1327.05    0.000000  (  0.000000   0.000000   0.000000)
  93:      1336.73    0.000000  (  0.000000   0.000000   0.000000)
  94:      1357.85    0.000000  (  0.000000   0.000000   0.000000)
  95:      1369.68    0.000000  (  0.000000   0.000000   0.000000)
  96:      1374.18    0.000000  (  0.000000   0.000000   0.000000)
  97:      1423.93    0.000000  (  0.000000   0.000000   0.000000)
  98:      1427.25    0.000000  (  0.000000   0.000000   0.000000)
  99:      1428.03    0.000000  (  0.000000   0.000000   0.000000)
 100:      1456.92    0.000000  (  0.000000   0.000000   0.000000)
 101:      1467.95    0.000000  (  0.000000   0.000000   0.000000)
 102:      1494.04    0.000000  (  0.000000   0.000000   0.000000)
 103:      1502.04    0.000000  (  0.000000   0.000000   0.000000)
 104:      1504.96    0.000000  (  0.000000   0.000000   0.000000)
 105:      1506.55    0.000000  (  0.000000   0.000000   0.000000)
 106:      1507.60    0.000000  (  0.000000   0.000000   0.000000)
 107:      1508.62    0.000000  (  0.000000   0.000000   0.000000)
 108:      1511.14    0.000000  (  0.000000   0.000000   0.000000)
 109:      1512.54    0.000000  (  0.000000   0.000000   0.000000)
 110:      1516.40    0.000000  (  0.000000   0.000000   0.000000)
 111:      1541.94    0.000000  (  0.000000   0.000000   0.000000)
 112:      1545.39    0.000000  (  0.000000   0.000000   0.000000)
 113:      1561.72    0.000000  (  0.000000   0.000000   0.000000)
 114:      1564.06    0.000000  (  0.000000   0.000000   0.000000)
 115:      1569.51    0.000000  (  0.000000   0.000000   0.000000)
 116:      1670.86    0.000000  (  0.000000   0.000000   0.000000)
 117:      2809.40    0.000000  (  0.000000   0.000000   0.000000)
 118:      2877.73    0.000000  (  0.000000   0.000000   0.000000)
 119:      2883.40    0.000000  (  0.000000   0.000000   0.000000)
 120:      2934.98    0.000000  (  0.000000   0.000000   0.000000)
 121:      2941.50    0.000000  (  0.000000   0.000000   0.000000)
 122:      2943.61    0.000000  (  0.000000   0.000000   0.000000)
 123:      2951.57    0.000000  (  0.000000   0.000000   0.000000)
 124:      2961.43    0.000000  (  0.000000   0.000000   0.000000)
 125:      2963.69    0.000000  (  0.000000   0.000000   0.000000)
 126:      2964.63    0.000000  (  0.000000   0.000000   0.000000)
 127:      2967.44    0.000000  (  0.000000   0.000000   0.000000)
 128:      2972.11    0.000000  (  0.000000   0.000000   0.000000)
 129:      2973.82    0.000000  (  0.000000   0.000000   0.000000)
 130:      2979.28    0.000000  (  0.000000   0.000000   0.000000)
 131:      2980.67    0.000000  (  0.000000   0.000000   0.000000)
 132:      2985.61    0.000000  (  0.000000   0.000000   0.000000)
 133:      2986.18    0.000000  (  0.000000   0.000000   0.000000)
 134:      2989.20    0.000000  (  0.000000   0.000000   0.000000)
 135:      2997.96    0.000000  (  0.000000   0.000000   0.000000)
 136:      2998.58    0.000000  (  0.000000   0.000000   0.000000)
 137:      3045.72    0.000000  (  0.000000   0.000000   0.000000)
 138:      3055.46    0.000000  (  0.000000   0.000000   0.000000)
 139:      3061.37    0.000000  (  0.000000   0.000000   0.000000)
 140:      3071.02    0.000000  (  0.000000   0.000000   0.000000)
 141:      3079.92    0.000000  (  0.000000   0.000000   0.000000)
 142:      3220.23    0.000000  (  0.000000   0.000000   0.000000)
 143:      3336.77    0.000000  (  0.000000   0.000000   0.000000)
 144:      3405.57    0.000000  (  0.000000   0.000000   0.000000)
 145:      3579.71    0.000000  (  0.000000   0.000000   0.000000)
 146:      3613.30    0.000000  (  0.000000   0.000000   0.000000)

The first frequency considered to be a vibration is 6
The total number of vibrations considered is 141


--------------------------
THERMOCHEMISTRY AT 298.15K
--------------------------

Temperature         ... 298.15 K
Pressure            ... 1.00 atm
Total Mass          ... 270.42 AMU

Throughout the following assumptions are being made:
  (1) The electronic state is orbitally nondegenerate
  (2) There are no thermally accessible electronically excited states
  (3) Hindered rotations indicated by low frequency modes are not
      treated as such but are treated as vibrations and this may
      cause some error
  (4) All equations used are the standard statistical mechanics
      equations for an ideal gas
  (5) All vibrations are strictly harmonic

freq.       8.12  E(vib)   ...       0.58 
freq.      22.03  E(vib)   ...       0.56 
freq.      25.01  E(vib)   ...       0.56 
freq.      26.58  E(vib)   ...       0.56 
freq.      37.96  E(vib)   ...       0.54 
freq.      50.75  E(vib)   ...       0.52 
freq.      58.87  E(vib)   ...       0.51 
freq.      67.61  E(vib)   ...       0.50 
freq.      74.20  E(vib)   ...       0.49 
freq.      79.67  E(vib)   ...       0.49 
freq.      87.34  E(vib)   ...       0.48 
freq.      92.41  E(vib)   ...       0.47 
freq.     104.15  E(vib)   ...       0.46 
freq.     112.47  E(vib)   ...       0.45 
freq.     125.68  E(vib)   ...       0.43 
freq.     134.57  E(vib)   ...       0.42 
freq.     144.48  E(vib)   ...       0.41 
freq.     156.08  E(vib)   ...       0.40 
freq.     168.80  E(vib)   ...       0.38 
freq.     176.39  E(vib)   ...       0.38 
freq.     212.87  E(vib)   ...       0.34 
freq.     220.73  E(vib)   ...       0.33 
freq.     253.58  E(vib)   ...       0.30 
freq.     268.75  E(vib)   ...       0.29 
freq.     270.47  E(vib)   ...       0.29 
freq.     276.12  E(vib)   ...       0.28 
freq.     285.80  E(vib)   ...       0.27 
freq.     314.56  E(vib)   ...       0.25 
freq.     366.54  E(vib)   ...       0.22 
freq.     384.05  E(vib)   ...       0.20 
freq.     395.06  E(vib)   ...       0.20 
freq.     397.66  E(vib)   ...       0.20 
freq.     430.41  E(vib)   ...       0.18 
freq.     441.35  E(vib)   ...       0.17 
freq.     443.76  E(vib)   ...       0.17 
freq.     476.14  E(vib)   ...       0.15 
freq.     506.32  E(vib)   ...       0.14 
freq.     511.62  E(vib)   ...       0.14 
freq.     588.48  E(vib)   ...       0.10 
freq.     624.01  E(vib)   ...       0.09 
freq.     664.42  E(vib)   ...       0.08 
freq.     669.37  E(vib)   ...       0.08 
freq.     756.03  E(vib)   ...       0.06 
freq.     764.17  E(vib)   ...       0.06 
freq.     771.74  E(vib)   ...       0.05 
freq.     803.60  E(vib)   ...       0.05 
freq.     818.76  E(vib)   ...       0.05 
freq.     823.21  E(vib)   ...       0.05 
freq.     858.56  E(vib)   ...       0.04 
freq.     879.91  E(vib)   ...       0.04 
freq.     898.09  E(vib)   ...       0.03 
freq.     915.05  E(vib)   ...       0.03 
freq.     922.37  E(vib)   ...       0.03 
freq.     932.73  E(vib)   ...       0.03 
freq.     936.19  E(vib)   ...       0.03 
freq.     937.51  E(vib)   ...       0.03 
freq.     942.09  E(vib)   ...       0.03 
freq.     949.40  E(vib)   ...       0.03 
freq.     984.80  E(vib)   ...       0.02 
freq.     992.36  E(vib)   ...       0.02 
freq.    1015.09  E(vib)   ...       0.02 
freq.    1023.18  E(vib)   ...       0.02 
freq.    1065.04  E(vib)   ...       0.02 
freq.    1067.94  E(vib)   ...       0.02 
freq.    1075.92  E(vib)   ...       0.02 
freq.    1086.77  E(vib)   ...       0.02 
freq.    1102.34  E(vib)   ...       0.02 
freq.    1106.17  E(vib)   ...       0.02 
freq.    1112.67  E(vib)   ...       0.01 
freq.    1124.86  E(vib)   ...       0.01 
freq.    1138.56  E(vib)   ...       0.01 
freq.    1142.98  E(vib)   ...       0.01 
freq.    1178.36  E(vib)   ...       0.01 
freq.    1184.71  E(vib)   ...       0.01 
freq.    1204.50  E(vib)   ...       0.01 
freq.    1211.08  E(vib)   ...       0.01 
freq.    1221.32  E(vib)   ...       0.01 
freq.    1252.21  E(vib)   ...       0.01 
freq.    1260.48  E(vib)   ...       0.01 
freq.    1268.03  E(vib)   ...       0.01 
freq.    1274.96  E(vib)   ...       0.01 
freq.    1275.89  E(vib)   ...       0.01 
freq.    1276.68  E(vib)   ...       0.01 
freq.    1280.17  E(vib)   ...       0.01 
freq.    1296.11  E(vib)   ...       0.01 
freq.    1304.70  E(vib)   ...       0.01 
freq.    1327.05  E(vib)   ...       0.01 
freq.    1336.73  E(vib)   ...       0.01 
freq.    1357.85  E(vib)   ...       0.01 
freq.    1369.68  E(vib)   ...       0.01 
freq.    1374.18  E(vib)   ...       0.01 
freq.    1423.93  E(vib)   ...       0.00 
freq.    1427.25  E(vib)   ...       0.00 
freq.    1428.03  E(vib)   ...       0.00 
freq.    1456.92  E(vib)   ...       0.00 
freq.    1467.95  E(vib)   ...       0.00 
freq.    1494.04  E(vib)   ...       0.00 
freq.    1502.04  E(vib)   ...       0.00 
freq.    1504.96  E(vib)   ...       0.00 
freq.    1506.55  E(vib)   ...       0.00 
freq.    1507.60  E(vib)   ...       0.00 
freq.    1508.62  E(vib)   ...       0.00 
freq.    1511.14  E(vib)   ...       0.00 
freq.    1512.54  E(vib)   ...       0.00 
freq.    1516.40  E(vib)   ...       0.00 
freq.    1541.94  E(vib)   ...       0.00 
freq.    1545.39  E(vib)   ...       0.00 
freq.    1561.72  E(vib)   ...       0.00 
freq.    1564.06  E(vib)   ...       0.00 
freq.    1569.51  E(vib)   ...       0.00 
freq.    1670.86  E(vib)   ...       0.00 
freq.    2809.40  E(vib)   ...       0.00 
freq.    2877.73  E(vib)   ...       0.00 
freq.    2883.40  E(vib)   ...       0.00 
freq.    2934.98  E(vib)   ...       0.00 
freq.    2941.50  E(vib)   ...       0.00 
freq.    2943.61  E(vib)   ...       0.00 
freq.    2951.57  E(vib)   ...       0.00 
freq.    2961.43  E(vib)   ...       0.00 
freq.    2963.69  E(vib)   ...       0.00 
freq.    2964.63  E(vib)   ...       0.00 
freq.    2967.44  E(vib)   ...       0.00 
freq.    2972.11  E(vib)   ...       0.00 
freq.    2973.82  E(vib)   ...       0.00 
freq.    2979.28  E(vib)   ...       0.00 
freq.    2980.67  E(vib)   ...       0.00 
freq.    2985.61  E(vib)   ...       0.00 
freq.    2986.18  E(vib)   ...       0.00 
freq.    2989.20  E(vib)   ...       0.00 
freq.    2997.96  E(vib)   ...       0.00 
freq.    2998.58  E(vib)   ...       0.00 
freq.    3045.72  E(vib)   ...       0.00 
freq.    3055.46  E(vib)   ...       0.00 
freq.    3061.37  E(vib)   ...       0.00 
freq.    3071.02  E(vib)   ...       0.00 
freq.    3079.92  E(vib)   ...       0.00 
freq.    3220.23  E(vib)   ...       0.00 
freq.    3336.77  E(vib)   ...       0.00 
freq.    3405.57  E(vib)   ...       0.00 
freq.    3579.71  E(vib)   ...       0.00 
freq.    3613.30  E(vib)   ...       0.00 

------------
INNER ENERGY
------------

The inner energy is: U= E(el) + E(ZPE) + E(vib) + E(rot) + E(trans)
    E(el)   - is the total energy from the electronic structure calculation
              = E(kin-el) + E(nuc-el) + E(el-el) + E(nuc-nuc)
    E(ZPE)  - the the zero temperature vibrational energy from the frequency calculation
    E(vib)  - the the finite temperature correction to E(ZPE) due to population
              of excited vibrational states
    E(rot)  - is the rotational thermal energy
    E(trans)- is the translational thermal energy

Summary of contributions to the inner energy U:
Electronic energy                ...    -61.38191776 Eh
Zero point energy                ...      0.42308158 Eh     265.49 kcal/mol
Thermal vibrational correction   ...      0.02411416 Eh      15.13 kcal/mol
Thermal rotational correction    ...      0.00141627 Eh       0.89 kcal/mol
Thermal translational correction ...      0.00141627 Eh       0.89 kcal/mol
-----------------------------------------------------------------------
Total thermal energy                    -60.93188949 Eh


Summary of corrections to the electronic energy:
(perhaps to be used in another calculation)
Total thermal correction                  0.02694670 Eh      16.91 kcal/mol
Non-thermal (ZPE) correction              0.42308158 Eh     265.49 kcal/mol
-----------------------------------------------------------------------
Total correction                          0.45002828 Eh     282.40 kcal/mol


--------
ENTHALPY
--------

The enthalpy is H = U + kB*T
                kB is Boltzmann's constant
Total free energy                 ...    -60.93188949 Eh 
Thermal Enthalpy correction       ...      0.00094421 Eh       0.59 kcal/mol
-----------------------------------------------------------------------
Total Enthalpy                    ...    -60.93094528 Eh


Note: Only C1 symmetry has been detected, increase convergence thresholds 
      if your molecule has a higher symmetry. Symmetry factor of 1.0 is   
      used for the rotational entropy correction. 
 

Note: Rotational entropy computed according to Herzberg 
Infrared and Raman Spectra, Chapter V,1, Van Nostrand Reinhold, 1945 
Point Group:  C1, Symmetry Number:   1  
Rotational constants in cm-1:     0.014175     0.005911     0.004926 

Vibrational entropy computed according to the QRRHO of S. Grimme
Chem.Eur.J. 2012 18 9955


-------
ENTROPY
-------

The entropy contributions are T*S = T*(S(el)+S(vib)+S(rot)+S(trans))
     S(el)   - electronic entropy
     S(vib)  - vibrational entropy
     S(rot)  - rotational entropy
     S(trans)- translational entropy
The entropies will be listed as mutliplied by the temperature to get
units of energy

Electronic entropy                ...      0.00000000 Eh      0.00 kcal/mol
Vibrational entropy               ...      0.04535873 Eh     28.46 kcal/mol
Rotational entropy                ...      0.01645075 Eh     10.32 kcal/mol
Translational entropy             ...      0.02028014 Eh     12.73 kcal/mol
-----------------------------------------------------------------------
Final entropy term                ...      0.08208962 Eh     51.51 kcal/mol

In case the symmetry of your molecule has not been determined correctly
or in case you have a reason to use a different symmetry number we print 
out the resulting rotational entropy values for sn=1,12 :
 --------------------------------------------------------
|  sn= 1 | S(rot)=       0.01645075 Eh     10.32 kcal/mol|
|  sn= 2 | S(rot)=       0.01579630 Eh      9.91 kcal/mol|
|  sn= 3 | S(rot)=       0.01541347 Eh      9.67 kcal/mol|
|  sn= 4 | S(rot)=       0.01514184 Eh      9.50 kcal/mol|
|  sn= 5 | S(rot)=       0.01493115 Eh      9.37 kcal/mol|
|  sn= 6 | S(rot)=       0.01475901 Eh      9.26 kcal/mol|
|  sn= 7 | S(rot)=       0.01461346 Eh      9.17 kcal/mol|
|  sn= 8 | S(rot)=       0.01448739 Eh      9.09 kcal/mol|
|  sn= 9 | S(rot)=       0.01437618 Eh      9.02 kcal/mol|
|  sn=10 | S(rot)=       0.01427670 Eh      8.96 kcal/mol|
|  sn=11 | S(rot)=       0.01418671 Eh      8.90 kcal/mol|
|  sn=12 | S(rot)=       0.01410455 Eh      8.85 kcal/mol|
 --------------------------------------------------------


-------------------
GIBBS FREE ENERGY
-------------------

The Gibbs free energy is G = H - T*S

Total enthalpy                    ...    -60.93094528 Eh 
Total entropy correction          ...     -0.08208962 Eh    -51.51 kcal/mol
-----------------------------------------------------------------------
Final Gibbs free energy         ...    -61.01303490 Eh

For completeness - the Gibbs free energy minus the electronic energy
G-E(el)                           ...      0.36888286 Eh    231.48 kcal/mol


Total Time for Numerical Frequencies  :       162.087 sec
Time for Reference State(s)           :         0.152 sec
Time for Displacements                :       140.681 sec

Timings for individual modules:

Sum of individual times         ...        0.334 sec (=   0.006 min)
XTB module                      ...        0.334 sec (=   0.006 min) 100.0 %
                             ****ORCA TERMINATED NORMALLY****
TOTAL RUN TIME: 0 days 0 hours 2 minutes 42 seconds 902 msec
(SLURM) EXECUTION TIME: 162.956563771 seconds.
