(SLURM) JOB ID:         413

                                 *****************
                                 * O   R   C   A *
                                 *****************

           --- An Ab Initio, DFT and Semiempirical electronic structure package ---

                  #######################################################
                  #                        -***-                        #
                  #          Department of theory and spectroscopy      #
                  #               Directorship: Frank Neese             #
                  #        Max Planck Institute fuer Kohlenforschung    #
                  #                Kaiser Wilhelm Platz 1               #
                  #                 D-45470 Muelheim/Ruhr               #
                  #                      Germany                        #
                  #                                                     #
                  #                  All rights reserved                #
                  #                        -***-                        #
                  #######################################################


                         Program Version 4.2.1 -  RELEASE  -


 With contributions from (in alphabetic order):
   Daniel Aravena         : Magnetic Suceptibility
   Michael Atanasov       : Ab Initio Ligand Field Theory (pilot matlab implementation)
   Alexander A. Auer      : GIAO ZORA, VPT2
   Ute Becker             : Parallelization
   Giovanni Bistoni       : ED, misc. LED, open-shell LED, HFLD
   Martin Brehm           : Molecular dynamics
   Dmytro Bykov           : SCF Hessian
   Vijay G. Chilkuri      : MRCI spin determinant printing, contributions to CSF-ICE
   Dipayan Datta          : RHF DLPNO-CCSD density
   Achintya Kumar Dutta   : EOM-CC, STEOM-CC
   Dmitry Ganyushin       : Spin-Orbit,Spin-Spin,Magnetic field MRCI
   Miquel Garcia          : C-PCM Hessian, Gaussian charge scheme
   Yang Guo               : DLPNO-NEVPT2, CIM, IAO-localization
   Andreas Hansen         : Spin unrestricted coupled pair/coupled cluster methods
   Benjamin Helmich-Paris : CASSCF linear response (MC-RPA)
   Lee Huntington         : MR-EOM, pCC
   Robert Izsak           : Overlap fitted RIJCOSX, COSX-SCS-MP3, EOM
   Christian Kollmar      : KDIIS, OOCD, Brueckner-CCSD(T), CCSD density
   Simone Kossmann        : Meta GGA functionals, TD-DFT gradient, OOMP2, MP2 Hessian
   Martin Krupicka        : AUTO-CI
   Lucas Lang             : DCDCAS
   Dagmar Lenk            : GEPOL surface, SMD
   Dimitrios Liakos       : Extrapolation schemes; Compound Job, initial MDCI parallelization
   Dimitrios Manganas     : Further ROCIS development; embedding schemes
   Dimitrios Pantazis     : SARC Basis sets
   Taras Petrenko         : DFT Hessian,TD-DFT gradient, ASA, ECA, R-Raman, ABS, FL, XAS/XES, NRVS
   Peter Pinski           : DLPNO-MP2, DLPNO-MP2 Gradient
   Christoph Reimann      : Effective Core Potentials
   Marius Retegan         : Local ZFS, SOC
   Christoph Riplinger    : Optimizer, TS searches, QM/MM, DLPNO-CCSD(T), (RO)-DLPNO pert. Triples
   Tobias Risthaus        : Range-separated hybrids, TD-DFT gradient, RPA, STAB
   Michael Roemelt        : Original ROCIS implementation
   Masaaki Saitow         : Open-shell DLPNO-CCSD energy and density
   Barbara Sandhoefer     : DKH picture change effects
   Avijit Sen             : IP-ROCIS
   Kantharuban Sivalingam : CASSCF convergence, NEVPT2, FIC-MRCI
   Bernardo de Souza      : ESD, SOC TD-DFT
   Georgi Stoychev        : AutoAux, RI-MP2 NMR
   Willem Van den Heuvel  : Paramagnetic NMR
   Boris Wezisla          : Elementary symmetry handling
   Frank Wennmohs         : Technical directorship


 We gratefully acknowledge several colleagues who have allowed us to
 interface, adapt or use parts of their codes:
   Stefan Grimme, W. Hujo, H. Kruse,             : VdW corrections, initial TS optimization,
                  C. Bannwarth                     DFT functionals, gCP, sTDA/sTD-DF
   Ed Valeev, F. Pavosevic, A. Kumar             : LibInt (2-el integral package), F12 methods
   Garnet Chan, S. Sharma, J. Yang, R. Olivares  : DMRG
   Ulf Ekstrom                                   : XCFun DFT Library
   Mihaly Kallay                                 : mrcc  (arbitrary order and MRCC methods)
   Andreas Klamt, Michael Diedenhofen            : otool_cosmo (COSMO solvation model)
   Jiri Pittner, Ondrej Demel                    : Mk-CCSD
   Frank Weinhold                                : gennbo (NPA and NBO analysis)
   Christopher J. Cramer and Donald G. Truhlar   : smd solvation model
   Lars Goerigk                                  : TD-DFT with DH, B97 family of functionals
   V. Asgeirsson, H. Jonsson                     : NEB implementation
   FAccTs GmbH                                   : IRC, NEB, NEB-TS, Multilevel, MM, QM/MM, CI optimization
   S Lehtola, MJT Oliveira, MAL Marques          : LibXC Library


 Your calculation uses the libint2 library for the computation of 2-el integrals
 For citations please refer to: http://libint.valeyev.net

 Your ORCA version has been built with support for libXC version: 4.2.3
 For citations please refer to: https://tddft.org/programs/libxc/

 This ORCA versions uses:
   CBLAS   interface :  Fast vector & matrix operations
   LAPACKE interface :  Fast linear algebra routines
   SCALAPACK package :  Parallel linear algebra routines




***************************************
The coordinates will be read from file: init.xyz
***************************************


Your calculation utilizes the SMD solvation module
Please cite in your paper:
A.V. Marenich, C.J. Cramer, D.G. Truhlar J. Phys. Chem. B, 113, (2009), 6378 

Your calculation utilizes the semiempirical GFN2-xTB method
Please cite in your paper:
C. Bannwarth, Ehlert S., S. Grimme,  J. Chem. Theory Comput., 15, (2019), 1652.
   

----- Orbital basis set information -----
Your calculation utilizes the basis: def2-SVP
   F. Weigend and R. Ahlrichs, Phys. Chem. Chem. Phys. 7, 3297 (2005).

================================================================================
                                        WARNINGS
                       Please study these warnings very carefully!
================================================================================

WARNING: Gradients needed for Numerical Frequencies
  ===> : Setting RunTyp to EnGrad

WARNING: The environment variable RSH_COMMAND is not set!
  ===> : All Displacements for the Numerical Hessian calculation
         will be started on localhost

WARNING: Found dipole moment calculation with XTB calculation
  ===> : Switching off dipole moment calculation


INFO   : the flag for use of LIBINT has been found!

================================================================================
                                       INPUT FILE
================================================================================
NAME = /tmp/slurm-scratch/freq.413/freq.inp
|  1> ! XTB2 NumFreq
|  2> %maxcore 1150
|  3> 
|  4> * xyzfile 0 1 init.xyz
|  5> 
|  6> %cpcm
|  7>  smd true
|  8>  smdsolvent "ch2cl2"
|  9> end
| 10> %pal nprocs 9 end
| 11> 
| 12>                          ****END OF INPUT****
================================================================================

                     *******************************
                     * Energy+Gradient Calculation *
                     *******************************

      -----------------------------------------------------------      
     |                   =====================                   |     
     |                           x T B                           |     
     |                   =====================                   |     
     |                         S. Grimme                         |     
     |          Mulliken Center for Theoretical Chemistry        |     
     |                    University of Bonn                     |     
      -----------------------------------------------------------      

   * xtb version 6.3.2 (30e43eb) compiled by 'schneider@apollo14' on 2020-08-08

   xtb is free software: you can redistribute it and/or modify it under
   the terms of the GNU Lesser General Public License as published by
   the Free Software Foundation, either version 3 of the License, or
   (at your option) any later version.
   
   xtb is distributed in the hope that it will be useful,
   but WITHOUT ANY WARRANTY; without even the implied warranty of
   MERCHANTABILITY or FITNESS FOR A PARTICULAR PURPOSE.  See the
   GNU Lesser General Public License for more details.
   
   Cite this work as:
   * S. Grimme, C. Bannwarth, P. Shushkov, J. Chem. Theory Comput., 2017,
     13, 1989-2009. DOI: 10.1021/acs.jctc.7b00118
   * C. Bannwarth, S. Ehlert and S. Grimme., J. Chem. Theory Comput., 2019,
     15, 1652-1671. DOI: 10.1021/acs.jctc.8b01176
   * P. Pracht, E. Caldeweyher, S. Ehlert, S. Grimme, ChemRxiv, 2019, preprint.
     DOI: 10.26434/chemrxiv.8326202.v1
   
   for GFN-FF:
   * S. Spicher and S. Grimme, Angew. Chem. Int. Ed., 2020,
     DOI: 10.1002/anie.202004239
   
   for DFT-D4:
   * E. Caldeweyher, C. Bannwarth and S. Grimme, J. Chem. Phys., 2017,
     147, 034112. DOI: 10.1063/1.4993215
   * E. Caldeweyher, S. Ehlert, A. Hansen, H. Neugebauer, S. Spicher,
     C. Bannwarth and S. Grimme, J. Chem. Phys., 2019, 150, 154122.
     DOI: 10.1063/1.5090222
   
   for sTDA-xTB:
   * S. Grimme and C. Bannwarth, J. Chem. Phys., 2016, 145, 054103.
     DOI: 10.1063/1.4959605
   
   in the mass-spec context:
   * V. Asgeirsson, C. Bauer and S. Grimme, Chem. Sci., 2017, 8, 4879.
     DOI: 10.1039/c7sc00601b
   * J. Koopman and S. Grimme, ACS Omega 2019, 4, 12, 15120-15133.
     DOI: 10.1021/acsomega.9b02011
   
   for metadynamics refer to:
   * S. Grimme, J. Chem. Theory Comput., 2019, 155, 2847-2862
     DOI: 10.1021/acs.jctc.9b00143
   
   with help from (in alphabetical order)
   C. Bannwarth, F. Bohle, G. Brandenburg, E. Caldeweyher, M. Checinski,
   S. Dohm, S. Ehlert, S. Ehrlich, F. März, H. Neugebauer, J. Pisarek,
   P. Pracht, P. Shushkov, and S. Spicher.
   
 * started run on 2020/08/21 at 21:01:15.344     

           -------------------------------------------------
          |                Calculation Setup                |
           -------------------------------------------------

          program call               : /opt/orca/otool_xtb /tmp/slurm-scratch/freq.413/freq_XTB.xyz --grad -c 0 -u 0 -P 9 --namespace /tmp/slurm-scratch/freq.413/freq --gbsa CH2Cl2
          hostname                   : apollo14
          calculation namespace      : /tmp/slurm-scratch/freq.413/freq
          coordinate file            : /tmp/slurm-scratch/freq.413/freq_XTB.xyz
          omp threads                :                     9
          number of atoms            :                    49
          number of electrons        :                   112
          charge                     :                     0
          spin                       :                   0.0
          first test random number   :      0.56723202931972

   ID    Z sym.   atoms
    1    6 C      1-7, 12, 14, 29, 33, 36, 39, 42, 46
    2    1 H      8-10, 13, 15-18, 20, 21, 23-28, 30, 31, 34, 35, 37, 38, 40,
                  41, 43-45, 47-49
    3    7 N      11, 32
    4    8 O      19, 22

molecular fragmentation (1/2 indicates fragments):
1111111111112111112122222211111222222222211112222
# atoms in fragment 1/2:    27    22
 fragment masses (1/2) :      161.24      109.17
CMA distance (Bohr)    :   7.726
constraining FC (au)   :  0.0500
########################################################################
[WARNING] Please study the warnings concerning your input carefully
-1- prog_main_parseArguments: Process number higher than OMP_NUM_THREADS, I hope you know what you are doing.
########################################################################

           -------------------------------------------------
          |                 G F N 2 - x T B                 |
           -------------------------------------------------

        Reference                      10.1021/acs.jctc.8b01176
      * Hamiltonian:
        H0-scaling (s, p, d)           1.850000    2.230000    2.230000
        zeta-weighting                 0.500000
      * Dispersion:
        s8                             2.700000
        a1                             0.520000
        a2                             5.000000
        s9                             5.000000
      * Repulsion:
        kExp                           1.500000    1.000000
        rExp                           1.000000
      * Coulomb:
        alpha                          2.000000
        third order                    shell-resolved
        anisotropic                    true
        a3                             3.000000
        a5                             4.000000
        cn-shift                       1.200000
        cn-exp                         4.000000
        max-rad                        5.000000

      * Solvation model:               GBSA
        Solvent                        CH2Cl2
        Parameter file                 internal GFN2-xTB/GBSA
        Dielectric constant                8.9300E+00
        Reference state                gsolv [1 M gas/solution]
        Free energy shift                  4.4408E-03 Eh       2.7867E+00 kcal/mol
        Temperature                        2.9815E+02 K
        Density                            1.3300E+00 kg/L
        Solvent mass                       8.4930E+01 g/mol
        Interaction kernel             Still
        Born radius scaling (c1)           1.4917E+00
        Born radii integrator          GBOBC
        Born offset                        0.0000E+00 a0       0.0000E+00 AA
        H-bond correction              false
        Ion screening                  false
        Surface tension                    1.0000E-05 Eh       1.5569E+01 dyn/cm
        Grid points                               230 per atom

          ...................................................
          :                      SETUP                      :
          :.................................................:
          :  # basis functions                 106          :
          :  # atomic orbitals                 106          :
          :  # shells                           68          :
          :  # electrons                       112          :
          :  max. iterations                   250          :
          :  Hamiltonian                  GFN2-xTB          :
          :  restarted?                      false          :
          :  GBSA solvation                   true          :
          :  PC potential                    false          :
          :  electronic temp.          300.0000000     K    :
          :  accuracy                    1.0000000          :
          :  -> integral cutoff          0.2500000E+02      :
          :  -> integral neglect         0.1000000E-07      :
          :  -> SCF convergence          0.1000000E-05 Eh   :
          :  -> wf. convergence          0.1000000E-03 e    :
          :  Broyden damping             0.4000000          :
          ...................................................

 iter      E             dE          RMSdq      gap      omega  full diag
   1    -62.1108393 -0.621108E+02  0.342E+00    2.95       0.0  T
   2    -62.1783363 -0.674970E-01  0.198E+00    3.13       1.0  T
   3    -62.1759404  0.239592E-02  0.739E-01    2.84       1.0  T
   4    -62.1804991 -0.455868E-02  0.361E-01    2.97       1.0  T
   5    -62.1845185 -0.401945E-02  0.696E-02    2.88       1.0  T
   6    -62.1845369 -0.183763E-04  0.341E-02    2.90       1.0  T
   7    -62.1845494 -0.125246E-04  0.156E-02    2.89       1.0  T
   8    -62.1845527 -0.328417E-05  0.436E-03    2.90       3.3  T
   9    -62.1845530 -0.298715E-06  0.167E-03    2.90       8.5  T
  10    -62.1845530 -0.886658E-08  0.909E-04    2.90      15.7  T
  11    -62.1845530 -0.106552E-07  0.382E-04    2.90      37.4  T

   *** convergence criteria satisfied after 11 iterations ***

         #    Occupation            Energy/Eh            Energy/eV
      -------------------------------------------------------------
         1        2.0000           -0.6672788             -18.1576
       ...           ...                  ...                  ...
        50        2.0000           -0.4277515             -11.6397
        51        2.0000           -0.4262382             -11.5985
        52        2.0000           -0.4252591             -11.5719
        53        2.0000           -0.4112297             -11.1901
        54        2.0000           -0.4026914             -10.9578
        55        2.0000           -0.3922779             -10.6744
        56        2.0000           -0.3854488             -10.4886 (HOMO)
        57                         -0.2790320              -7.5928 (LUMO)
        58                         -0.2343209              -6.3762
        59                         -0.1977761              -5.3818
        60                         -0.0984955              -2.6802
        61                         -0.0084775              -0.2307
       ...                                ...                  ...
       106                          0.6189354              16.8421
      -------------------------------------------------------------
                  HL-Gap            0.1064167 Eh            2.8957 eV
             Fermi-level           -0.3322404 Eh           -9.0407 eV

 SCC (total)                   0 d,  0 h,  0 min,  0.143 sec
 SCC setup                      ...        0 min,  0.007 sec (  4.652%)
 Dispersion                     ...        0 min,  0.005 sec (  3.577%)
 classical contributions        ...        0 min,  0.003 sec (  2.127%)
 integral evaluation            ...        0 min,  0.021 sec ( 14.346%)
 iterations                     ...        0 min,  0.056 sec ( 38.722%)
 molecular gradient             ...        0 min,  0.052 sec ( 36.321%)
 printout                       ...        0 min,  0.000 sec (  0.237%)

         :::::::::::::::::::::::::::::::::::::::::::::::::::::
         ::                     SUMMARY                     ::
         :::::::::::::::::::::::::::::::::::::::::::::::::::::
         :: total energy             -61.378601585046 Eh    ::
         :: total w/o Gsasa/hb       -61.353341899845 Eh    ::
         :: gradient norm              0.057916565016 Eh/a0 ::
         :: HOMO-LUMO gap              2.895746704019 eV    ::
         ::.................................................::
         :: SCC energy               -62.184553024924 Eh    ::
         :: -> isotropic ES            0.099212257479 Eh    ::
         :: -> anisotropic ES          0.001424035548 Eh    ::
         :: -> anisotropic XC          0.041380850583 Eh    ::
         :: -> dispersion             -0.038814162592 Eh    ::
         :: -> Gsolv                  -0.034255535628 Eh    ::
         ::    -> Gborn               -0.008995850427 Eh    ::
         ::    -> Gsasa               -0.029700514374 Eh    ::
         ::    -> Ghb                  0.000000000000 Eh    ::
         ::    -> Gshift               0.004440829173 Eh    ::
         :: repulsion energy           0.805306102212 Eh    ::
         :: add. restraining           0.000000000000 Eh    ::
         :: total charge              -0.000000000000 e     ::
         :::::::::::::::::::::::::::::::::::::::::::::::::::::

           -------------------------------------------------
          |                Property Printout                |
           -------------------------------------------------

    * Orbital Energies and Occupations

         #    Occupation            Energy/Eh            Energy/eV
      -------------------------------------------------------------
         1        2.0000           -0.6672788             -18.1576
       ...           ...                  ...                  ...
        44        2.0000           -0.4425540             -12.0425
        45        2.0000           -0.4418612             -12.0237
        46        2.0000           -0.4388766             -11.9424
        47        2.0000           -0.4329746             -11.7818
        48        2.0000           -0.4322679             -11.7626
        49        2.0000           -0.4290571             -11.6752
        50        2.0000           -0.4277515             -11.6397
        51        2.0000           -0.4262382             -11.5985
        52        2.0000           -0.4252591             -11.5719
        53        2.0000           -0.4112297             -11.1901
        54        2.0000           -0.4026914             -10.9578
        55        2.0000           -0.3922779             -10.6744
        56        2.0000           -0.3854488             -10.4886 (HOMO)
        57                         -0.2790320              -7.5928 (LUMO)
        58                         -0.2343209              -6.3762
        59                         -0.1977761              -5.3818
        60                         -0.0984955              -2.6802
        61                         -0.0084775              -0.2307
        62                          0.0159812               0.4349
        63                          0.0442073               1.2029
        64                          0.0680429               1.8515
        65                          0.0798885               2.1739
        66                          0.0816720               2.2224
        67                          0.0873236               2.3762
       ...                                ...                  ...
       106                          0.6189354              16.8421
      -------------------------------------------------------------
                  HL-Gap            0.1064167 Eh            2.8957 eV
             Fermi-level           -0.3322404 Eh           -9.0407 eV

     #   Z          covCN         q      C6AA      α(0)
     1   6 C        2.963     0.003    27.953     8.672
     2   6 C        2.911    -0.025    28.626     8.773
     3   6 C        2.908    -0.025    28.625     8.773
     4   6 C        2.909    -0.023    28.580     8.766
     5   6 C        2.907    -0.030    28.758     8.793
     6   6 C        2.914    -0.034    28.854     8.808
     7   6 C        2.849     0.077    26.264     8.399
     8   1 H        0.925     0.054     2.275     2.359
     9   1 H        0.925     0.040     2.453     2.449
    10   1 H        0.925     0.047     2.358     2.402
    11   7 N        1.823    -0.265    27.718     7.801
    12   6 C        3.757     0.021    20.263     6.418
    13   1 H        0.859     0.179     1.219     1.730
    14   6 C        3.797    -0.055    21.560     6.612
    15   1 H        0.922     0.008     2.919     2.672
    16   1 H        0.923     0.042     2.422     2.434
    17   1 H        0.923     0.041     2.432     2.439
    18   1 H        0.923     0.032     2.553     2.499
    19   8 O        1.604    -0.634    26.011     6.883
    20   1 H        0.923     0.005     2.976     2.698
    21   1 H        0.804     0.276     0.797     1.403
    22   8 O        1.596    -0.630    25.922     6.871
    23   1 H        0.800     0.312     0.687     1.302
    24   1 H        0.804     0.283     0.773     1.381
    25   1 H        0.796     0.309     0.695     1.310
    26   1 H        0.859     0.149     1.409     1.860
    27   1 H        0.925     0.049     2.337     2.390
    28   1 H        0.925     0.044     2.393     2.419
    29   6 C        3.796    -0.051    21.498     6.602
    30   1 H        0.923     0.032     2.555     2.500
    31   1 H        0.923     0.030     2.589     2.516
    32   7 N        2.628    -0.365    29.412     8.055
    33   6 C        3.727     0.008    20.544     6.471
    34   1 H        0.923     0.035     2.512     2.479
    35   1 H        0.923     0.037     2.486     2.466
    36   6 C        3.796    -0.067    21.788     6.647
    37   1 H        0.923     0.037     2.489     2.467
    38   1 H        0.923     0.031     2.567     2.506
    39   6 C        3.795    -0.053    21.526     6.607
    40   1 H        0.923     0.029     2.598     2.520
    41   1 H        0.923     0.031     2.574     2.509
    42   6 C        3.745    -0.100    22.486     6.764
    43   1 H        0.923     0.036     2.499     2.472
    44   1 H        0.923     0.037     2.489     2.467
    45   1 H        0.923     0.034     2.525     2.485
    46   6 C        3.745    -0.100    22.475     6.762
    47   1 H        0.923     0.034     2.526     2.485
    48   1 H        0.923     0.035     2.520     2.482
    49   1 H        0.923     0.035     2.517     2.481

 Mol. C6AA /au·bohr⁶  :      19244.702033
 Mol. C8AA /au·bohr⁸  :     418170.436710
 Mol. α(0) /au        :        212.061250


Wiberg/Mayer (AO) data.
largest (>0.10) Wiberg bond orders for each atom

 ---------------------------------------------------------------------------
     #   Z sym  total        # sym  WBO       # sym  WBO       # sym  WBO
 ---------------------------------------------------------------------------
     1   6 C    3.988 --     6 C    1.371     2 C    1.366     7 C    1.088
     2   6 C    3.989 --     3 C    1.464     1 C    1.366     8 H    0.965
                             5 C    0.106
     3   6 C    3.990 --     2 C    1.464     4 C    1.424    27 H    0.969
                             6 C    0.105
     4   6 C    3.986 --     5 C    1.433     3 C    1.424    10 H    0.970
     5   6 C    3.990 --     6 C    1.450     4 C    1.433    28 H    0.970
                             2 C    0.106
     6   6 C    3.986 --     5 C    1.450     1 C    1.371     9 H    0.968
                             3 C    0.105
     7   6 C    3.967 --    11 N    1.831     1 C    1.088    20 H    0.941
     8   1 H    0.997 --     2 C    0.965
     9   1 H    0.998 --     6 C    0.968
    10   1 H    0.997 --     4 C    0.970
    11   7 N    3.077 --     7 C    1.831    12 C    1.021
    12   6 C    3.983 --    11 N    1.021    14 C    0.988    15 H    0.966
                            16 H    0.956
    13   1 H    0.968 --    32 N    0.931
    14   6 C    3.991 --    29 C    1.005    12 C    0.988    18 H    0.978
                            17 H    0.975
    15   1 H    1.000 --    12 C    0.966
    16   1 H    0.995 --    12 C    0.956
    17   1 H    0.998 --    14 C    0.975
    18   1 H    0.999 --    14 C    0.978
    19   8 O    1.797 --    21 H    0.913    23 H    0.851
    20   1 H    1.000 --     7 C    0.941
    21   1 H    0.924 --    19 O    0.913
    22   8 O    1.845 --    24 H    0.918    25 H    0.803
    23   1 H    0.903 --    19 O    0.851
    24   1 H    0.920 --    22 O    0.918
    25   1 H    0.904 --    22 O    0.803
    26   1 H    0.978 --    32 N    0.964
    27   1 H    0.997 --     3 C    0.969
    28   1 H    0.998 --     5 C    0.970
    29   6 C    3.995 --    42 C    1.018    14 C    1.005    31 H    0.978
                            30 H    0.978
    30   1 H    0.999 --    29 C    0.978
    31   1 H    0.999 --    29 C    0.978
    32   7 N    3.110 --    33 C    1.012    26 H    0.964    13 H    0.931
    33   6 C    3.980 --    32 N    1.012    36 C    0.999    34 H    0.976
                            35 H    0.975
    34   1 H    0.999 --    33 C    0.976
    35   1 H    0.998 --    33 C    0.975
    36   6 C    3.996 --    39 C    1.006    33 C    0.999    38 H    0.977
                            37 H    0.973
    37   1 H    0.999 --    36 C    0.973
    38   1 H    0.999 --    36 C    0.977
    39   6 C    3.996 --    46 C    1.019    36 C    1.006    40 H    0.978
                            41 H    0.978
    40   1 H    0.999 --    39 C    0.978
    41   1 H    0.999 --    39 C    0.978
    42   6 C    3.995 --    29 C    1.018    45 H    0.988    43 H    0.988
                            44 H    0.987
    43   1 H    0.999 --    42 C    0.988
    44   1 H    0.998 --    42 C    0.987
    45   1 H    0.999 --    42 C    0.988
    46   6 C    3.996 --    39 C    1.019    47 H    0.988    49 H    0.988
                            48 H    0.987
    47   1 H    0.999 --    46 C    0.988
    48   1 H    0.998 --    46 C    0.987
    49   1 H    0.999 --    46 C    0.988
 ---------------------------------------------------------------------------

Topologies differ in total number of bonds
Writing topology from bond orders to xtbtopo.mol

molecular dipole:
                 x           y           z       tot (Debye)
 q only:       -1.356      -0.718       0.524
   full:       -1.640      -1.186       0.330       5.213
molecular quadrupole (traceless):
                xx          xy          yy          xz          yz          zz
 q only:       11.689      -9.123      -7.380       9.877       4.606      -4.309
  q+dip:       13.403     -14.144     -10.129       9.769      10.644      -3.275
   full:       12.057     -13.268      -8.177      10.377       7.810      -3.880


           -------------------------------------------------
          | TOTAL ENERGY              -61.378601585046 Eh   |
          | GRADIENT NORM               0.057916565016 Eh/α |
          | HOMO-LUMO GAP               2.895746704019 eV   |
           -------------------------------------------------

------------------------------------------------------------------------
 * finished run on 2020/08/21 at 21:01:15.555     
------------------------------------------------------------------------
 total:
 * wall-time:     0 d,  0 h,  0 min,  0.212 sec
 *  cpu-time:     0 d,  0 h,  0 min,  2.479 sec
 * ratio c/w:    11.705 speedup
 SCF:
 * wall-time:     0 d,  0 h,  0 min,  0.147 sec
 *  cpu-time:     0 d,  0 h,  0 min,  1.734 sec
 * ratio c/w:    11.827 speedup


-------------------------   --------------------
FINAL SINGLE POINT ENERGY       -61.378601585050
-------------------------   --------------------


----------------------------------------------------------------------------
                           ORCA NUMERICAL FREQUENCIES
                              (9-process run)
----------------------------------------------------------------------------

Number of atoms                ... 49
Central differences            ... used
Number of displacements        ... 294
Numerical increment            ... 5.000e-03 bohr
IR-spectrum generation         ... on
Raman-spectrum generation      ... off
Surface Crossing Hessian       ... off
List of participating nodes    ...  /tmp/slurm-scratch/freq.413/freq.hostnames

The output will be reduced. Please look at the following files:
SCF program output             ... >/tmp/slurm-scratch/freq.413/freq.lastscf
Integral program output        ... >/tmp/slurm-scratch/freq.413/freq.lastint
Gradient program output        ... >/tmp/slurm-scratch/freq.413/freq.lastgrad
Dipole moment program output   ... >/tmp/slurm-scratch/freq.413/freq.lastmom
AutoCI program output          ... >/tmp/slurm-scratch/freq.413/freq.lastautoci


         <<< Energy and Gradient at the input geometry >>>

        <<< Energy and Gradient at displaced geometries >>>
             <<<Displacing   1/coordinate 1 (+)>>>
             <<<Displacing   3/coordinate 3 (+)>>>
             <<<Displacing   1/coordinate 2 (+)>>>
             <<<Displacing   2/coordinate 3 (+)>>>
             <<<Displacing   2/coordinate 2 (+)>>>
             <<<Displacing   3/coordinate 1 (+)>>>
             <<<Displacing   3/coordinate 2 (+)>>>
             <<<Displacing   2/coordinate 1 (+)>>>
             <<<Displacing   1/coordinate 1 (-)>>>
             <<<Displacing   3/coordinate 3 (-)>>>
             <<<Displacing   2/coordinate 3 (-)>>>
             <<<Displacing   2/coordinate 2 (-)>>>
             <<<Displacing   1/coordinate 2 (-)>>>
             <<<Displacing   3/coordinate 1 (-)>>>
             <<<Displacing   3/coordinate 2 (-)>>>
             <<<Displacing   1/coordinate 3 (+)>>>
             <<<Displacing   2/coordinate 1 (-)>>>
             <<<Displacing   1/coordinate 3 (-)>>>
             <<<Displacing   5/coordinate 3 (+)>>>
             <<<Displacing   4/coordinate 2 (+)>>>
             <<<Displacing   5/coordinate 3 (-)>>>
             <<<Displacing   4/coordinate 1 (+)>>>
             <<<Displacing   5/coordinate 2 (+)>>>
             <<<Displacing   4/coordinate 2 (-)>>>
             <<<Displacing   5/coordinate 1 (+)>>>
             <<<Displacing   4/coordinate 1 (-)>>>
             <<<Displacing   5/coordinate 2 (-)>>>
             <<<Displacing   4/coordinate 3 (+)>>>
             <<<Displacing   6/coordinate 2 (+)>>>
             <<<Displacing   5/coordinate 1 (-)>>>
             <<<Displacing   6/coordinate 1 (+)>>>
             <<<Displacing   6/coordinate 2 (-)>>>
             <<<Displacing   4/coordinate 3 (-)>>>
             <<<Displacing   6/coordinate 1 (-)>>>
             <<<Displacing   6/coordinate 3 (+)>>>
             <<<Displacing   6/coordinate 3 (-)>>>
             <<<Displacing   7/coordinate 1 (+)>>>
             <<<Displacing   7/coordinate 2 (+)>>>
             <<<Displacing   8/coordinate 2 (+)>>>
             <<<Displacing   9/coordinate 1 (+)>>>
             <<<Displacing   8/coordinate 1 (+)>>>
             <<<Displacing   7/coordinate 2 (-)>>>
             <<<Displacing   7/coordinate 1 (-)>>>
             <<<Displacing   7/coordinate 3 (+)>>>
             <<<Displacing   9/coordinate 1 (-)>>>
             <<<Displacing   8/coordinate 1 (-)>>>
             <<<Displacing   8/coordinate 2 (-)>>>
             <<<Displacing   7/coordinate 3 (-)>>>
             <<<Displacing   8/coordinate 3 (+)>>>
             <<<Displacing   9/coordinate 2 (+)>>>
             <<<Displacing   8/coordinate 3 (-)>>>
             <<<Displacing   9/coordinate 2 (-)>>>
             <<<Displacing   9/coordinate 3 (+)>>>
             <<<Displacing   9/coordinate 3 (-)>>>
             <<<Displacing  10/coordinate 1 (+)>>>
             <<<Displacing  10/coordinate 3 (+)>>>
             <<<Displacing  11/coordinate 2 (+)>>>
             <<<Displacing  10/coordinate 1 (-)>>>
             <<<Displacing  10/coordinate 3 (-)>>>
             <<<Displacing  10/coordinate 2 (+)>>>
             <<<Displacing  11/coordinate 3 (+)>>>
             <<<Displacing  11/coordinate 1 (+)>>>
             <<<Displacing  11/coordinate 2 (-)>>>
             <<<Displacing  10/coordinate 2 (-)>>>
             <<<Displacing  11/coordinate 1 (-)>>>
             <<<Displacing  11/coordinate 3 (-)>>>
             <<<Displacing  12/coordinate 2 (+)>>>
             <<<Displacing  12/coordinate 1 (+)>>>
             <<<Displacing  12/coordinate 2 (-)>>>
             <<<Displacing  12/coordinate 1 (-)>>>
             <<<Displacing  12/coordinate 3 (+)>>>
             <<<Displacing  12/coordinate 3 (-)>>>
             <<<Displacing  13/coordinate 1 (+)>>>
             <<<Displacing  14/coordinate 1 (+)>>>
             <<<Displacing  14/coordinate 2 (+)>>>
             <<<Displacing  13/coordinate 3 (+)>>>
             <<<Displacing  13/coordinate 1 (-)>>>
             <<<Displacing  14/coordinate 1 (-)>>>
             <<<Displacing  13/coordinate 3 (-)>>>
             <<<Displacing  14/coordinate 2 (-)>>>
             <<<Displacing  13/coordinate 2 (+)>>>
             <<<Displacing  14/coordinate 3 (+)>>>
             <<<Displacing  13/coordinate 2 (-)>>>
             <<<Displacing  14/coordinate 3 (-)>>>
             <<<Displacing  15/coordinate 1 (+)>>>
             <<<Displacing  15/coordinate 2 (+)>>>
             <<<Displacing  15/coordinate 1 (-)>>>
             <<<Displacing  15/coordinate 2 (-)>>>
             <<<Displacing  15/coordinate 3 (+)>>>
             <<<Displacing  15/coordinate 3 (-)>>>
             <<<Displacing  16/coordinate 1 (+)>>>
             <<<Displacing  17/coordinate 1 (+)>>>
             <<<Displacing  16/coordinate 2 (+)>>>
             <<<Displacing  16/coordinate 1 (-)>>>
             <<<Displacing  17/coordinate 1 (-)>>>
             <<<Displacing  16/coordinate 2 (-)>>>
             <<<Displacing  16/coordinate 3 (+)>>>
             <<<Displacing  17/coordinate 2 (+)>>>
             <<<Displacing  16/coordinate 3 (-)>>>
             <<<Displacing  17/coordinate 2 (-)>>>
             <<<Displacing  17/coordinate 3 (+)>>>
             <<<Displacing  17/coordinate 3 (-)>>>
             <<<Displacing  18/coordinate 1 (+)>>>
             <<<Displacing  18/coordinate 1 (-)>>>
             <<<Displacing  18/coordinate 2 (+)>>>
             <<<Displacing  18/coordinate 2 (-)>>>
             <<<Displacing  18/coordinate 3 (+)>>>
             <<<Displacing  18/coordinate 3 (-)>>>
             <<<Displacing  19/coordinate 3 (+)>>>
             <<<Displacing  19/coordinate 2 (+)>>>
             <<<Displacing  19/coordinate 3 (-)>>>
             <<<Displacing  19/coordinate 2 (-)>>>
             <<<Displacing  19/coordinate 1 (+)>>>
             <<<Displacing  20/coordinate 1 (+)>>>
             <<<Displacing  19/coordinate 1 (-)>>>
             <<<Displacing  20/coordinate 3 (+)>>>
             <<<Displacing  20/coordinate 2 (+)>>>
             <<<Displacing  20/coordinate 3 (-)>>>
             <<<Displacing  20/coordinate 1 (-)>>>
             <<<Displacing  20/coordinate 2 (-)>>>
             <<<Displacing  21/coordinate 1 (+)>>>
             <<<Displacing  21/coordinate 1 (-)>>>
             <<<Displacing  21/coordinate 2 (+)>>>
             <<<Displacing  21/coordinate 2 (-)>>>
             <<<Displacing  21/coordinate 3 (+)>>>
             <<<Displacing  21/coordinate 3 (-)>>>
             <<<Displacing  22/coordinate 1 (+)>>>
             <<<Displacing  22/coordinate 3 (+)>>>
             <<<Displacing  22/coordinate 1 (-)>>>
             <<<Displacing  22/coordinate 2 (+)>>>
             <<<Displacing  22/coordinate 3 (-)>>>
             <<<Displacing  22/coordinate 2 (-)>>>
             <<<Displacing  23/coordinate 1 (+)>>>
             <<<Displacing  23/coordinate 3 (+)>>>
             <<<Displacing  23/coordinate 2 (+)>>>
             <<<Displacing  23/coordinate 1 (-)>>>
             <<<Displacing  23/coordinate 3 (-)>>>
             <<<Displacing  23/coordinate 2 (-)>>>
             <<<Displacing  24/coordinate 1 (+)>>>
             <<<Displacing  24/coordinate 1 (-)>>>
             <<<Displacing  24/coordinate 2 (+)>>>
             <<<Displacing  24/coordinate 2 (-)>>>
             <<<Displacing  24/coordinate 3 (+)>>>
             <<<Displacing  24/coordinate 3 (-)>>>
             <<<Displacing  25/coordinate 2 (+)>>>
             <<<Displacing  25/coordinate 1 (+)>>>
             <<<Displacing  25/coordinate 2 (-)>>>
             <<<Displacing  25/coordinate 3 (+)>>>
             <<<Displacing  26/coordinate 1 (+)>>>
             <<<Displacing  25/coordinate 3 (-)>>>
             <<<Displacing  25/coordinate 1 (-)>>>
             <<<Displacing  26/coordinate 1 (-)>>>
             <<<Displacing  26/coordinate 2 (+)>>>
             <<<Displacing  26/coordinate 3 (+)>>>
             <<<Displacing  26/coordinate 3 (-)>>>
             <<<Displacing  26/coordinate 2 (-)>>>
             <<<Displacing  27/coordinate 1 (+)>>>
             <<<Displacing  27/coordinate 1 (-)>>>
             <<<Displacing  27/coordinate 3 (+)>>>
             <<<Displacing  27/coordinate 2 (+)>>>
             <<<Displacing  27/coordinate 3 (-)>>>
             <<<Displacing  27/coordinate 2 (-)>>>
             <<<Displacing  28/coordinate 1 (+)>>>
             <<<Displacing  29/coordinate 1 (+)>>>
             <<<Displacing  28/coordinate 1 (-)>>>
             <<<Displacing  28/coordinate 3 (+)>>>
             <<<Displacing  29/coordinate 1 (-)>>>
             <<<Displacing  28/coordinate 3 (-)>>>
             <<<Displacing  28/coordinate 2 (+)>>>
             <<<Displacing  28/coordinate 2 (-)>>>
             <<<Displacing  29/coordinate 2 (+)>>>
             <<<Displacing  29/coordinate 2 (-)>>>
             <<<Displacing  29/coordinate 3 (+)>>>
             <<<Displacing  29/coordinate 3 (-)>>>
             <<<Displacing  30/coordinate 1 (+)>>>
             <<<Displacing  30/coordinate 1 (-)>>>
             <<<Displacing  30/coordinate 3 (+)>>>
             <<<Displacing  30/coordinate 2 (+)>>>
             <<<Displacing  30/coordinate 3 (-)>>>
             <<<Displacing  30/coordinate 2 (-)>>>
             <<<Displacing  31/coordinate 1 (+)>>>
             <<<Displacing  31/coordinate 2 (+)>>>
             <<<Displacing  31/coordinate 1 (-)>>>
             <<<Displacing  31/coordinate 2 (-)>>>
             <<<Displacing  32/coordinate 1 (+)>>>
             <<<Displacing  31/coordinate 3 (+)>>>
             <<<Displacing  31/coordinate 3 (-)>>>
             <<<Displacing  32/coordinate 1 (-)>>>
             <<<Displacing  32/coordinate 2 (+)>>>
             <<<Displacing  32/coordinate 2 (-)>>>
             <<<Displacing  32/coordinate 3 (+)>>>
             <<<Displacing  32/coordinate 3 (-)>>>
             <<<Displacing  33/coordinate 1 (+)>>>
             <<<Displacing  33/coordinate 1 (-)>>>
             <<<Displacing  33/coordinate 2 (+)>>>
             <<<Displacing  33/coordinate 3 (+)>>>
             <<<Displacing  33/coordinate 3 (-)>>>
             <<<Displacing  33/coordinate 2 (-)>>>
             <<<Displacing  34/coordinate 1 (+)>>>
             <<<Displacing  34/coordinate 3 (+)>>>
             <<<Displacing  34/coordinate 1 (-)>>>
             <<<Displacing  34/coordinate 3 (-)>>>
             <<<Displacing  34/coordinate 2 (+)>>>
             <<<Displacing  35/coordinate 1 (+)>>>
             <<<Displacing  35/coordinate 2 (+)>>>
             <<<Displacing  34/coordinate 2 (-)>>>
             <<<Displacing  35/coordinate 1 (-)>>>
             <<<Displacing  35/coordinate 2 (-)>>>
             <<<Displacing  35/coordinate 3 (+)>>>
             <<<Displacing  35/coordinate 3 (-)>>>
             <<<Displacing  36/coordinate 1 (+)>>>
             <<<Displacing  36/coordinate 1 (-)>>>
             <<<Displacing  36/coordinate 3 (+)>>>
             <<<Displacing  36/coordinate 2 (+)>>>
             <<<Displacing  36/coordinate 2 (-)>>>
             <<<Displacing  36/coordinate 3 (-)>>>
             <<<Displacing  37/coordinate 1 (+)>>>
             <<<Displacing  37/coordinate 2 (+)>>>
             <<<Displacing  37/coordinate 1 (-)>>>
             <<<Displacing  37/coordinate 2 (-)>>>
             <<<Displacing  38/coordinate 1 (+)>>>
             <<<Displacing  37/coordinate 3 (+)>>>
             <<<Displacing  38/coordinate 1 (-)>>>
             <<<Displacing  37/coordinate 3 (-)>>>
             <<<Displacing  38/coordinate 2 (+)>>>
             <<<Displacing  38/coordinate 2 (-)>>>
             <<<Displacing  38/coordinate 3 (+)>>>
             <<<Displacing  38/coordinate 3 (-)>>>
             <<<Displacing  39/coordinate 1 (+)>>>
             <<<Displacing  39/coordinate 2 (+)>>>
             <<<Displacing  39/coordinate 1 (-)>>>
             <<<Displacing  39/coordinate 2 (-)>>>
             <<<Displacing  39/coordinate 3 (+)>>>
             <<<Displacing  39/coordinate 3 (-)>>>
             <<<Displacing  40/coordinate 1 (+)>>>
             <<<Displacing  40/coordinate 1 (-)>>>
             <<<Displacing  40/coordinate 2 (+)>>>
             <<<Displacing  40/coordinate 3 (+)>>>
             <<<Displacing  40/coordinate 2 (-)>>>
             <<<Displacing  40/coordinate 3 (-)>>>
             <<<Displacing  41/coordinate 1 (+)>>>
             <<<Displacing  41/coordinate 1 (-)>>>
             <<<Displacing  41/coordinate 2 (+)>>>
             <<<Displacing  41/coordinate 3 (+)>>>
             <<<Displacing  41/coordinate 2 (-)>>>
             <<<Displacing  41/coordinate 3 (-)>>>
             <<<Displacing  42/coordinate 1 (+)>>>
             <<<Displacing  42/coordinate 1 (-)>>>
             <<<Displacing  42/coordinate 2 (+)>>>
             <<<Displacing  42/coordinate 2 (-)>>>
             <<<Displacing  42/coordinate 3 (+)>>>
             <<<Displacing  43/coordinate 1 (+)>>>
             <<<Displacing  42/coordinate 3 (-)>>>
             <<<Displacing  43/coordinate 1 (-)>>>
             <<<Displacing  43/coordinate 3 (+)>>>
             <<<Displacing  43/coordinate 2 (+)>>>
             <<<Displacing  43/coordinate 2 (-)>>>
             <<<Displacing  44/coordinate 1 (+)>>>
             <<<Displacing  43/coordinate 3 (-)>>>
             <<<Displacing  44/coordinate 1 (-)>>>
             <<<Displacing  44/coordinate 2 (+)>>>
             <<<Displacing  44/coordinate 3 (+)>>>
             <<<Displacing  44/coordinate 2 (-)>>>
             <<<Displacing  44/coordinate 3 (-)>>>
             <<<Displacing  45/coordinate 1 (+)>>>
             <<<Displacing  45/coordinate 1 (-)>>>
             <<<Displacing  45/coordinate 2 (+)>>>
             <<<Displacing  45/coordinate 2 (-)>>>
             <<<Displacing  46/coordinate 1 (+)>>>
             <<<Displacing  45/coordinate 3 (+)>>>
             <<<Displacing  45/coordinate 3 (-)>>>
             <<<Displacing  46/coordinate 1 (-)>>>
             <<<Displacing  46/coordinate 2 (+)>>>
             <<<Displacing  46/coordinate 3 (+)>>>
             <<<Displacing  46/coordinate 3 (-)>>>
             <<<Displacing  46/coordinate 2 (-)>>>
             <<<Displacing  47/coordinate 1 (+)>>>
             <<<Displacing  47/coordinate 1 (-)>>>
             <<<Displacing  47/coordinate 2 (+)>>>
             <<<Displacing  47/coordinate 2 (-)>>>
             <<<Displacing  47/coordinate 3 (+)>>>
             <<<Displacing  47/coordinate 3 (-)>>>
             <<<Displacing  48/coordinate 1 (+)>>>
             <<<Displacing  48/coordinate 1 (-)>>>
             <<<Displacing  48/coordinate 2 (+)>>>
             <<<Displacing  49/coordinate 1 (+)>>>
             <<<Displacing  48/coordinate 2 (-)>>>
             <<<Displacing  49/coordinate 1 (-)>>>
             <<<Displacing  48/coordinate 3 (+)>>>
             <<<Displacing  49/coordinate 2 (+)>>>
             <<<Displacing  49/coordinate 2 (-)>>>
             <<<Displacing  48/coordinate 3 (-)>>>
             <<<Displacing  49/coordinate 3 (+)>>>
             <<<Displacing  49/coordinate 3 (-)>>>

-----------------------
VIBRATIONAL FREQUENCIES
-----------------------

Scaling factor for frequencies =  1.000000000 (already applied!)

   0:         0.00 cm**-1
   1:         0.00 cm**-1
   2:         0.00 cm**-1
   3:         0.00 cm**-1
   4:         0.00 cm**-1
   5:         0.00 cm**-1
   6:        33.19 cm**-1
   7:        37.70 cm**-1
   8:        43.91 cm**-1
   9:        49.12 cm**-1
  10:        57.96 cm**-1
  11:        79.87 cm**-1
  12:        83.65 cm**-1
  13:        90.01 cm**-1
  14:       100.01 cm**-1
  15:       101.63 cm**-1
  16:       116.57 cm**-1
  17:       150.47 cm**-1
  18:       158.57 cm**-1
  19:       167.02 cm**-1
  20:       173.47 cm**-1
  21:       178.66 cm**-1
  22:       182.40 cm**-1
  23:       190.22 cm**-1
  24:       210.66 cm**-1
  25:       220.94 cm**-1
  26:       253.08 cm**-1
  27:       274.71 cm**-1
  28:       288.21 cm**-1
  29:       303.62 cm**-1
  30:       347.36 cm**-1
  31:       350.06 cm**-1
  32:       386.06 cm**-1
  33:       393.84 cm**-1
  34:       401.92 cm**-1
  35:       403.38 cm**-1
  36:       428.44 cm**-1
  37:       448.55 cm**-1
  38:       475.37 cm**-1
  39:       478.53 cm**-1
  40:       516.12 cm**-1
  41:       524.73 cm**-1
  42:       579.40 cm**-1
  43:       589.39 cm**-1
  44:       625.24 cm**-1
  45:       661.05 cm**-1
  46:       677.35 cm**-1
  47:       742.53 cm**-1
  48:       784.10 cm**-1
  49:       794.60 cm**-1
  50:       795.22 cm**-1
  51:       836.92 cm**-1
  52:       843.99 cm**-1
  53:       862.56 cm**-1
  54:       889.77 cm**-1
  55:       897.05 cm**-1
  56:       923.55 cm**-1
  57:       933.89 cm**-1
  58:       939.25 cm**-1
  59:       943.37 cm**-1
  60:       949.71 cm**-1
  61:       951.73 cm**-1
  62:       958.06 cm**-1
  63:       963.87 cm**-1
  64:       974.36 cm**-1
  65:       985.20 cm**-1
  66:      1007.48 cm**-1
  67:      1037.76 cm**-1
  68:      1043.38 cm**-1
  69:      1051.99 cm**-1
  70:      1056.07 cm**-1
  71:      1069.41 cm**-1
  72:      1076.70 cm**-1
  73:      1092.97 cm**-1
  74:      1109.04 cm**-1
  75:      1118.01 cm**-1
  76:      1137.87 cm**-1
  77:      1143.90 cm**-1
  78:      1183.26 cm**-1
  79:      1187.09 cm**-1
  80:      1208.07 cm**-1
  81:      1211.43 cm**-1
  82:      1215.52 cm**-1
  83:      1245.13 cm**-1
  84:      1259.52 cm**-1
  85:      1266.11 cm**-1
  86:      1272.55 cm**-1
  87:      1279.02 cm**-1
  88:      1280.33 cm**-1
  89:      1283.17 cm**-1
  90:      1286.48 cm**-1
  91:      1314.51 cm**-1
  92:      1328.88 cm**-1
  93:      1343.22 cm**-1
  94:      1353.80 cm**-1
  95:      1369.37 cm**-1
  96:      1375.44 cm**-1
  97:      1407.77 cm**-1
  98:      1434.32 cm**-1
  99:      1434.65 cm**-1
 100:      1439.51 cm**-1
 101:      1473.86 cm**-1
 102:      1496.70 cm**-1
 103:      1506.39 cm**-1
 104:      1508.23 cm**-1
 105:      1508.99 cm**-1
 106:      1510.58 cm**-1
 107:      1511.47 cm**-1
 108:      1512.37 cm**-1
 109:      1515.21 cm**-1
 110:      1517.42 cm**-1
 111:      1524.10 cm**-1
 112:      1532.34 cm**-1
 113:      1558.20 cm**-1
 114:      1568.81 cm**-1
 115:      1583.10 cm**-1
 116:      1603.70 cm**-1
 117:      2485.28 cm**-1
 118:      2788.92 cm**-1
 119:      2809.24 cm**-1
 120:      2867.39 cm**-1
 121:      2871.39 cm**-1
 122:      2873.45 cm**-1
 123:      2876.25 cm**-1
 124:      2886.52 cm**-1
 125:      2887.82 cm**-1
 126:      2895.44 cm**-1
 127:      2897.33 cm**-1
 128:      2904.22 cm**-1
 129:      2906.00 cm**-1
 130:      2911.54 cm**-1
 131:      2912.54 cm**-1
 132:      2913.76 cm**-1
 133:      2918.15 cm**-1
 134:      2918.84 cm**-1
 135:      2930.20 cm**-1
 136:      2930.88 cm**-1
 137:      2983.72 cm**-1
 138:      2990.85 cm**-1
 139:      2996.87 cm**-1
 140:      3005.71 cm**-1
 141:      3027.72 cm**-1
 142:      3034.99 cm**-1
 143:      3160.15 cm**-1
 144:      3293.39 cm**-1
 145:      3427.52 cm**-1
 146:      3436.69 cm**-1


------------
NORMAL MODES
------------

These modes are the cartesian displacements weighted by the diagonal matrix
M(i,i)=1/sqrt(m[i]) where m[i] is the mass of the displaced atom
Thus, these vectors are normalized but *not* orthogonal

                  0          1          2          3          4          5    
      0       0.000000   0.000000   0.000000   0.000000   0.000000   0.000000
      1       0.000000   0.000000   0.000000   0.000000   0.000000   0.000000
      2       0.000000   0.000000   0.000000   0.000000   0.000000   0.000000
      3       0.000000   0.000000   0.000000   0.000000   0.000000   0.000000
      4       0.000000   0.000000   0.000000   0.000000   0.000000   0.000000
      5       0.000000   0.000000   0.000000   0.000000   0.000000   0.000000
      6       0.000000   0.000000   0.000000   0.000000   0.000000   0.000000
      7       0.000000   0.000000   0.000000   0.000000   0.000000   0.000000
      8       0.000000   0.000000   0.000000   0.000000   0.000000   0.000000
      9       0.000000   0.000000   0.000000   0.000000   0.000000   0.000000
     10       0.000000   0.000000   0.000000   0.000000   0.000000   0.000000
     11       0.000000   0.000000   0.000000   0.000000   0.000000   0.000000
     12       0.000000   0.000000   0.000000   0.000000   0.000000   0.000000
     13       0.000000   0.000000   0.000000   0.000000   0.000000   0.000000
     14       0.000000   0.000000   0.000000   0.000000   0.000000   0.000000
     15       0.000000   0.000000   0.000000   0.000000   0.000000   0.000000
     16       0.000000   0.000000   0.000000   0.000000   0.000000   0.000000
     17       0.000000   0.000000   0.000000   0.000000   0.000000   0.000000
     18       0.000000   0.000000   0.000000   0.000000   0.000000   0.000000
     19       0.000000   0.000000   0.000000   0.000000   0.000000   0.000000
     20       0.000000   0.000000   0.000000   0.000000   0.000000   0.000000
     21       0.000000   0.000000   0.000000   0.000000   0.000000   0.000000
     22       0.000000   0.000000   0.000000   0.000000   0.000000   0.000000
     23       0.000000   0.000000   0.000000   0.000000   0.000000   0.000000
     24       0.000000   0.000000   0.000000   0.000000   0.000000   0.000000
     25       0.000000   0.000000   0.000000   0.000000   0.000000   0.000000
     26       0.000000   0.000000   0.000000   0.000000   0.000000   0.000000
     27       0.000000   0.000000   0.000000   0.000000   0.000000   0.000000
     28       0.000000   0.000000   0.000000   0.000000   0.000000   0.000000
     29       0.000000   0.000000   0.000000   0.000000   0.000000   0.000000
     30       0.000000   0.000000   0.000000   0.000000   0.000000   0.000000
     31       0.000000   0.000000   0.000000   0.000000   0.000000   0.000000
     32       0.000000   0.000000   0.000000   0.000000   0.000000   0.000000
     33       0.000000   0.000000   0.000000   0.000000   0.000000   0.000000
     34       0.000000   0.000000   0.000000   0.000000   0.000000   0.000000
     35       0.000000   0.000000   0.000000   0.000000   0.000000   0.000000
     36       0.000000   0.000000   0.000000   0.000000   0.000000   0.000000
     37       0.000000   0.000000   0.000000   0.000000   0.000000   0.000000
     38       0.000000   0.000000   0.000000   0.000000   0.000000   0.000000
     39       0.000000   0.000000   0.000000   0.000000   0.000000   0.000000
     40       0.000000   0.000000   0.000000   0.000000   0.000000   0.000000
     41       0.000000   0.000000   0.000000   0.000000   0.000000   0.000000
     42       0.000000   0.000000   0.000000   0.000000   0.000000   0.000000
     43       0.000000   0.000000   0.000000   0.000000   0.000000   0.000000
     44       0.000000   0.000000   0.000000   0.000000   0.000000   0.000000
     45       0.000000   0.000000   0.000000   0.000000   0.000000   0.000000
     46       0.000000   0.000000   0.000000   0.000000   0.000000   0.000000
     47       0.000000   0.000000   0.000000   0.000000   0.000000   0.000000
     48       0.000000   0.000000   0.000000   0.000000   0.000000   0.000000
     49       0.000000   0.000000   0.000000   0.000000   0.000000   0.000000
     50       0.000000   0.000000   0.000000   0.000000   0.000000   0.000000
     51       0.000000   0.000000   0.000000   0.000000   0.000000   0.000000
     52       0.000000   0.000000   0.000000   0.000000   0.000000   0.000000
     53       0.000000   0.000000   0.000000   0.000000   0.000000   0.000000
     54       0.000000   0.000000   0.000000   0.000000   0.000000   0.000000
     55       0.000000   0.000000   0.000000   0.000000   0.000000   0.000000
     56       0.000000   0.000000   0.000000   0.000000   0.000000   0.000000
     57       0.000000   0.000000   0.000000   0.000000   0.000000   0.000000
     58       0.000000   0.000000   0.000000   0.000000   0.000000   0.000000
     59       0.000000   0.000000   0.000000   0.000000   0.000000   0.000000
     60       0.000000   0.000000   0.000000   0.000000   0.000000   0.000000
     61       0.000000   0.000000   0.000000   0.000000   0.000000   0.000000
     62       0.000000   0.000000   0.000000   0.000000   0.000000   0.000000
     63       0.000000   0.000000   0.000000   0.000000   0.000000   0.000000
     64       0.000000   0.000000   0.000000   0.000000   0.000000   0.000000
     65       0.000000   0.000000   0.000000   0.000000   0.000000   0.000000
     66       0.000000   0.000000   0.000000   0.000000   0.000000   0.000000
     67       0.000000   0.000000   0.000000   0.000000   0.000000   0.000000
     68       0.000000   0.000000   0.000000   0.000000   0.000000   0.000000
     69       0.000000   0.000000   0.000000   0.000000   0.000000   0.000000
     70       0.000000   0.000000   0.000000   0.000000   0.000000   0.000000
     71       0.000000   0.000000   0.000000   0.000000   0.000000   0.000000
     72       0.000000   0.000000   0.000000   0.000000   0.000000   0.000000
     73       0.000000   0.000000   0.000000   0.000000   0.000000   0.000000
     74       0.000000   0.000000   0.000000   0.000000   0.000000   0.000000
     75       0.000000   0.000000   0.000000   0.000000   0.000000   0.000000
     76       0.000000   0.000000   0.000000   0.000000   0.000000   0.000000
     77       0.000000   0.000000   0.000000   0.000000   0.000000   0.000000
     78       0.000000   0.000000   0.000000   0.000000   0.000000   0.000000
     79       0.000000   0.000000   0.000000   0.000000   0.000000   0.000000
     80       0.000000   0.000000   0.000000   0.000000   0.000000   0.000000
     81       0.000000   0.000000   0.000000   0.000000   0.000000   0.000000
     82       0.000000   0.000000   0.000000   0.000000   0.000000   0.000000
     83       0.000000   0.000000   0.000000   0.000000   0.000000   0.000000
     84       0.000000   0.000000   0.000000   0.000000   0.000000   0.000000
     85       0.000000   0.000000   0.000000   0.000000   0.000000   0.000000
     86       0.000000   0.000000   0.000000   0.000000   0.000000   0.000000
     87       0.000000   0.000000   0.000000   0.000000   0.000000   0.000000
     88       0.000000   0.000000   0.000000   0.000000   0.000000   0.000000
     89       0.000000   0.000000   0.000000   0.000000   0.000000   0.000000
     90       0.000000   0.000000   0.000000   0.000000   0.000000   0.000000
     91       0.000000   0.000000   0.000000   0.000000   0.000000   0.000000
     92       0.000000   0.000000   0.000000   0.000000   0.000000   0.000000
     93       0.000000   0.000000   0.000000   0.000000   0.000000   0.000000
     94       0.000000   0.000000   0.000000   0.000000   0.000000   0.000000
     95       0.000000   0.000000   0.000000   0.000000   0.000000   0.000000
     96       0.000000   0.000000   0.000000   0.000000   0.000000   0.000000
     97       0.000000   0.000000   0.000000   0.000000   0.000000   0.000000
     98       0.000000   0.000000   0.000000   0.000000   0.000000   0.000000
     99       0.000000   0.000000   0.000000   0.000000   0.000000   0.000000
    100       0.000000   0.000000   0.000000   0.000000   0.000000   0.000000
    101       0.000000   0.000000   0.000000   0.000000   0.000000   0.000000
    102       0.000000   0.000000   0.000000   0.000000   0.000000   0.000000
    103       0.000000   0.000000   0.000000   0.000000   0.000000   0.000000
    104       0.000000   0.000000   0.000000   0.000000   0.000000   0.000000
    105       0.000000   0.000000   0.000000   0.000000   0.000000   0.000000
    106       0.000000   0.000000   0.000000   0.000000   0.000000   0.000000
    107       0.000000   0.000000   0.000000   0.000000   0.000000   0.000000
    108       0.000000   0.000000   0.000000   0.000000   0.000000   0.000000
    109       0.000000   0.000000   0.000000   0.000000   0.000000   0.000000
    110       0.000000   0.000000   0.000000   0.000000   0.000000   0.000000
    111       0.000000   0.000000   0.000000   0.000000   0.000000   0.000000
    112       0.000000   0.000000   0.000000   0.000000   0.000000   0.000000
    113       0.000000   0.000000   0.000000   0.000000   0.000000   0.000000
    114       0.000000   0.000000   0.000000   0.000000   0.000000   0.000000
    115       0.000000   0.000000   0.000000   0.000000   0.000000   0.000000
    116       0.000000   0.000000   0.000000   0.000000   0.000000   0.000000
    117       0.000000   0.000000   0.000000   0.000000   0.000000   0.000000
    118       0.000000   0.000000   0.000000   0.000000   0.000000   0.000000
    119       0.000000   0.000000   0.000000   0.000000   0.000000   0.000000
    120       0.000000   0.000000   0.000000   0.000000   0.000000   0.000000
    121       0.000000   0.000000   0.000000   0.000000   0.000000   0.000000
    122       0.000000   0.000000   0.000000   0.000000   0.000000   0.000000
    123       0.000000   0.000000   0.000000   0.000000   0.000000   0.000000
    124       0.000000   0.000000   0.000000   0.000000   0.000000   0.000000
    125       0.000000   0.000000   0.000000   0.000000   0.000000   0.000000
    126       0.000000   0.000000   0.000000   0.000000   0.000000   0.000000
    127       0.000000   0.000000   0.000000   0.000000   0.000000   0.000000
    128       0.000000   0.000000   0.000000   0.000000   0.000000   0.000000
    129       0.000000   0.000000   0.000000   0.000000   0.000000   0.000000
    130       0.000000   0.000000   0.000000   0.000000   0.000000   0.000000
    131       0.000000   0.000000   0.000000   0.000000   0.000000   0.000000
    132       0.000000   0.000000   0.000000   0.000000   0.000000   0.000000
    133       0.000000   0.000000   0.000000   0.000000   0.000000   0.000000
    134       0.000000   0.000000   0.000000   0.000000   0.000000   0.000000
    135       0.000000   0.000000   0.000000   0.000000   0.000000   0.000000
    136       0.000000   0.000000   0.000000   0.000000   0.000000   0.000000
    137       0.000000   0.000000   0.000000   0.000000   0.000000   0.000000
    138       0.000000   0.000000   0.000000   0.000000   0.000000   0.000000
    139       0.000000   0.000000   0.000000   0.000000   0.000000   0.000000
    140       0.000000   0.000000   0.000000   0.000000   0.000000   0.000000
    141       0.000000   0.000000   0.000000   0.000000   0.000000   0.000000
    142       0.000000   0.000000   0.000000   0.000000   0.000000   0.000000
    143       0.000000   0.000000   0.000000   0.000000   0.000000   0.000000
    144       0.000000   0.000000   0.000000   0.000000   0.000000   0.000000
    145       0.000000   0.000000   0.000000   0.000000   0.000000   0.000000
    146       0.000000   0.000000   0.000000   0.000000   0.000000   0.000000
                  6          7          8          9         10         11    
      0       0.040245  -0.097177   0.000384  -0.042228  -0.008826  -0.026067
      1       0.017418   0.037472   0.041073   0.016694   0.076738   0.029289
      2       0.074937   0.017578  -0.000937  -0.005647  -0.033104  -0.041232
      3       0.029336  -0.114704   0.002553  -0.040047  -0.003943  -0.009091
      4       0.011182   0.022743   0.044551   0.002730   0.099970   0.034869
      5       0.074365   0.018975  -0.002061   0.003078  -0.043976  -0.038035
      6       0.021597  -0.128653   0.003932  -0.038899  -0.000426   0.004203
      7      -0.004062   0.039395   0.042965   0.016490   0.128777  -0.012312
      8       0.090519   0.024033  -0.002500  -0.005777  -0.063126  -0.025966
      9       0.023608  -0.125035   0.003559  -0.039160  -0.001131   0.000284
     10      -0.010516   0.068272   0.038514   0.040387   0.136643  -0.067880
     11       0.106951   0.030349  -0.001510  -0.020446  -0.070841  -0.016760
     12       0.034160  -0.107183   0.001800  -0.040776  -0.004549  -0.016644
     13      -0.005807   0.080275   0.034911   0.050783   0.116694  -0.081838
     14       0.109015   0.030767  -0.000407  -0.026778  -0.061144  -0.015816
     15       0.042629  -0.093320   0.000067  -0.041758  -0.008123  -0.030340
     16       0.007029   0.066874   0.036028   0.040722   0.088210  -0.035974
     17       0.094088   0.024359   0.000040  -0.019983  -0.043052  -0.028258
     18       0.053826  -0.074116   0.000208  -0.041854  -0.010022  -0.041341
     19       0.040195   0.020763   0.044502   0.008174   0.043693   0.086013
     20       0.050548   0.004705  -0.002402  -0.002165  -0.015244  -0.053891
     21       0.027592  -0.116633   0.003280  -0.038906  -0.002272  -0.006496
     22       0.021517  -0.003867   0.049273  -0.020237   0.094279   0.075882
     23       0.058655   0.021346  -0.001654   0.021236  -0.034387  -0.046483
     24       0.050540  -0.079286  -0.000907  -0.042539  -0.010550  -0.044487
     25       0.009745   0.076411   0.033418   0.049872   0.072706  -0.046044
     26       0.095362   0.024329   0.001157  -0.025453  -0.035348  -0.027892
     27       0.017098  -0.135772   0.004640  -0.038365   0.001071   0.010529
     28      -0.018429   0.079400   0.037790   0.048856   0.156164  -0.098714
     29       0.117829   0.034771  -0.002236  -0.025980  -0.083983  -0.010012
     30       0.056521  -0.078596   0.000277  -0.043035  -0.015642  -0.032706
     31       0.054090  -0.003761   0.045335   0.002416   0.013472   0.131352
     32       0.026700  -0.016867  -0.001689  -0.001132  -0.003875  -0.051033
     33       0.073516  -0.045469  -0.004648  -0.042084  -0.013894  -0.050886
     34       0.082902  -0.019347   0.060532   0.005831  -0.010615   0.137969
     35      -0.002124  -0.034807  -0.005922  -0.004183   0.007839  -0.039010
     36      -0.042839   0.059687  -0.012313   0.123823  -0.071432  -0.028772
     37      -0.035576   0.017032  -0.081916  -0.016260  -0.118001   0.167987
     38       0.011232   0.015103  -0.022651   0.070587   0.031109   0.039681
     39       0.054113  -0.010602  -0.043256  -0.068048   0.002728   0.029304
     40       0.081171  -0.079305   0.104354   0.032244  -0.020556   0.062487
     41      -0.042877  -0.064438  -0.009758  -0.011103   0.023443  -0.006870
     42       0.083251  -0.014523  -0.014039  -0.043425  -0.010117  -0.057438
     43       0.092670   0.020758   0.034044  -0.011587  -0.008561   0.187496
     44      -0.001126  -0.039180   0.006831   0.008341   0.009802  -0.083133
     45       0.091030  -0.076341   0.029364  -0.018487  -0.028914  -0.115810
     46       0.098168  -0.029906   0.071260   0.010299  -0.022930   0.130479
     47       0.005752  -0.023230  -0.019691  -0.017985   0.002201   0.008999
     48       0.050019  -0.051640  -0.010491  -0.050830  -0.004044  -0.000159
     49       0.070331  -0.113559   0.120451   0.040749  -0.020531   0.027109
     50      -0.037666  -0.071201   0.004604  -0.003559   0.017868  -0.003232
     51       0.036699   0.018256  -0.076339  -0.090254   0.016635   0.101366
     52       0.062771  -0.060927   0.074372   0.012890  -0.006618   0.106359
     53      -0.054778  -0.062423  -0.025249  -0.020340   0.031709  -0.004433
     54      -0.162545   0.194171   0.261728  -0.181059  -0.022574  -0.002343
     55      -0.217324  -0.009131   0.018266  -0.001337  -0.189383  -0.263442
     56      -0.304225  -0.109650   0.116811  -0.122565   0.021811   0.116912
     57       0.063402  -0.050561  -0.000771  -0.040015  -0.005519  -0.062438
     58       0.047047   0.031065   0.047017   0.010290   0.047349   0.078038
     59       0.051131   0.010835  -0.004526  -0.002364  -0.015058  -0.060158
     60      -0.154876   0.199068   0.267079  -0.166986   0.011444  -0.045353
     61      -0.212423  -0.010093   0.014877   0.000299  -0.191892  -0.256111
     62      -0.297093  -0.112755   0.108018  -0.126519   0.000968   0.155280
     63       0.002074   0.163122   0.048827   0.025476   0.050135   0.056447
     64      -0.107062  -0.041008  -0.150179   0.061231  -0.290247   0.065271
     65      -0.124905  -0.108841  -0.062220   0.116910   0.201166   0.014481
     66      -0.119635   0.188196   0.208759  -0.130345  -0.005206   0.018403
     67      -0.185486  -0.019706  -0.032066   0.025126  -0.214088  -0.191709
     68      -0.257444  -0.113831   0.064649  -0.057507   0.066340   0.097850
     69       0.001652   0.162882   0.055685   0.009293   0.072983   0.099272
     70      -0.102876  -0.037983  -0.146300   0.060598  -0.266261   0.068105
     71      -0.116293  -0.102842  -0.059311   0.126731   0.232806  -0.009125
     72      -0.017650   0.149599   0.039541   0.036883   0.025333   0.027476
     73      -0.088382  -0.024681  -0.137252   0.042014  -0.260534   0.105340
     74      -0.080727  -0.075013  -0.058468   0.110739   0.170828   0.019002
     75      -0.028794   0.127149  -0.005608   0.092263  -0.082656  -0.029980
     76      -0.030493   0.047867  -0.076692  -0.032537  -0.131405   0.173532
     77       0.021597   0.040080  -0.018168   0.063290   0.041200   0.031988
     78       0.013896  -0.142210   0.005003  -0.038491   0.001581   0.017652
     79      -0.008420   0.029418   0.045387   0.008066   0.145032  -0.005660
     80       0.090043   0.024285  -0.003495  -0.000962  -0.071756  -0.024499
     81       0.035556  -0.104296   0.001562  -0.040948  -0.005133  -0.019753
     82      -0.010971   0.099664   0.031596   0.066129   0.122558  -0.124608
     83       0.120567   0.035430  -0.000045  -0.036911  -0.067810  -0.007080
     84       0.062890   0.038128  -0.081815  -0.088389   0.009134   0.054873
     85       0.117454  -0.114627   0.163790   0.070537  -0.047694  -0.024144
     86      -0.069685  -0.087078  -0.008921  -0.014753   0.032464   0.020002
     87       0.078164   0.025782  -0.063591  -0.077187   0.000966   0.003067
     88       0.134685  -0.131235   0.192647   0.089614  -0.060823  -0.065829
     89      -0.056980  -0.100894   0.017780   0.003556   0.020137   0.001203
     90       0.065319   0.074905  -0.113339  -0.105333   0.015762   0.082485
     91       0.126601  -0.097511   0.159836   0.071424  -0.051464  -0.009474
     92      -0.075027  -0.069875  -0.032372  -0.029855   0.041228   0.031375
     93      -0.043932   0.092999  -0.018306   0.112284  -0.049730  -0.037353
     94      -0.035769   0.027477  -0.081762  -0.019719  -0.114893   0.166840
     95       0.013344   0.020410  -0.025334   0.074628   0.060398   0.027534
     96      -0.055727   0.057145  -0.038995   0.128248   0.009903  -0.059329
     97      -0.030251   0.030613  -0.101790  -0.035542  -0.038707   0.119147
     98       0.025465   0.051478  -0.016147   0.056223   0.042925   0.025710
     99      -0.067470   0.024864  -0.049323   0.152870   0.038992  -0.050352
    100      -0.030994   0.025383  -0.101483  -0.019597  -0.030772   0.146430
    101       0.018394   0.032459  -0.022590   0.069207   0.059660   0.027832
    102      -0.048020   0.065855  -0.050688   0.096340   0.048494  -0.118509
    103      -0.029215   0.031668  -0.103079  -0.041278  -0.034766   0.107603
    104       0.029914   0.055670  -0.022657   0.052951   0.070892   0.022701
    105      -0.062193   0.053103  -0.030766   0.154496  -0.018269  -0.010930
    106      -0.020763   0.031561  -0.120775  -0.075400   0.020932   0.033094
    107       0.037973   0.100244   0.005525   0.027620  -0.032178   0.026775
    108      -0.071080   0.051073  -0.018417   0.188658  -0.057717   0.058946
    109      -0.021675   0.030520  -0.118955  -0.070087   0.015220   0.041726
    110       0.029360   0.104994   0.020700   0.053825  -0.057293   0.082995
    111      -0.050887   0.080130  -0.026658   0.121467  -0.045705  -0.044201
    112      -0.021555   0.040600  -0.112671  -0.074181   0.014190   0.041888
    113       0.044698   0.114841   0.006802   0.008012  -0.047393   0.005774
    114      -0.071248   0.020720  -0.044383   0.178204   0.041093  -0.010262
    115      -0.008195   0.021131  -0.153978  -0.125382   0.091974  -0.084843
    116       0.049393   0.120561   0.002745  -0.007957  -0.048714  -0.019082
    117      -0.080201   0.000083  -0.044862   0.208664   0.065026   0.024214
    118      -0.005307   0.021022  -0.156694  -0.129246   0.097676  -0.091667
    119       0.043609   0.108317   0.002803   0.010739  -0.035397   0.002456
    120      -0.064754   0.017071  -0.063112   0.145955   0.077694  -0.083684
    121      -0.007768   0.020498  -0.155987  -0.128624   0.096140  -0.092944
    122       0.057736   0.120974  -0.011457  -0.035657  -0.024120  -0.074181
    123       0.047496   0.051823  -0.101363  -0.100489   0.017421   0.112102
    124       0.116324  -0.147730   0.186862   0.080852  -0.050487  -0.070667
    125      -0.101274  -0.111510  -0.011094  -0.021928   0.044087   0.058028
    126       0.042776   0.028874  -0.084146  -0.091941   0.014636   0.100105
    127       0.109723  -0.166917   0.194200   0.081863  -0.047844  -0.089760
    128      -0.100236  -0.116933  -0.001289  -0.014958   0.039404   0.062732
    129       0.055012   0.072331  -0.115092  -0.106846   0.018691   0.113543
    130       0.133203  -0.156509   0.208777   0.096564  -0.062249  -0.110402
    131      -0.115714  -0.123372  -0.011201  -0.024782   0.049011   0.076881
    132       0.034338   0.063177  -0.117580  -0.110486   0.024224   0.161937
    133       0.104752  -0.141616   0.171705   0.069952  -0.042336  -0.043453
    134      -0.108825  -0.110925  -0.021700  -0.030810   0.051218   0.061402
    135      -0.075830   0.023127  -0.031554   0.201739   0.016834   0.041063
    136      -0.000585   0.013570  -0.178992  -0.165064   0.142437  -0.178195
    137       0.055736   0.153102   0.016188  -0.028357  -0.110072  -0.019884
    138      -0.070128   0.038670  -0.029029   0.183217  -0.004937   0.021232
    139       0.000173   0.017076  -0.183501  -0.176945   0.143312  -0.197927
    140       0.059296   0.162547   0.018590  -0.038285  -0.124303  -0.029275
    141      -0.078584   0.006219  -0.042199   0.205344   0.053721   0.028151
    142       0.004510   0.004920  -0.193301  -0.184626   0.178450  -0.229923
    143       0.059742   0.161299   0.017700  -0.038896  -0.120913  -0.032136
    144      -0.081953   0.026265  -0.014407   0.232953  -0.014922   0.109480
    145      -0.001016   0.013601  -0.176977  -0.161289   0.139529  -0.170681
    146       0.051944   0.157505   0.020942  -0.020988  -0.126105   0.001350
                 12         13         14         15         16         17    
      0      -0.016860  -0.020216  -0.010099  -0.044952  -0.010108  -0.001147
      1       0.011075   0.030739  -0.001294   0.049381  -0.008370  -0.195336
      2      -0.007369  -0.038107   0.058309   0.033446  -0.005928   0.059864
      3       0.003385  -0.060466   0.052909   0.032378  -0.007758  -0.030272
      4      -0.043143  -0.037647   0.035773   0.062932   0.199465  -0.154141
      5       0.029465  -0.015027   0.061075   0.055340  -0.119205   0.024544
      6       0.019508  -0.091179   0.103441   0.094657  -0.008695  -0.051015
      7      -0.107826  -0.092605   0.026326   0.015905   0.209347   0.020644
      8       0.047690   0.044706   0.016408   0.019360  -0.124015  -0.052485
      9       0.014875  -0.084054   0.091065   0.079266  -0.010982  -0.045589
     10      -0.120395  -0.082473  -0.014668  -0.046811   0.004069   0.152220
     11       0.028565   0.082188  -0.033743  -0.036071  -0.011346  -0.100908
     12      -0.006109  -0.045988   0.029072   0.002952  -0.015105  -0.019360
     13      -0.068933  -0.021790  -0.044226  -0.062856  -0.209941   0.074650
     14      -0.008561   0.063254  -0.041626  -0.057450   0.107986  -0.047118
     15      -0.022222  -0.014894  -0.020973  -0.058479  -0.014474   0.000960
     16      -0.004859   0.032237  -0.037460  -0.014846  -0.212453  -0.108510
     17      -0.026419   0.003603   0.005137  -0.022187   0.110470   0.033114
     18      -0.037112   0.010418  -0.055395  -0.094838   0.000114  -0.002845
     19       0.066656   0.075800   0.001203   0.095067  -0.019459  -0.195477
     20      -0.015279  -0.086743   0.098543   0.058077  -0.008711   0.067694
     21       0.006199  -0.065841   0.061093   0.044921  -0.004699  -0.035931
     22      -0.031091  -0.047136   0.070648   0.113080   0.342428  -0.238973
     23       0.039957  -0.042553   0.094692   0.100204  -0.191741   0.041626
     24      -0.038549   0.012441  -0.067471  -0.115860  -0.015397   0.015599
     25       0.031821   0.076173  -0.060649  -0.026021  -0.362641  -0.150724
     26      -0.053646  -0.010306  -0.000230  -0.038083   0.194321   0.062720
     27       0.027572  -0.106565   0.127736   0.124403  -0.009312  -0.058515
     28      -0.165404  -0.119174  -0.021418  -0.080539   0.010083   0.296311
     29       0.041136   0.124838  -0.066281  -0.062256  -0.016187  -0.167729
     30      -0.034861   0.016109  -0.057648  -0.094716   0.007974   0.038254
     31       0.078943   0.101836  -0.002144   0.104871   0.024009   0.020402
     32       0.010488  -0.110841   0.125290   0.087353  -0.057937  -0.009408
     33      -0.055464   0.003348  -0.054984  -0.103931   0.020065  -0.008864
     34       0.092994   0.082785   0.021433   0.136905   0.003739   0.116847
     35       0.019803  -0.086311   0.106211   0.074410  -0.056095  -0.017008
     36      -0.112700   0.119329   0.004572   0.087226  -0.007242   0.019470
     37      -0.000609  -0.063465   0.098134  -0.155197  -0.034587  -0.006216
     38       0.131098  -0.185322  -0.099989  -0.030668   0.008980  -0.031451
     39       0.003200   0.062206  -0.065916  -0.053482   0.024970  -0.046203
     40       0.037011   0.068107  -0.012710   0.049302   0.007202   0.178294
     41       0.041745   0.001685   0.031286   0.029782  -0.041136  -0.000311
     42      -0.065499  -0.009886  -0.042694  -0.096319   0.027468  -0.059328
     43       0.132534   0.084055   0.051094   0.203121  -0.005357   0.082457
     44      -0.019645  -0.097690   0.093138   0.030041  -0.042444  -0.034144
     45      -0.103500  -0.040573  -0.049305  -0.145798   0.017886   0.042212
     46       0.092079   0.059719   0.038484   0.148051  -0.007465   0.160865
     47       0.062062  -0.080511   0.126539   0.130130  -0.070621   0.007437
     48      -0.018641   0.087389  -0.120840  -0.125540   0.029130  -0.076586
     49       0.009711   0.076690  -0.044513  -0.007390   0.014584   0.227044
     50       0.045297   0.015900   0.010836   0.014919  -0.043322  -0.064268
     51       0.055609   0.118534  -0.079355  -0.011045   0.030471  -0.069333
     52       0.067867   0.103340  -0.016621   0.078685   0.015098   0.216609
     53       0.041883   0.004994   0.036984   0.036223  -0.033988   0.078567
     54       0.090253  -0.050166  -0.001991  -0.040793  -0.017906  -0.013783
     55       0.212623   0.060734   0.078384  -0.010685   0.098917   0.032004
     56      -0.186538  -0.034362  -0.092540   0.091030  -0.029150   0.012596
     57      -0.056424   0.017296  -0.078792  -0.126640   0.000886  -0.050953
     58       0.085056   0.070738   0.004073   0.107866  -0.077044  -0.309615
     59      -0.040872  -0.077757   0.081971   0.030507   0.035199   0.126721
     60       0.142963  -0.024586   0.044093  -0.064225   0.000605  -0.010232
     61       0.203883   0.057508   0.071600  -0.004101   0.097234   0.030933
     62      -0.232013  -0.054638  -0.130887   0.116202  -0.045322   0.007238
     63       0.014458   0.034065   0.135310  -0.121617  -0.014225  -0.013280
     64      -0.119459  -0.056653  -0.054442   0.014837  -0.021682  -0.050697
     65      -0.024141   0.119992   0.232892  -0.138875   0.040244  -0.008879
     66       0.071096  -0.034761   0.034106  -0.068836  -0.021142  -0.025173
     67       0.129877   0.041893   0.048375   0.002625   0.072660   0.017363
     68      -0.161439   0.007081  -0.014044   0.041226  -0.013636   0.008949
     69      -0.004346   0.041578   0.180628  -0.157495  -0.025746  -0.013507
     70      -0.102974  -0.042203  -0.007983  -0.019030  -0.020210  -0.051754
     71       0.021012   0.143196   0.292675  -0.180273   0.051066  -0.010662
     72      -0.004100   0.043423   0.111196  -0.089989  -0.007582  -0.016062
     73      -0.096519  -0.072001  -0.013254  -0.041730  -0.030413  -0.056218
     74       0.028306   0.034964   0.125378  -0.113434   0.038240  -0.014056
     75      -0.120220   0.101531   0.002921   0.065687  -0.002619   0.024560
     76       0.005079  -0.096475   0.130897  -0.154581  -0.055215  -0.020010
     77       0.124494  -0.164243  -0.143456  -0.035892   0.036618  -0.011028
     78       0.035422  -0.118792   0.149878   0.151577  -0.007783  -0.067187
     79      -0.144779  -0.139689   0.051914   0.027276   0.362565   0.061698
     80       0.074902   0.060242   0.020389   0.035425  -0.209974  -0.082077
[...]
  29:       303.62    0.000000  (  0.000000   0.000000   0.000000)
  30:       347.36    0.000000  (  0.000000   0.000000   0.000000)
  31:       350.06    0.000000  (  0.000000   0.000000   0.000000)
  32:       386.06    0.000000  (  0.000000   0.000000   0.000000)
  33:       393.84    0.000000  (  0.000000   0.000000   0.000000)
  34:       401.92    0.000000  (  0.000000   0.000000   0.000000)
  35:       403.38    0.000000  (  0.000000   0.000000   0.000000)
  36:       428.44    0.000000  (  0.000000   0.000000   0.000000)
  37:       448.55    0.000000  (  0.000000   0.000000   0.000000)
  38:       475.37    0.000000  (  0.000000   0.000000   0.000000)
  39:       478.53    0.000000  (  0.000000   0.000000   0.000000)
  40:       516.12    0.000000  (  0.000000   0.000000   0.000000)
  41:       524.73    0.000000  (  0.000000   0.000000   0.000000)
  42:       579.40    0.000000  (  0.000000   0.000000   0.000000)
  43:       589.39    0.000000  (  0.000000   0.000000   0.000000)
  44:       625.24    0.000000  (  0.000000   0.000000   0.000000)
  45:       661.05    0.000000  (  0.000000   0.000000   0.000000)
  46:       677.35    0.000000  (  0.000000   0.000000   0.000000)
  47:       742.53    0.000000  (  0.000000   0.000000   0.000000)
  48:       784.10    0.000000  (  0.000000   0.000000   0.000000)
  49:       794.60    0.000000  (  0.000000   0.000000   0.000000)
  50:       795.22    0.000000  (  0.000000   0.000000   0.000000)
  51:       836.92    0.000000  (  0.000000   0.000000   0.000000)
  52:       843.99    0.000000  (  0.000000   0.000000   0.000000)
  53:       862.56    0.000000  (  0.000000   0.000000   0.000000)
  54:       889.77    0.000000  (  0.000000   0.000000   0.000000)
  55:       897.05    0.000000  (  0.000000   0.000000   0.000000)
  56:       923.55    0.000000  (  0.000000   0.000000   0.000000)
  57:       933.89    0.000000  (  0.000000   0.000000   0.000000)
  58:       939.25    0.000000  (  0.000000   0.000000   0.000000)
  59:       943.37    0.000000  (  0.000000   0.000000   0.000000)
  60:       949.71    0.000000  (  0.000000   0.000000   0.000000)
  61:       951.73    0.000000  (  0.000000   0.000000   0.000000)
  62:       958.06    0.000000  (  0.000000   0.000000   0.000000)
  63:       963.87    0.000000  (  0.000000   0.000000   0.000000)
  64:       974.36    0.000000  (  0.000000   0.000000   0.000000)
  65:       985.20    0.000000  (  0.000000   0.000000   0.000000)
  66:      1007.48    0.000000  (  0.000000   0.000000   0.000000)
  67:      1037.76    0.000000  (  0.000000   0.000000   0.000000)
  68:      1043.38    0.000000  (  0.000000   0.000000   0.000000)
  69:      1051.99    0.000000  (  0.000000   0.000000   0.000000)
  70:      1056.07    0.000000  (  0.000000   0.000000   0.000000)
  71:      1069.41    0.000000  (  0.000000   0.000000   0.000000)
  72:      1076.70    0.000000  (  0.000000   0.000000   0.000000)
  73:      1092.97    0.000000  (  0.000000   0.000000   0.000000)
  74:      1109.04    0.000000  (  0.000000   0.000000   0.000000)
  75:      1118.01    0.000000  (  0.000000   0.000000   0.000000)
  76:      1137.87    0.000000  (  0.000000   0.000000   0.000000)
  77:      1143.90    0.000000  (  0.000000   0.000000   0.000000)
  78:      1183.26    0.000000  (  0.000000   0.000000   0.000000)
  79:      1187.09    0.000000  (  0.000000   0.000000   0.000000)
  80:      1208.07    0.000000  (  0.000000   0.000000   0.000000)
  81:      1211.43    0.000000  (  0.000000   0.000000   0.000000)
  82:      1215.52    0.000000  (  0.000000   0.000000   0.000000)
  83:      1245.13    0.000000  (  0.000000   0.000000   0.000000)
  84:      1259.52    0.000000  (  0.000000   0.000000   0.000000)
  85:      1266.11    0.000000  (  0.000000   0.000000   0.000000)
  86:      1272.55    0.000000  (  0.000000   0.000000   0.000000)
  87:      1279.02    0.000000  (  0.000000   0.000000   0.000000)
  88:      1280.33    0.000000  (  0.000000   0.000000   0.000000)
  89:      1283.17    0.000000  (  0.000000   0.000000   0.000000)
  90:      1286.48    0.000000  (  0.000000   0.000000   0.000000)
  91:      1314.51    0.000000  (  0.000000   0.000000   0.000000)
  92:      1328.88    0.000000  (  0.000000   0.000000   0.000000)
  93:      1343.22    0.000000  (  0.000000   0.000000   0.000000)
  94:      1353.80    0.000000  (  0.000000   0.000000   0.000000)
  95:      1369.37    0.000000  (  0.000000   0.000000   0.000000)
  96:      1375.44    0.000000  (  0.000000   0.000000   0.000000)
  97:      1407.77    0.000000  (  0.000000   0.000000   0.000000)
  98:      1434.32    0.000000  (  0.000000   0.000000   0.000000)
  99:      1434.65    0.000000  (  0.000000   0.000000   0.000000)
 100:      1439.51    0.000000  (  0.000000   0.000000   0.000000)
 101:      1473.86    0.000000  (  0.000000   0.000000   0.000000)
 102:      1496.70    0.000000  (  0.000000   0.000000   0.000000)
 103:      1506.39    0.000000  (  0.000000   0.000000   0.000000)
 104:      1508.23    0.000000  (  0.000000   0.000000   0.000000)
 105:      1508.99    0.000000  (  0.000000   0.000000   0.000000)
 106:      1510.58    0.000000  (  0.000000   0.000000   0.000000)
 107:      1511.47    0.000000  (  0.000000   0.000000   0.000000)
 108:      1512.37    0.000000  (  0.000000   0.000000   0.000000)
 109:      1515.21    0.000000  (  0.000000   0.000000   0.000000)
 110:      1517.42    0.000000  (  0.000000   0.000000   0.000000)
 111:      1524.10    0.000000  (  0.000000   0.000000   0.000000)
 112:      1532.34    0.000000  (  0.000000   0.000000   0.000000)
 113:      1558.20    0.000000  (  0.000000   0.000000   0.000000)
 114:      1568.81    0.000000  (  0.000000   0.000000   0.000000)
 115:      1583.10    0.000000  (  0.000000   0.000000   0.000000)
 116:      1603.70    0.000000  (  0.000000   0.000000   0.000000)
 117:      2485.28    0.000000  (  0.000000   0.000000   0.000000)
 118:      2788.92    0.000000  (  0.000000   0.000000   0.000000)
 119:      2809.24    0.000000  (  0.000000   0.000000   0.000000)
 120:      2867.39    0.000000  (  0.000000   0.000000   0.000000)
 121:      2871.39    0.000000  (  0.000000   0.000000   0.000000)
 122:      2873.45    0.000000  (  0.000000   0.000000   0.000000)
 123:      2876.25    0.000000  (  0.000000   0.000000   0.000000)
 124:      2886.52    0.000000  (  0.000000   0.000000   0.000000)
 125:      2887.82    0.000000  (  0.000000   0.000000   0.000000)
 126:      2895.44    0.000000  (  0.000000   0.000000   0.000000)
 127:      2897.33    0.000000  (  0.000000   0.000000   0.000000)
 128:      2904.22    0.000000  (  0.000000   0.000000   0.000000)
 129:      2906.00    0.000000  (  0.000000   0.000000   0.000000)
 130:      2911.54    0.000000  (  0.000000   0.000000   0.000000)
 131:      2912.54    0.000000  (  0.000000   0.000000   0.000000)
 132:      2913.76    0.000000  (  0.000000   0.000000   0.000000)
 133:      2918.15    0.000000  (  0.000000   0.000000   0.000000)
 134:      2918.84    0.000000  (  0.000000   0.000000   0.000000)
 135:      2930.20    0.000000  (  0.000000   0.000000   0.000000)
 136:      2930.88    0.000000  (  0.000000   0.000000   0.000000)
 137:      2983.72    0.000000  (  0.000000   0.000000   0.000000)
 138:      2990.85    0.000000  (  0.000000   0.000000   0.000000)
 139:      2996.87    0.000000  (  0.000000   0.000000   0.000000)
 140:      3005.71    0.000000  (  0.000000   0.000000   0.000000)
 141:      3027.72    0.000000  (  0.000000   0.000000   0.000000)
 142:      3034.99    0.000000  (  0.000000   0.000000   0.000000)
 143:      3160.15    0.000000  (  0.000000   0.000000   0.000000)
 144:      3293.39    0.000000  (  0.000000   0.000000   0.000000)
 145:      3427.52    0.000000  (  0.000000   0.000000   0.000000)
 146:      3436.69    0.000000  (  0.000000   0.000000   0.000000)

The first frequency considered to be a vibration is 6
The total number of vibrations considered is 141


--------------------------
THERMOCHEMISTRY AT 298.15K
--------------------------

Temperature         ... 298.15 K
Pressure            ... 1.00 atm
Total Mass          ... 270.42 AMU

Throughout the following assumptions are being made:
  (1) The electronic state is orbitally nondegenerate
  (2) There are no thermally accessible electronically excited states
  (3) Hindered rotations indicated by low frequency modes are not
      treated as such but are treated as vibrations and this may
      cause some error
  (4) All equations used are the standard statistical mechanics
      equations for an ideal gas
  (5) All vibrations are strictly harmonic

freq.      33.19  E(vib)   ...       0.55 
freq.      37.70  E(vib)   ...       0.54 
freq.      43.91  E(vib)   ...       0.53 
freq.      49.12  E(vib)   ...       0.53 
freq.      57.96  E(vib)   ...       0.51 
freq.      79.87  E(vib)   ...       0.49 
freq.      83.65  E(vib)   ...       0.48 
freq.      90.01  E(vib)   ...       0.47 
freq.     100.01  E(vib)   ...       0.46 
freq.     101.63  E(vib)   ...       0.46 
freq.     116.57  E(vib)   ...       0.44 
freq.     150.47  E(vib)   ...       0.40 
freq.     158.57  E(vib)   ...       0.39 
freq.     167.02  E(vib)   ...       0.39 
freq.     173.47  E(vib)   ...       0.38 
freq.     178.66  E(vib)   ...       0.37 
freq.     182.40  E(vib)   ...       0.37 
freq.     190.22  E(vib)   ...       0.36 
freq.     210.66  E(vib)   ...       0.34 
freq.     220.94  E(vib)   ...       0.33 
freq.     253.08  E(vib)   ...       0.30 
freq.     274.71  E(vib)   ...       0.28 
freq.     288.21  E(vib)   ...       0.27 
freq.     303.62  E(vib)   ...       0.26 
freq.     347.36  E(vib)   ...       0.23 
freq.     350.06  E(vib)   ...       0.23 
freq.     386.06  E(vib)   ...       0.20 
freq.     393.84  E(vib)   ...       0.20 
freq.     401.92  E(vib)   ...       0.19 
freq.     403.38  E(vib)   ...       0.19 
freq.     428.44  E(vib)   ...       0.18 
freq.     448.55  E(vib)   ...       0.17 
freq.     475.37  E(vib)   ...       0.15 
freq.     478.53  E(vib)   ...       0.15 
freq.     516.12  E(vib)   ...       0.13 
freq.     524.73  E(vib)   ...       0.13 
freq.     579.40  E(vib)   ...       0.11 
freq.     589.39  E(vib)   ...       0.10 
freq.     625.24  E(vib)   ...       0.09 
freq.     661.05  E(vib)   ...       0.08 
freq.     677.35  E(vib)   ...       0.08 
freq.     742.53  E(vib)   ...       0.06 
freq.     784.10  E(vib)   ...       0.05 
freq.     794.60  E(vib)   ...       0.05 
freq.     795.22  E(vib)   ...       0.05 
freq.     836.92  E(vib)   ...       0.04 
freq.     843.99  E(vib)   ...       0.04 
freq.     862.56  E(vib)   ...       0.04 
freq.     889.77  E(vib)   ...       0.04 
freq.     897.05  E(vib)   ...       0.03 
freq.     923.55  E(vib)   ...       0.03 
freq.     933.89  E(vib)   ...       0.03 
freq.     939.25  E(vib)   ...       0.03 
freq.     943.37  E(vib)   ...       0.03 
freq.     949.71  E(vib)   ...       0.03 
freq.     951.73  E(vib)   ...       0.03 
freq.     958.06  E(vib)   ...       0.03 
freq.     963.87  E(vib)   ...       0.03 
freq.     974.36  E(vib)   ...       0.03 
freq.     985.20  E(vib)   ...       0.02 
freq.    1007.48  E(vib)   ...       0.02 
freq.    1037.76  E(vib)   ...       0.02 
freq.    1043.38  E(vib)   ...       0.02 
freq.    1051.99  E(vib)   ...       0.02 
freq.    1056.07  E(vib)   ...       0.02 
freq.    1069.41  E(vib)   ...       0.02 
freq.    1076.70  E(vib)   ...       0.02 
freq.    1092.97  E(vib)   ...       0.02 
freq.    1109.04  E(vib)   ...       0.02 
freq.    1118.01  E(vib)   ...       0.01 
freq.    1137.87  E(vib)   ...       0.01 
freq.    1143.90  E(vib)   ...       0.01 
freq.    1183.26  E(vib)   ...       0.01 
freq.    1187.09  E(vib)   ...       0.01 
freq.    1208.07  E(vib)   ...       0.01 
freq.    1211.43  E(vib)   ...       0.01 
freq.    1215.52  E(vib)   ...       0.01 
freq.    1245.13  E(vib)   ...       0.01 
freq.    1259.52  E(vib)   ...       0.01 
freq.    1266.11  E(vib)   ...       0.01 
freq.    1272.55  E(vib)   ...       0.01 
freq.    1279.02  E(vib)   ...       0.01 
freq.    1280.33  E(vib)   ...       0.01 
freq.    1283.17  E(vib)   ...       0.01 
freq.    1286.48  E(vib)   ...       0.01 
freq.    1314.51  E(vib)   ...       0.01 
freq.    1328.88  E(vib)   ...       0.01 
freq.    1343.22  E(vib)   ...       0.01 
freq.    1353.80  E(vib)   ...       0.01 
freq.    1369.37  E(vib)   ...       0.01 
freq.    1375.44  E(vib)   ...       0.01 
freq.    1407.77  E(vib)   ...       0.00 
freq.    1434.32  E(vib)   ...       0.00 
freq.    1434.65  E(vib)   ...       0.00 
freq.    1439.51  E(vib)   ...       0.00 
freq.    1473.86  E(vib)   ...       0.00 
freq.    1496.70  E(vib)   ...       0.00 
freq.    1506.39  E(vib)   ...       0.00 
freq.    1508.23  E(vib)   ...       0.00 
freq.    1508.99  E(vib)   ...       0.00 
freq.    1510.58  E(vib)   ...       0.00 
freq.    1511.47  E(vib)   ...       0.00 
freq.    1512.37  E(vib)   ...       0.00 
freq.    1515.21  E(vib)   ...       0.00 
freq.    1517.42  E(vib)   ...       0.00 
freq.    1524.10  E(vib)   ...       0.00 
freq.    1532.34  E(vib)   ...       0.00 
freq.    1558.20  E(vib)   ...       0.00 
freq.    1568.81  E(vib)   ...       0.00 
freq.    1583.10  E(vib)   ...       0.00 
freq.    1603.70  E(vib)   ...       0.00 
freq.    2485.28  E(vib)   ...       0.00 
freq.    2788.92  E(vib)   ...       0.00 
freq.    2809.24  E(vib)   ...       0.00 
freq.    2867.39  E(vib)   ...       0.00 
freq.    2871.39  E(vib)   ...       0.00 
freq.    2873.45  E(vib)   ...       0.00 
freq.    2876.25  E(vib)   ...       0.00 
freq.    2886.52  E(vib)   ...       0.00 
freq.    2887.82  E(vib)   ...       0.00 
freq.    2895.44  E(vib)   ...       0.00 
freq.    2897.33  E(vib)   ...       0.00 
freq.    2904.22  E(vib)   ...       0.00 
freq.    2906.00  E(vib)   ...       0.00 
freq.    2911.54  E(vib)   ...       0.00 
freq.    2912.54  E(vib)   ...       0.00 
freq.    2913.76  E(vib)   ...       0.00 
freq.    2918.15  E(vib)   ...       0.00 
freq.    2918.84  E(vib)   ...       0.00 
freq.    2930.20  E(vib)   ...       0.00 
freq.    2930.88  E(vib)   ...       0.00 
freq.    2983.72  E(vib)   ...       0.00 
freq.    2990.85  E(vib)   ...       0.00 
freq.    2996.87  E(vib)   ...       0.00 
freq.    3005.71  E(vib)   ...       0.00 
freq.    3027.72  E(vib)   ...       0.00 
freq.    3034.99  E(vib)   ...       0.00 
freq.    3160.15  E(vib)   ...       0.00 
freq.    3293.39  E(vib)   ...       0.00 
freq.    3427.52  E(vib)   ...       0.00 
freq.    3436.69  E(vib)   ...       0.00 

------------
INNER ENERGY
------------

The inner energy is: U= E(el) + E(ZPE) + E(vib) + E(rot) + E(trans)
    E(el)   - is the total energy from the electronic structure calculation
              = E(kin-el) + E(nuc-el) + E(el-el) + E(nuc-nuc)
    E(ZPE)  - the the zero temperature vibrational energy from the frequency calculation
    E(vib)  - the the finite temperature correction to E(ZPE) due to population
              of excited vibrational states
    E(rot)  - is the rotational thermal energy
    E(trans)- is the translational thermal energy

Summary of contributions to the inner energy U:
Electronic energy                ...    -61.37860159 Eh
Zero point energy                ...      0.42123339 Eh     264.33 kcal/mol
Thermal vibrational correction   ...      0.02172712 Eh      13.63 kcal/mol
Thermal rotational correction    ...      0.00141627 Eh       0.89 kcal/mol
Thermal translational correction ...      0.00141627 Eh       0.89 kcal/mol
-----------------------------------------------------------------------
Total thermal energy                    -60.93280853 Eh


Summary of corrections to the electronic energy:
(perhaps to be used in another calculation)
Total thermal correction                  0.02455967 Eh      15.41 kcal/mol
Non-thermal (ZPE) correction              0.42123339 Eh     264.33 kcal/mol
-----------------------------------------------------------------------
Total correction                          0.44579305 Eh     279.74 kcal/mol


--------
ENTHALPY
--------

The enthalpy is H = U + kB*T
                kB is Boltzmann's constant
Total free energy                 ...    -60.93280853 Eh 
Thermal Enthalpy correction       ...      0.00094421 Eh       0.59 kcal/mol
-----------------------------------------------------------------------
Total Enthalpy                    ...    -60.93186432 Eh


Note: Only C1 symmetry has been detected, increase convergence thresholds 
      if your molecule has a higher symmetry. Symmetry factor of 1.0 is   
      used for the rotational entropy correction. 
 

Note: Rotational entropy computed according to Herzberg 
Infrared and Raman Spectra, Chapter V,1, Van Nostrand Reinhold, 1945 
Point Group:  C1, Symmetry Number:   1  
Rotational constants in cm-1:     0.013344     0.005610     0.004362 

Vibrational entropy computed according to the QRRHO of S. Grimme
Chem.Eur.J. 2012 18 9955


-------
ENTROPY
-------

The entropy contributions are T*S = T*(S(el)+S(vib)+S(rot)+S(trans))
     S(el)   - electronic entropy
     S(vib)  - vibrational entropy
     S(rot)  - rotational entropy
     S(trans)- translational entropy
The entropies will be listed as mutliplied by the temperature to get
units of energy

Electronic entropy                ...      0.00000000 Eh      0.00 kcal/mol
Vibrational entropy               ...      0.03896806 Eh     24.45 kcal/mol
Rotational entropy                ...      0.01656139 Eh     10.39 kcal/mol
Translational entropy             ...      0.02028014 Eh     12.73 kcal/mol
-----------------------------------------------------------------------
Final entropy term                ...      0.07580959 Eh     47.57 kcal/mol

In case the symmetry of your molecule has not been determined correctly
or in case you have a reason to use a different symmetry number we print 
out the resulting rotational entropy values for sn=1,12 :
 --------------------------------------------------------
|  sn= 1 | S(rot)=       0.01656139 Eh     10.39 kcal/mol|
|  sn= 2 | S(rot)=       0.01590693 Eh      9.98 kcal/mol|
|  sn= 3 | S(rot)=       0.01552410 Eh      9.74 kcal/mol|
|  sn= 4 | S(rot)=       0.01525248 Eh      9.57 kcal/mol|
|  sn= 5 | S(rot)=       0.01504179 Eh      9.44 kcal/mol|
|  sn= 6 | S(rot)=       0.01486964 Eh      9.33 kcal/mol|
|  sn= 7 | S(rot)=       0.01472410 Eh      9.24 kcal/mol|
|  sn= 8 | S(rot)=       0.01459802 Eh      9.16 kcal/mol|
|  sn= 9 | S(rot)=       0.01448681 Eh      9.09 kcal/mol|
|  sn=10 | S(rot)=       0.01438733 Eh      9.03 kcal/mol|
|  sn=11 | S(rot)=       0.01429734 Eh      8.97 kcal/mol|
|  sn=12 | S(rot)=       0.01421519 Eh      8.92 kcal/mol|
 --------------------------------------------------------


-------------------
GIBBS FREE ENERGY
-------------------

The Gibbs free energy is G = H - T*S

Total enthalpy                    ...    -60.93186432 Eh 
Total entropy correction          ...     -0.07580959 Eh    -47.57 kcal/mol
-----------------------------------------------------------------------
Final Gibbs free energy         ...    -61.00767391 Eh

For completeness - the Gibbs free energy minus the electronic energy
G-E(el)                           ...      0.37092767 Eh    232.76 kcal/mol


Total Time for Numerical Frequencies  :       200.783 sec
Time for Reference State(s)           :         0.259 sec
Time for Displacements                :       182.584 sec

Timings for individual modules:

Sum of individual times         ...        0.479 sec (=   0.008 min)
XTB module                      ...        0.479 sec (=   0.008 min) 100.0 %
                             ****ORCA TERMINATED NORMALLY****
TOTAL RUN TIME: 0 days 0 hours 3 minutes 22 seconds 55 msec
(SLURM) EXECUTION TIME: 202.647972230 seconds.
