
                                 *****************
                                 * O   R   C   A *
                                 *****************

           --- An Ab Initio, DFT and Semiempirical electronic structure package ---

                  #######################################################
                  #                        -***-                        #
                  #          Department of theory and spectroscopy      #
                  #               Directorship: Frank Neese             #
                  #        Max Planck Institute fuer Kohlenforschung    #
                  #                Kaiser Wilhelm Platz 1               #
                  #                 D-45470 Muelheim/Ruhr               #
                  #                      Germany                        #
                  #                                                     #
                  #                  All rights reserved                #
                  #                        -***-                        #
                  #######################################################


                         Program Version 4.2.1 -  RELEASE  -


 With contributions from (in alphabetic order):
   Daniel Aravena         : Magnetic Suceptibility
   Michael Atanasov       : Ab Initio Ligand Field Theory (pilot matlab implementation)
   Alexander A. Auer      : GIAO ZORA, VPT2
   Ute Becker             : Parallelization
   Giovanni Bistoni       : ED, misc. LED, open-shell LED, HFLD
   Martin Brehm           : Molecular dynamics
   Dmytro Bykov           : SCF Hessian
   Vijay G. Chilkuri      : MRCI spin determinant printing, contributions to CSF-ICE
   Dipayan Datta          : RHF DLPNO-CCSD density
   Achintya Kumar Dutta   : EOM-CC, STEOM-CC
   Dmitry Ganyushin       : Spin-Orbit,Spin-Spin,Magnetic field MRCI
   Miquel Garcia          : C-PCM Hessian, Gaussian charge scheme
   Yang Guo               : DLPNO-NEVPT2, CIM, IAO-localization
   Andreas Hansen         : Spin unrestricted coupled pair/coupled cluster methods
   Benjamin Helmich-Paris : CASSCF linear response (MC-RPA)
   Lee Huntington         : MR-EOM, pCC
   Robert Izsak           : Overlap fitted RIJCOSX, COSX-SCS-MP3, EOM
   Christian Kollmar      : KDIIS, OOCD, Brueckner-CCSD(T), CCSD density
   Simone Kossmann        : Meta GGA functionals, TD-DFT gradient, OOMP2, MP2 Hessian
   Martin Krupicka        : AUTO-CI
   Lucas Lang             : DCDCAS
   Dagmar Lenk            : GEPOL surface, SMD
   Dimitrios Liakos       : Extrapolation schemes; Compound Job, initial MDCI parallelization
   Dimitrios Manganas     : Further ROCIS development; embedding schemes
   Dimitrios Pantazis     : SARC Basis sets
   Taras Petrenko         : DFT Hessian,TD-DFT gradient, ASA, ECA, R-Raman, ABS, FL, XAS/XES, NRVS
   Peter Pinski           : DLPNO-MP2, DLPNO-MP2 Gradient
   Christoph Reimann      : Effective Core Potentials
   Marius Retegan         : Local ZFS, SOC
   Christoph Riplinger    : Optimizer, TS searches, QM/MM, DLPNO-CCSD(T), (RO)-DLPNO pert. Triples
   Tobias Risthaus        : Range-separated hybrids, TD-DFT gradient, RPA, STAB
   Michael Roemelt        : Original ROCIS implementation
   Masaaki Saitow         : Open-shell DLPNO-CCSD energy and density
   Barbara Sandhoefer     : DKH picture change effects
   Avijit Sen             : IP-ROCIS
   Kantharuban Sivalingam : CASSCF convergence, NEVPT2, FIC-MRCI
   Bernardo de Souza      : ESD, SOC TD-DFT
   Georgi Stoychev        : AutoAux, RI-MP2 NMR
   Willem Van den Heuvel  : Paramagnetic NMR
   Boris Wezisla          : Elementary symmetry handling
   Frank Wennmohs         : Technical directorship


 We gratefully acknowledge several colleagues who have allowed us to
 interface, adapt or use parts of their codes:
   Stefan Grimme, W. Hujo, H. Kruse,             : VdW corrections, initial TS optimization,
                  C. Bannwarth                     DFT functionals, gCP, sTDA/sTD-DF
   Ed Valeev, F. Pavosevic, A. Kumar             : LibInt (2-el integral package), F12 methods
   Garnet Chan, S. Sharma, J. Yang, R. Olivares  : DMRG
   Ulf Ekstrom                                   : XCFun DFT Library
   Mihaly Kallay                                 : mrcc  (arbitrary order and MRCC methods)
   Andreas Klamt, Michael Diedenhofen            : otool_cosmo (COSMO solvation model)
   Jiri Pittner, Ondrej Demel                    : Mk-CCSD
   Frank Weinhold                                : gennbo (NPA and NBO analysis)
   Christopher J. Cramer and Donald G. Truhlar   : smd solvation model
   Lars Goerigk                                  : TD-DFT with DH, B97 family of functionals
   V. Asgeirsson, H. Jonsson                     : NEB implementation
   FAccTs GmbH                                   : IRC, NEB, NEB-TS, Multilevel, MM, QM/MM, CI optimization
   S Lehtola, MJT Oliveira, MAL Marques          : LibXC Library


 Your calculation uses the libint2 library for the computation of 2-el integrals
 For citations please refer to: http://libint.valeyev.net

 Your ORCA version has been built with support for libXC version: 4.2.3
 For citations please refer to: https://tddft.org/programs/libxc/

 This ORCA versions uses:
   CBLAS   interface :  Fast vector & matrix operations
   LAPACKE interface :  Fast linear algebra routines
   SCALAPACK package :  Parallel linear algebra routines




***************************************
The coordinates will be read from file: acetate.xyz
***************************************


----- Orbital basis set information -----
Your calculation utilizes the basis: cc-pVTZ 
       H, B-Ne : Obtained from the ccRepo (grant-hill.group.shef.ac.uk/ccrepo) Feb. 2017
                 T. H. Dunning, Jr., J. Chem. Phys. 90, 1007 (1989)
            He : Obtained from the ccRepo (grant-hill.group.shef.ac.uk/ccrepo) Feb. 2017
                 D. E. Woon, T. H. Dunning, Jr., J. Chem. Phys. 100, 2975 (1994)
  Li-Be, Na-Mg : Obtained from the ccRepo (grant-hill.group.shef.ac.uk/ccrepo) Feb. 2017
                 B. P. Prascher, D. E. Woon, K. A. Peterson, T. H. Dunning, Jr., A. K. Wilson, Theor. Chem. Acc. 128, 69 (2011)
         Al-Ar : Obtained from the ccRepo (grant-hill.group.shef.ac.uk/ccrepo) Feb. 2017
                 D. E. Woon, T. H. Dunning, Jr., J. Chem. Phys. 98, 1358 (1993)
            Ca : Obtained from the Peterson Research Group Website (tyr0.chem.wsu.edu/~kipeters) Feb. 2017
                 J. Koput, K. A. Peterson, J. Phys. Chem. 106, 9595 (2002)
         Sc-Zn : Obtained from the ccRepo (grant-hill.group.shef.ac.uk/ccrepo) Feb. 2017
                 N. B. Balabanov, K. A. Peterson, J. Chem. Phys. 123, 064107 (2005)
                 N. B. Balabanov, K. A. Peterson, J. Chem. Phys. 125, 074110 (2006)
         Ga-Kr : Obtained from the ccRepo (grant-hill.group.shef.ac.uk/ccrepo) Feb. 2017
                 A. K. Wilson, D. E. Woon, K. A. Peterson, T. H. Dunning, Jr., J. Chem. Phys. 110, 7667 (1999)
             Y : Obtained from the ccRepo (grant-hill.group.shef.ac.uk/ccrepo) Feb. 2017
                 K. A. Peterson, D. Figgen, M. Dolg, H. Stoll, J. Chem. Phys. 126, 124101 (2007)
        Ag, Au : Obtained from the Peterson Research Group Website (tyr0.chem.wsu.edu/~kipeters) Feb. 2017
                 K. A. Peterson, C. Puzzarini, Theor. Chem. Acc. 114, 283 (2005)

----- AuxJ basis set information -----
Your calculation utilizes the AutoAux generation procedure.
  G. L. Stoychev, A. A. Auer, F. Neese, J. Chem. Theory Comput. 13, 554 (2017)

----- AuxC basis set information -----
Your calculation utilizes the AutoAux generation procedure.
  G. L. Stoychev, A. A. Auer, F. Neese, J. Chem. Theory Comput. 13, 554 (2017)

----- AuxJK basis set information -----
Your calculation utilizes the AutoAux generation procedure.
  G. L. Stoychev, A. A. Auer, F. Neese, J. Chem. Theory Comput. 13, 554 (2017)

================================================================================
                                        WARNINGS
                       Please study these warnings very carefully!
================================================================================


WARNING: PNO calculations with unrestricted orbitals require UNOs
  ===> : Switching on UNOs

WARNING: Unrestricted DLPNO-CCSD(T0/T) with FullLMP2-Guess requested.
         This is not yet implemented.
         When comparing energies between closed and open shell calculations:
  ===> : Be aware to set UseFullLMP2Guess to false for the corresponding closed shell calculations.
         Note that UseFullLMP2Guess is done by default only for TightPNO closed shell calculations.


WARNING: MDCI localization with Augmented Hessian Foster-Boys
  ===> : Switching off randomization!

WARNING: Post HF methods need fully converged wavefunctions
  ===> : Setting SCFConvForced true
         You can overwrite this default with %scf ConvForced false 


INFO   : the flag for use of LIBINT has been found!

================================================================================
                                       INPUT FILE
================================================================================
NAME = acetate.inp
|  1> ! UHF DLPNO-CCSD(T) cc-pVTZ AutoAux TightSCF Grid6 NoFinalGrid PrintBasis PrintMOs NBO
|  2> 
|  3> %pal
|  4>  nprocs 6
|  5> end
|  6> 
|  7> *xyzfile -1 1 acetate.xyz
|  8> 
|  9>                          ****END OF INPUT****
================================================================================

                       ****************************
                       * Single Point Calculation *
                       ****************************

---------------------------------
CARTESIAN COORDINATES (ANGSTROEM)
---------------------------------
  C      0.629518   -1.319617   -0.000009
  C     -0.076697    0.063727   -0.000006
  H      1.270983   -1.385583    0.882657
  H      1.271243   -1.385486   -0.882492
  H     -0.098829   -2.131586   -0.000146
  O     -1.322981    0.050077    0.000176
  O      0.693144    1.045228   -0.000181

----------------------------
CARTESIAN COORDINATES (A.U.)
----------------------------
  NO LB      ZA    FRAG     MASS         X           Y           Z
   0 C     6.0000    0    12.011    1.189616   -2.493715   -0.000017
   1 C     6.0000    0    12.011   -0.144937    0.120426   -0.000012
   2 H     1.0000    0     1.008    2.401811   -2.618372    1.667981
   3 H     1.0000    0     1.008    2.402301   -2.618190   -1.667667
   4 H     1.0000    0     1.008   -0.186760   -4.028114   -0.000275
   5 O     8.0000    0    15.999   -2.500071    0.094631    0.000333
   6 O     8.0000    0    15.999    1.309852    1.975195   -0.000342

--------------------------------
INTERNAL COORDINATES (ANGSTROEM)
--------------------------------
 C      0   0   0     0.000000000000     0.00000000     0.00000000
 C      1   0   0     1.553183912605     0.00000000     0.00000000
 H      1   2   0     1.093128591996   108.69706953     0.00000000
 H      1   2   3     1.093126225724   108.69905061   243.05877014
 H      1   2   3     1.090771811715   111.06259392   121.52786917
 O      2   1   3     1.246357852008   116.41738864   238.48910649
 O      2   1   3     1.247397417329   114.84619464    58.48866591

---------------------------
INTERNAL COORDINATES (A.U.)
---------------------------
 C      0   0   0     0.000000000000     0.00000000     0.00000000
 C      1   0   0     2.935092230435     0.00000000     0.00000000
 H      1   2   0     2.065713668031   108.69706953     0.00000000
 H      1   2   3     2.065709196424   108.69905061   243.05877014
 H      1   2   3     2.061259998743   111.06259392   121.52786917
 O      2   1   3     2.355275005157   116.41738864   238.48910649
 O      2   1   3     2.357239498913   114.84619464    58.48866591

---------------------
BASIS SET INFORMATION
---------------------
There are 3 groups of distinct atoms

 Group   1 Type C   : 18s5p2d1f contracted to 4s3p2d1f pattern {8811/311/11/1}
 Group   2 Type H   : 5s2p1d contracted to 3s2p1d pattern {311/11/1}
 Group   3 Type O   : 18s5p2d1f contracted to 4s3p2d1f pattern {8811/311/11/1}

Atom   0C    basis set group =>   1
Atom   1C    basis set group =>   1
Atom   2H    basis set group =>   2
Atom   3H    basis set group =>   2
Atom   4H    basis set group =>   2
Atom   5O    basis set group =>   3
Atom   6O    basis set group =>   3

-------------------------
BASIS SET IN INPUT FORMAT
-------------------------

 # Basis set for element : H 
 NewGTO H 
 S 3 
   1      33.8700000000      0.0254948632
   2       5.0950000000      0.1903627659
   3       1.1590000000      0.8521620222
 S 1 
   1       0.3258000000      1.0000000000
 S 1 
   1       0.1027000000      1.0000000000
 P 1 
   1       1.4070000000      1.0000000000
 P 1 
   1       0.3880000000      1.0000000000
 D 1 
   1       1.0570000000      1.0000000000
  end;

 # Basis set for element : C 
 NewGTO C 
 S 8 
   1    8236.0000000000      0.0005424302
   2    1235.0000000000      0.0041964279
   3     280.8000000000      0.0215409141
   4      79.2700000000      0.0836149496
   5      25.5900000000      0.2398716189
   6       8.9970000000      0.4437518201
   7       3.3190000000      0.3535796965
   8       0.3643000000     -0.0091763661
 S 8 
   1    8236.0000000000     -0.0001963922
   2    1235.0000000000     -0.0015259503
   3     280.8000000000     -0.0078904490
   4      79.2700000000     -0.0315148705
   5      25.5900000000     -0.0969100083
   6       8.9970000000     -0.2205415263
   7       3.3190000000     -0.2960691129
   8       0.3643000000      1.0405034329
 S 1 
   1       0.9059000000      1.0000000000
 S 1 
   1       0.1285000000      1.0000000000
 P 3 
   1      18.7100000000      0.0394263872
   2       4.1330000000      0.2440889849
   3       1.2000000000      0.8154920089
 P 1 
   1       0.3827000000      1.0000000000
 P 1 
   1       0.1209000000      1.0000000000
 D 1 
   1       1.0970000000      1.0000000000
 D 1 
   1       0.3180000000      1.0000000000
 F 1 
   1       0.7610000000      1.0000000000
  end;

 # Basis set for element : O 
 NewGTO O 
 S 8 
   1   15330.0000000000      0.0005201983
   2    2299.0000000000      0.0040233448
   3     522.4000000000      0.0207290833
   4     147.3000000000      0.0810823271
   5      47.5500000000      0.2362263521
   6      16.7600000000      0.4435182094
   7       6.2070000000      0.3586705887
   8       0.6882000000     -0.0083497972
 S 8 
   1   15330.0000000000     -0.0001972360
   2    2299.0000000000     -0.0015350107
   3     522.4000000000     -0.0079511839
   4     147.3000000000     -0.0321134529
   5      47.5500000000     -0.1002696430
   6      16.7600000000     -0.2340471118
   7       6.2070000000     -0.3014109278
   8       0.6882000000      1.0349196495
 S 1 
   1       1.7520000000      1.0000000000
 S 1 
   1       0.2384000000      1.0000000000
 P 3 
   1      34.4600000000      0.0411634896
   2       7.7490000000      0.2577628359
   3       2.2800000000      0.8024192744
 P 1 
   1       0.7156000000      1.0000000000
 P 1 
   1       0.2140000000      1.0000000000
 D 1 
   1       2.3140000000      1.0000000000
 D 1 
   1       0.6450000000      1.0000000000
 F 1 
   1       1.4280000000      1.0000000000
  end;

---------------------------------
AUXILIARY/J BASIS SET INFORMATION
---------------------------------
There are 3 groups of distinct atoms

 Group   1 Type C   : 14s11p10d5f3g contracted to 14s11p10d5f3g pattern {11111111111111/11111111111/1111111111/11111/111}
 Group   2 Type H   : 11s4p3d2f contracted to 11s4p3d2f pattern {11111111111/1111/111/11}
 Group   3 Type O   : 14s11p10d5f3g contracted to 14s11p10d5f3g pattern {11111111111111/11111111111/1111111111/11111/111}

Atom   0C    basis set group =>   1
Atom   1C    basis set group =>   1
Atom   2H    basis set group =>   2
Atom   3H    basis set group =>   2
Atom   4H    basis set group =>   2
Atom   5O    basis set group =>   3
Atom   6O    basis set group =>   3

-------------------------------------
AUXILIARY/J BASIS SET IN INPUT FORMAT
-------------------------------------

 # Auxiliary/J basis set for element : H 
 NewAuxJGTO H 
 S 1 
   1      73.3373968349      1.0000000000
 S 1 
   1      40.7429982416      1.0000000000
 S 1 
   1      22.6349990231      1.0000000000
 S 1 
   1      12.5749994573      1.0000000000
 S 1 
   1       6.9861108096      1.0000000000
 S 1 
   1       3.8811726720      1.0000000000
 S 1 
   1       2.1562070400      1.0000000000
 S 1 
   1       1.1978928000      1.0000000000
 S 1 
   1       0.6654960000      1.0000000000
 S 1 
   1       0.3697200000      1.0000000000
 S 1 
   1       0.2054000000      1.0000000000
 P 1 
   1       3.9256000000      1.0000000000
 P 1 
   1       1.9628000000      1.0000000000
 P 1 
   1       0.9814000000      1.0000000000
 P 1 
   1       0.4907000000      1.0000000000
 D 1 
   1       3.7558400000      1.0000000000
 D 1 
   1       1.7072000000      1.0000000000
 D 1 
   1       0.7760000000      1.0000000000
 F 1 
   1       3.1790000000      1.0000000000
 F 1 
   1       1.4450000000      1.0000000000
  end;

 # Auxiliary/J basis set for element : C 
 NewAuxJGTO C 
 S 1 
   1     503.4992904519      1.0000000000
 S 1 
   1     279.7218280288      1.0000000000
 S 1 
   1     155.4010155716      1.0000000000
 S 1 
   1      86.3338975398      1.0000000000
 S 1 
   1      47.9632764110      1.0000000000
 S 1 
   1      26.6462646728      1.0000000000
 S 1 
   1      14.8034803738      1.0000000000
 S 1 
   1       8.2241557632      1.0000000000
 S 1 
   1       4.5689754240      1.0000000000
 S 1 
   1       2.5383196800      1.0000000000
 S 1 
   1       1.4101776000      1.0000000000
 S 1 
   1       0.7834320000      1.0000000000
 S 1 
   1       0.4352400000      1.0000000000
 S 1 
   1       0.2418000000      1.0000000000
 P 1 
   1      86.3338975398      1.0000000000
 P 1 
   1      47.9632764110      1.0000000000
 P 1 
   1      26.6462646728      1.0000000000
 P 1 
   1      14.8034803738      1.0000000000
 P 1 
   1       8.2241557632      1.0000000000
 P 1 
   1       4.5689754240      1.0000000000
 P 1 
   1       2.5383196800      1.0000000000
 P 1 
   1       1.4101776000      1.0000000000
 P 1 
   1       0.7834320000      1.0000000000
 P 1 
   1       0.4352400000      1.0000000000
 P 1 
   1       0.2418000000      1.0000000000
 D 1 
   1      47.9632764110      1.0000000000
 D 1 
   1      26.6462646728      1.0000000000
 D 1 
   1      14.8034803738      1.0000000000
 D 1 
   1       8.2241557632      1.0000000000
 D 1 
   1       4.5689754240      1.0000000000
 D 1 
   1       2.5383196800      1.0000000000
 D 1 
   1       1.4101776000      1.0000000000
 D 1 
   1       0.7834320000      1.0000000000
 D 1 
   1       0.4352400000      1.0000000000
 D 1 
   1       0.2418000000      1.0000000000
 F 1 
   1      10.2814958400      1.0000000000
 F 1 
   1       4.6734072000      1.0000000000
 F 1 
   1       2.1242760000      1.0000000000
 F 1 
   1       0.9655800000      1.0000000000
 F 1 
   1       0.4389000000      1.0000000000
 G 1 
   1       3.0782400000      1.0000000000
 G 1 
   1       1.3992000000      1.0000000000
 G 1 
   1       0.6360000000      1.0000000000
  end;

 # Auxiliary/J basis set for element : O 
 NewAuxJGTO O 
 S 1 
   1     891.2228962507      1.0000000000
 S 1 
   1     495.1238312504      1.0000000000
 S 1 
   1     275.0687951391      1.0000000000
 S 1 
   1     152.8159972995      1.0000000000
 S 1 
   1      84.8977762775      1.0000000000
 S 1 
   1      47.1654312653      1.0000000000
 S 1 
   1      26.2030173696      1.0000000000
 S 1 
   1      14.5572318720      1.0000000000
 S 1 
   1       8.0873510400      1.0000000000
 S 1 
   1       4.4929728000      1.0000000000
 S 1 
   1       2.4960960000      1.0000000000
 S 1 
   1       1.3867200000      1.0000000000
 S 1 
   1       0.7704000000      1.0000000000
 S 1 
   1       0.4280000000      1.0000000000
 P 1 
   1     152.8159972995      1.0000000000
 P 1 
   1      84.8977762775      1.0000000000
 P 1 
   1      47.1654312653      1.0000000000
 P 1 
   1      26.2030173696      1.0000000000
 P 1 
   1      14.5572318720      1.0000000000
 P 1 
   1       8.0873510400      1.0000000000
 P 1 
   1       4.4929728000      1.0000000000
 P 1 
   1       2.4960960000      1.0000000000
 P 1 
   1       1.3867200000      1.0000000000
 P 1 
   1       0.7704000000      1.0000000000
 P 1 
   1       0.4280000000      1.0000000000
 D 1 
   1      84.8977762775      1.0000000000
 D 1 
   1      47.1654312653      1.0000000000
 D 1 
   1      26.2030173696      1.0000000000
 D 1 
   1      14.5572318720      1.0000000000
 D 1 
   1       8.0873510400      1.0000000000
 D 1 
   1       4.4929728000      1.0000000000
 D 1 
   1       2.4960960000      1.0000000000
 D 1 
   1       1.3867200000      1.0000000000
 D 1 
   1       0.7704000000      1.0000000000
 D 1 
   1       0.4280000000      1.0000000000
 F 1 
   1      20.1225904000      1.0000000000
 F 1 
   1       9.1466320000      1.0000000000
 F 1 
   1       4.1575600000      1.0000000000
 F 1 
   1       1.8898000000      1.0000000000
 F 1 
   1       0.8590000000      1.0000000000
 G 1 
   1       6.2436000000      1.0000000000
 G 1 
   1       2.8380000000      1.0000000000
 G 1 
   1       1.2900000000      1.0000000000
  end;

---------------------------------
AUXILIARY/C BASIS SET INFORMATION
---------------------------------
There are 3 groups of distinct atoms

 Group   1 Type C   : 14s11p10d5f3g contracted to 14s11p10d5f3g pattern {11111111111111/11111111111/1111111111/11111/111}
 Group   2 Type H   : 11s4p3d2f contracted to 11s4p3d2f pattern {11111111111/1111/111/11}
 Group   3 Type O   : 14s11p10d5f3g contracted to 14s11p10d5f3g pattern {11111111111111/11111111111/1111111111/11111/111}

Atom   0C    basis set group =>   1
Atom   1C    basis set group =>   1
Atom   2H    basis set group =>   2
Atom   3H    basis set group =>   2
Atom   4H    basis set group =>   2
Atom   5O    basis set group =>   3
Atom   6O    basis set group =>   3

-------------------------------------
AUXILIARY/C BASIS SET IN INPUT FORMAT
-------------------------------------

 # Auxiliary/C basis set for element : H 
 NewAuxCGTO H 
 S 1 
   1      73.3373968349      1.0000000000
 S 1 
   1      40.7429982416      1.0000000000
 S 1 
   1      22.6349990231      1.0000000000
 S 1 
   1      12.5749994573      1.0000000000
 S 1 
   1       6.9861108096      1.0000000000
 S 1 
   1       3.8811726720      1.0000000000
 S 1 
   1       2.1562070400      1.0000000000
 S 1 
   1       1.1978928000      1.0000000000
 S 1 
   1       0.6654960000      1.0000000000
 S 1 
   1       0.3697200000      1.0000000000
 S 1 
   1       0.2054000000      1.0000000000
 P 1 
   1       3.9256000000      1.0000000000
 P 1 
   1       1.9628000000      1.0000000000
 P 1 
   1       0.9814000000      1.0000000000
 P 1 
   1       0.4907000000      1.0000000000
 D 1 
   1       3.7558400000      1.0000000000
 D 1 
   1       1.7072000000      1.0000000000
 D 1 
   1       0.7760000000      1.0000000000
 F 1 
   1       3.1790000000      1.0000000000
 F 1 
   1       1.4450000000      1.0000000000
  end;

 # Auxiliary/C basis set for element : C 
 NewAuxCGTO C 
 S 1 
   1     503.4992904519      1.0000000000
 S 1 
   1     279.7218280288      1.0000000000
 S 1 
   1     155.4010155716      1.0000000000
 S 1 
   1      86.3338975398      1.0000000000
 S 1 
   1      47.9632764110      1.0000000000
 S 1 
   1      26.6462646728      1.0000000000
 S 1 
   1      14.8034803738      1.0000000000
 S 1 
   1       8.2241557632      1.0000000000
 S 1 
   1       4.5689754240      1.0000000000
 S 1 
   1       2.5383196800      1.0000000000
 S 1 
   1       1.4101776000      1.0000000000
 S 1 
   1       0.7834320000      1.0000000000
 S 1 
   1       0.4352400000      1.0000000000
 S 1 
   1       0.2418000000      1.0000000000
 P 1 
   1      86.3338975398      1.0000000000
 P 1 
   1      47.9632764110      1.0000000000
 P 1 
   1      26.6462646728      1.0000000000
 P 1 
   1      14.8034803738      1.0000000000
 P 1 
   1       8.2241557632      1.0000000000
 P 1 
   1       4.5689754240      1.0000000000
 P 1 
   1       2.5383196800      1.0000000000
 P 1 
   1       1.4101776000      1.0000000000
 P 1 
   1       0.7834320000      1.0000000000
 P 1 
   1       0.4352400000      1.0000000000
 P 1 
   1       0.2418000000      1.0000000000
 D 1 
   1      47.9632764110      1.0000000000
 D 1 
   1      26.6462646728      1.0000000000
 D 1 
   1      14.8034803738      1.0000000000
 D 1 
   1       8.2241557632      1.0000000000
 D 1 
   1       4.5689754240      1.0000000000
 D 1 
   1       2.5383196800      1.0000000000
 D 1 
   1       1.4101776000      1.0000000000
 D 1 
   1       0.7834320000      1.0000000000
 D 1 
   1       0.4352400000      1.0000000000
 D 1 
   1       0.2418000000      1.0000000000
 F 1 
   1      10.2814958400      1.0000000000
 F 1 
   1       4.6734072000      1.0000000000
 F 1 
   1       2.1242760000      1.0000000000
 F 1 
   1       0.9655800000      1.0000000000
 F 1 
   1       0.4389000000      1.0000000000
 G 1 
   1       3.0782400000      1.0000000000
 G 1 
   1       1.3992000000      1.0000000000
 G 1 
   1       0.6360000000      1.0000000000
  end;

 # Auxiliary/C basis set for element : O 
 NewAuxCGTO O 
 S 1 
   1     891.2228962507      1.0000000000
 S 1 
   1     495.1238312504      1.0000000000
 S 1 
   1     275.0687951391      1.0000000000
 S 1 
   1     152.8159972995      1.0000000000
 S 1 
   1      84.8977762775      1.0000000000
 S 1 
   1      47.1654312653      1.0000000000
 S 1 
   1      26.2030173696      1.0000000000
 S 1 
   1      14.5572318720      1.0000000000
 S 1 
   1       8.0873510400      1.0000000000
 S 1 
   1       4.4929728000      1.0000000000
 S 1 
   1       2.4960960000      1.0000000000
 S 1 
   1       1.3867200000      1.0000000000
 S 1 
   1       0.7704000000      1.0000000000
 S 1 
   1       0.4280000000      1.0000000000
 P 1 
   1     152.8159972995      1.0000000000
 P 1 
   1      84.8977762775      1.0000000000
 P 1 
   1      47.1654312653      1.0000000000
 P 1 
   1      26.2030173696      1.0000000000
 P 1 
   1      14.5572318720      1.0000000000
 P 1 
   1       8.0873510400      1.0000000000
 P 1 
   1       4.4929728000      1.0000000000
 P 1 
   1       2.4960960000      1.0000000000
 P 1 
   1       1.3867200000      1.0000000000
 P 1 
   1       0.7704000000      1.0000000000
 P 1 
   1       0.4280000000      1.0000000000
 D 1 
   1      84.8977762775      1.0000000000
 D 1 
   1      47.1654312653      1.0000000000
 D 1 
   1      26.2030173696      1.0000000000
 D 1 
   1      14.5572318720      1.0000000000
 D 1 
   1       8.0873510400      1.0000000000
 D 1 
   1       4.4929728000      1.0000000000
 D 1 
   1       2.4960960000      1.0000000000
 D 1 
   1       1.3867200000      1.0000000000
 D 1 
   1       0.7704000000      1.0000000000
 D 1 
   1       0.4280000000      1.0000000000
 F 1 
   1      20.1225904000      1.0000000000
 F 1 
   1       9.1466320000      1.0000000000
 F 1 
   1       4.1575600000      1.0000000000
 F 1 
   1       1.8898000000      1.0000000000
 F 1 
   1       0.8590000000      1.0000000000
 G 1 
   1       6.2436000000      1.0000000000
 G 1 
   1       2.8380000000      1.0000000000
 G 1 
   1       1.2900000000      1.0000000000
  end;

----------------------------------
AUXILIARY/JK BASIS SET INFORMATION
----------------------------------
There are 3 groups of distinct atoms

 Group   1 Type C   : 14s11p10d5f3g contracted to 14s11p10d5f3g pattern {11111111111111/11111111111/1111111111/11111/111}
 Group   2 Type H   : 11s4p3d2f contracted to 11s4p3d2f pattern {11111111111/1111/111/11}
 Group   3 Type O   : 14s11p10d5f3g contracted to 14s11p10d5f3g pattern {11111111111111/11111111111/1111111111/11111/111}

Atom   0C    basis set group =>   1
Atom   1C    basis set group =>   1
Atom   2H    basis set group =>   2
Atom   3H    basis set group =>   2
Atom   4H    basis set group =>   2
Atom   5O    basis set group =>   3
Atom   6O    basis set group =>   3

--------------------------------------
AUXILIARY/JK BASIS SET IN INPUT FORMAT
--------------------------------------

 # Auxiliary/JK basis set for element : H 
 NewAuxJKGTO H 
 S 1 
   1      73.3373968349      1.0000000000
 S 1 
   1      40.7429982416      1.0000000000
 S 1 
   1      22.6349990231      1.0000000000
 S 1 
   1      12.5749994573      1.0000000000
 S 1 
   1       6.9861108096      1.0000000000
 S 1 
   1       3.8811726720      1.0000000000
 S 1 
   1       2.1562070400      1.0000000000
 S 1 
   1       1.1978928000      1.0000000000
 S 1 
   1       0.6654960000      1.0000000000
 S 1 
   1       0.3697200000      1.0000000000
 S 1 
   1       0.2054000000      1.0000000000
 P 1 
   1       3.9256000000      1.0000000000
 P 1 
   1       1.9628000000      1.0000000000
 P 1 
   1       0.9814000000      1.0000000000
 P 1 
   1       0.4907000000      1.0000000000
 D 1 
   1       3.7558400000      1.0000000000
 D 1 
   1       1.7072000000      1.0000000000
 D 1 
   1       0.7760000000      1.0000000000
 F 1 
   1       3.1790000000      1.0000000000
 F 1 
   1       1.4450000000      1.0000000000
  end;

 # Auxiliary/JK basis set for element : C 
 NewAuxJKGTO C 
 S 1 
   1     503.4992904519      1.0000000000
 S 1 
   1     279.7218280288      1.0000000000
 S 1 
   1     155.4010155716      1.0000000000
 S 1 
   1      86.3338975398      1.0000000000
 S 1 
   1      47.9632764110      1.0000000000
 S 1 
   1      26.6462646728      1.0000000000
 S 1 
   1      14.8034803738      1.0000000000
 S 1 
   1       8.2241557632      1.0000000000
 S 1 
   1       4.5689754240      1.0000000000
 S 1 
   1       2.5383196800      1.0000000000
 S 1 
   1       1.4101776000      1.0000000000
 S 1 
   1       0.7834320000      1.0000000000
 S 1 
   1       0.4352400000      1.0000000000
 S 1 
   1       0.2418000000      1.0000000000
 P 1 
   1      86.3338975398      1.0000000000
 P 1 
   1      47.9632764110      1.0000000000
 P 1 
   1      26.6462646728      1.0000000000
 P 1 
   1      14.8034803738      1.0000000000
 P 1 
   1       8.2241557632      1.0000000000
 P 1 
   1       4.5689754240      1.0000000000
 P 1 
   1       2.5383196800      1.0000000000
 P 1 
   1       1.4101776000      1.0000000000
 P 1 
   1       0.7834320000      1.0000000000
 P 1 
   1       0.4352400000      1.0000000000
 P 1 
   1       0.2418000000      1.0000000000
 D 1 
   1      47.9632764110      1.0000000000
 D 1 
   1      26.6462646728      1.0000000000
 D 1 
   1      14.8034803738      1.0000000000
 D 1 
   1       8.2241557632      1.0000000000
 D 1 
   1       4.5689754240      1.0000000000
 D 1 
   1       2.5383196800      1.0000000000
 D 1 
   1       1.4101776000      1.0000000000
 D 1 
   1       0.7834320000      1.0000000000
 D 1 
   1       0.4352400000      1.0000000000
 D 1 
   1       0.2418000000      1.0000000000
 F 1 
   1      10.2814958400      1.0000000000
 F 1 
   1       4.6734072000      1.0000000000
 F 1 
   1       2.1242760000      1.0000000000
 F 1 
   1       0.9655800000      1.0000000000
 F 1 
   1       0.4389000000      1.0000000000
 G 1 
   1       3.0782400000      1.0000000000
 G 1 
   1       1.3992000000      1.0000000000
 G 1 
   1       0.6360000000      1.0000000000
  end;

 # Auxiliary/JK basis set for element : O 
 NewAuxJKGTO O 
 S 1 
   1     891.2228962507      1.0000000000
 S 1 
   1     495.1238312504      1.0000000000
 S 1 
   1     275.0687951391      1.0000000000
 S 1 
   1     152.8159972995      1.0000000000
 S 1 
   1      84.8977762775      1.0000000000
 S 1 
   1      47.1654312653      1.0000000000
 S 1 
   1      26.2030173696      1.0000000000
 S 1 
   1      14.5572318720      1.0000000000
 S 1 
   1       8.0873510400      1.0000000000
 S 1 
   1       4.4929728000      1.0000000000
 S 1 
   1       2.4960960000      1.0000000000
 S 1 
   1       1.3867200000      1.0000000000
 S 1 
   1       0.7704000000      1.0000000000
 S 1 
   1       0.4280000000      1.0000000000
 P 1 
   1     152.8159972995      1.0000000000
 P 1 
   1      84.8977762775      1.0000000000
 P 1 
   1      47.1654312653      1.0000000000
 P 1 
   1      26.2030173696      1.0000000000
 P 1 
   1      14.5572318720      1.0000000000
 P 1 
   1       8.0873510400      1.0000000000
 P 1 
   1       4.4929728000      1.0000000000
 P 1 
   1       2.4960960000      1.0000000000
 P 1 
   1       1.3867200000      1.0000000000
 P 1 
   1       0.7704000000      1.0000000000
 P 1 
   1       0.4280000000      1.0000000000
 D 1 
   1      84.8977762775      1.0000000000
 D 1 
   1      47.1654312653      1.0000000000
 D 1 
   1      26.2030173696      1.0000000000
 D 1 
   1      14.5572318720      1.0000000000
 D 1 
   1       8.0873510400      1.0000000000
 D 1 
   1       4.4929728000      1.0000000000
 D 1 
   1       2.4960960000      1.0000000000
 D 1 
   1       1.3867200000      1.0000000000
 D 1 
   1       0.7704000000      1.0000000000
 D 1 
   1       0.4280000000      1.0000000000
 F 1 
   1      20.1225904000      1.0000000000
 F 1 
   1       9.1466320000      1.0000000000
 F 1 
   1       4.1575600000      1.0000000000
 F 1 
   1       1.8898000000      1.0000000000
 F 1 
   1       0.8590000000      1.0000000000
 G 1 
   1       6.2436000000      1.0000000000
 G 1 
   1       2.8380000000      1.0000000000
 G 1 
   1       1.2900000000      1.0000000000
  end;



           ************************************************************
           *        Program running with 6 parallel MPI-processes     *
           *              working on a common directory               *
           ************************************************************
------------------------------------------------------------------------------
                           ORCA GTO INTEGRAL CALCULATION
------------------------------------------------------------------------------

                         BASIS SET STATISTICS AND STARTUP INFO

 # of primitive gaussian shells          ...  128
 # of primitive gaussian functions       ...  248
 # of contracted shells                  ...   58
 # of contracted basis functions         ...  162
 Highest angular momentum                ...    3
 Maximum contraction depth               ...    8
 Integral package used                   ... LIBINT
 Integral threshhold            Thresh   ...  2.500e-11
 Primitive cut-off              TCut     ...  2.500e-12


------------------------------ INTEGRAL EVALUATION ----------------------------


 * One electron integrals 
 Pre-screening matrix                    ... done
 Shell pair data                         ... done (   0.001 sec)



           ************************************************************
           *        Program running with 6 parallel MPI-processes     *
           *              working on a common directory               *
           ************************************************************
-------------------------------------------------------------------------------
                                 ORCA SCF
-------------------------------------------------------------------------------

------------
SCF SETTINGS
------------
Hamiltonian:
 Ab initio Hamiltonian  Method          .... Hartree-Fock(GTOs)


General Settings:
 Integral files         IntName         .... acetate
 Hartree-Fock type      HFTyp           .... UHF
 Total Charge           Charge          ....   -1
 Multiplicity           Mult            ....    1
 Number of Electrons    NEL             ....   32
 Basis Dimension        Dim             ....  162
 Nuclear Repulsion      ENuc            ....    112.3626032643 Eh

Convergence Acceleration:
 DIIS                   CNVDIIS         .... on
   Start iteration      DIISMaxIt       ....    12
   Startup error        DIISStart       ....  0.200000
   # of expansion vecs  DIISMaxEq       ....     5
   Bias factor          DIISBfac        ....   1.050
   Max. coefficient     DIISMaxC        ....  10.000
 Newton-Raphson         CNVNR           .... off
 SOSCF                  CNVSOSCF        .... off
 Level Shifting         CNVShift        .... on
   Level shift para.    LevelShift      ....    0.2500
   Turn off err/grad.   ShiftErr        ....    0.0010
 Zerner damping         CNVZerner       .... off
 Static damping         CNVDamp         .... on
   Fraction old density DampFac         ....    0.7000
   Max. Damping (<1)    DampMax         ....    0.9800
   Min. Damping (>=0)   DampMin         ....    0.0000
   Turn off err/grad.   DampErr         ....    0.1000
 Fernandez-Rico         CNVRico         .... off

SCF Procedure:
 Maximum # iterations   MaxIter         ....   125
 SCF integral mode      SCFMode         .... Direct
   Integral package                     .... LIBINT
 Reset frequency        DirectResetFreq ....    20
 Integral Threshold     Thresh          ....  2.500e-11 Eh
 Primitive CutOff       TCut            ....  2.500e-12 Eh

Convergence Tolerance:
 Convergence Check Mode ConvCheckMode   .... Total+1el-Energy
 Convergence forced     ConvForced      .... 1
 Energy Change          TolE            ....  1.000e-08 Eh
 1-El. energy change                    ....  1.000e-05 Eh
 DIIS Error             TolErr          ....  5.000e-07


Diagonalization of the overlap matrix:
Smallest eigenvalue                        ... 1.081e-03
Time for diagonalization                   ...    0.064 sec
Threshold for overlap eigenvalues          ... 1.000e-08
Number of eigenvalues below threshold      ... 0
Time for construction of square roots      ...    0.005 sec
Total time needed                          ...    0.069 sec

-------------------
DFT GRID GENERATION
-------------------

General Integration Accuracy     IntAcc      ...  5.340
Radial Grid Type                 RadialGrid  ... Gauss-Chebyshev
Angular Grid (max. acc.)         AngularGrid ... Lebedev-590
Angular grid pruning method      GridPruning ... 3 (G Style)
Weight generation scheme         WeightScheme... Becke
Basis function cutoff            BFCut       ...    1.0000e-11
Integration weight cutoff        WCut        ...    1.0000e-14
Grids for H and He will be reduced by one unit

# of grid points (after initial pruning)     ...  99358 (   0.0 sec)
# of grid points (after weights+screening)   ...  95067 (   0.0 sec)
nearest neighbour list constructed           ...    0.0 sec
Grid point re-assignment to atoms done       ...    0.0 sec
Grid point division into batches done        ...    1.2 sec
Reduced shell lists constructed in    1.3 sec

Total number of grid points                  ...    95067
Total number of batches                      ...     1489
Average number of points per batch           ...       63
Average number of grid points per atom       ...    13581
Average number of shells per batch           ...    54.80 (94.48%)
Average number of basis functions per batch  ...   151.70 (93.64%)
Average number of large shells per batch     ...    49.01 (89.44%)
Average number of large basis fcns per batch ...   134.92 (88.94%)
Maximum spatial batch extension              ...   1.78,  2.91,  4.30 au
Average spatial batch extension              ...   0.13,  0.13,  0.14 au

Time for grid setup =    1.397 sec

------------------------------
INITIAL GUESS: MODEL POTENTIAL
------------------------------
Loading Hartree-Fock densities                     ... done
Calculating cut-offs                               ... done
Setting up the integral package                    ... done
Initializing the effective Hamiltonian             ... done
Starting the Coulomb interaction                   ... done (   0.0 sec)
Reading the grid                                   ... done
Mapping shells                                     ... done
Starting the XC term evaluation                    ... done (   0.1 sec)
Transforming the Hamiltonian                       ... done (   0.0 sec)
Diagonalizing the Hamiltonian                      ... done (   0.0 sec)
Back transforming the eigenvectors                 ... done (   0.0 sec)
Now organizing SCF variables                       ... done
                      ------------------
                      INITIAL GUESS DONE (   1.6 sec)
                      ------------------
--------------
SCF ITERATIONS
--------------
ITER       Energy         Delta-E        Max-DP      RMS-DP      [F,P]     Damp
               ***  Starting incremental Fock matrix formation  ***
  0   -227.0244420904   0.000000000000 0.03098049  0.00072143  0.3710684 0.7000
  1   -227.1323318049  -0.107889714535 0.03316345  0.00062123  0.2260465 0.7000
                               ***Turning on DIIS***
  2   -227.1945418886  -0.062210083726 0.02079449  0.00039531  0.1277636 0.7000
  3   -227.7890991443  -0.594557255625 0.02180220  0.00064522  0.0830419 0.0000
  4   -227.2726867061   0.516412438148 0.01324099  0.00016799  0.0101653 0.0000
  5   -227.3260773404  -0.053390634250 0.00501965  0.00007229  0.0037349 0.0000
  6   -227.3204646938   0.005612646545 0.00210495  0.00003572  0.0013412 0.0000
  7   -227.3191747763   0.001289917533 0.00081234  0.00002179  0.0006011 0.0000
  8   -227.3198715090  -0.000696732680 0.00011395  0.00000465  0.0001564 0.0000
  9   -227.3194531447   0.000418364316 0.00007331  0.00000131  0.0000458 0.0000
 10   -227.3194657137  -0.000012569023 0.00002610  0.00000038  0.0000168 0.0000
 11   -227.3194513318   0.000014381904 0.00000712  0.00000010  0.0000093 0.0000
 12   -227.3194479906   0.000003341170 0.00000217  0.00000004  0.0000032 0.0000
                            ***DIIS convergence achieved***

               *****************************************************
               *                     SUCCESS                       *
               *           SCF CONVERGED AFTER  13 CYCLES          *
               *****************************************************


----------------
TOTAL SCF ENERGY
----------------

Total Energy       :         -227.31944894 Eh           -6185.67668 eV

Components:
Nuclear Repulsion  :          112.36260326 Eh            3057.54188 eV
Electronic Energy  :         -339.68205221 Eh           -9243.21856 eV
One Electron Energy:         -542.19758425 Eh          -14753.94634 eV
Two Electron Energy:          202.51553204 Eh            5510.72779 eV

Virial components:
Potential Energy   :         -454.46757182 Eh          -12366.69134 eV
Kinetic Energy     :          227.14812288 Eh            6181.01466 eV
Virial Ratio       :            2.00075425


---------------
SCF CONVERGENCE
---------------

  Last Energy change         ...   -9.5175e-07  Tolerance :   1.0000e-08
  Last MAX-Density change    ...    4.6084e-07  Tolerance :   1.0000e-07
  Last RMS-Density change    ...    1.3953e-08  Tolerance :   5.0000e-09
  Last DIIS Error            ...    6.2599e-07  Tolerance :   5.0000e-07

             **** THE GBW FILE WAS UPDATED (acetate.gbw) ****
             **** DENSITY FILE WAS UPDATED (acetate.scfp) ****
             **** ENERGY FILE WAS UPDATED (acetate.en.tmp) ****
----------------------
UHF SPIN CONTAMINATION
----------------------

Expectation value of <S**2>     :    -0.000000
Ideal value S*(S+1) for S=0.0   :     0.000000
Deviation                       :    -0.000000

             **** THE GBW FILE WAS UPDATED (acetate.gbw) ****
             **** DENSITY FILE WAS UPDATED (acetate.scfp) ****
----------------
ORBITAL ENERGIES
----------------
                 SPIN UP ORBITALS
  NO   OCC          E(Eh)            E(eV) 
   0   1.0000     -20.266548      -551.4808 
   1   1.0000     -20.263572      -551.3998 
   2   1.0000     -11.113766      -302.4209 
   3   1.0000     -11.036255      -300.3118 
   4   1.0000      -1.152123       -31.3509 
   5   1.0000      -1.050046       -28.5732 
   6   1.0000      -0.782790       -21.3008 
   7   1.0000      -0.497449       -13.5363 
   8   1.0000      -0.407166       -11.0795 
   9   1.0000      -0.404543       -11.0082 
  10   1.0000      -0.403772       -10.9872 
  11   1.0000      -0.351634        -9.5684 
  12   1.0000      -0.309192        -8.4135 
  13   1.0000      -0.189161        -5.1473 
  14   1.0000      -0.179367        -4.8808 
  15   1.0000      -0.175875        -4.7858 
  16   0.0000       0.305716         8.3190 
  17   0.0000       0.363238         9.8842 
  18   0.0000       0.370906        10.0929 
  19   0.0000       0.460852        12.5404 
  20   0.0000       0.470610        12.8060 
  21   0.0000       0.547278        14.8922 
  22   0.0000       0.569338        15.4925 
  23   0.0000       0.574912        15.6442 
  24   0.0000       0.606706        16.5093 
  25   0.0000       0.687101        18.6970 
  26   0.0000       0.755185        20.5496 
  27   0.0000       0.784627        21.3508 
  28   0.0000       0.798766        21.7355 
  29   0.0000       0.801952        21.8222 
  30   0.0000       0.815785        22.1986 
  31   0.0000       0.899375        24.4732 
  32   0.0000       0.950335        25.8599 
  33   0.0000       0.956845        26.0371 
  34   0.0000       0.999245        27.1909 
  35   0.0000       1.003993        27.3200 
  36   0.0000       1.012683        27.5565 
  37   0.0000       1.053840        28.6764 
  38   0.0000       1.087186        29.5838 
  39   0.0000       1.167303        31.7639 
  40   0.0000       1.170771        31.8583 
  41   0.0000       1.242759        33.8172 
  42   0.0000       1.265116        34.4255 
  43   0.0000       1.275639        34.7119 
  44   0.0000       1.346133        36.6301 
  45   0.0000       1.368238        37.2316 
  46   0.0000       1.432713        38.9861 
  47   0.0000       1.435341        39.0576 
  48   0.0000       1.460052        39.7300 
  49   0.0000       1.511430        41.1281 
  50   0.0000       1.577469        42.9251 
  51   0.0000       1.591615        43.3101 
  52   0.0000       1.669840        45.4387 
  53   0.0000       1.699433        46.2439 
  54   0.0000       1.707474        46.4627 
  55   0.0000       1.711566        46.5741 
  56   0.0000       1.765970        48.0545 
  57   0.0000       1.908147        51.9233 
  58   0.0000       1.958398        53.2907 
  59   0.0000       2.024860        55.0992 
  60   0.0000       2.050605        55.7998 
  61   0.0000       2.068662        56.2912 
  62   0.0000       2.185323        59.4657 
  63   0.0000       2.194342        59.7111 
  64   0.0000       2.270965        61.7961 
  65   0.0000       2.442980        66.4769 
  66   0.0000       2.548543        69.3494 
  67   0.0000       2.582578        70.2755 
  68   0.0000       2.589169        70.4549 
  69   0.0000       2.682147        72.9849 
  70   0.0000       2.701949        73.5238 
  71   0.0000       2.752797        74.9074 
  72   0.0000       2.819287        76.7167 
  73   0.0000       2.866250        77.9946 
  74   0.0000       2.916238        79.3549 
  75   0.0000       3.060545        83.2817 
  76   0.0000       3.075684        83.6936 
  77   0.0000       3.104038        84.4652 
  78   0.0000       3.117445        84.8300 
  79   0.0000       3.279165        89.2306 
  80   0.0000       3.285041        89.3905 
  81   0.0000       3.298782        89.7644 
  82   0.0000       3.354064        91.2687 
  83   0.0000       3.407324        92.7180 
  84   0.0000       3.464912        94.2851 
  85   0.0000       3.480863        94.7191 
  86   0.0000       3.482970        94.7764 
  87   0.0000       3.537751        96.2671 
  88   0.0000       3.613686        98.3334 
  89   0.0000       3.614490        98.3553 
  90   0.0000       3.633494        98.8724 
  91   0.0000       3.777754       102.7979 
  92   0.0000       3.778738       102.8247 
  93   0.0000       3.795811       103.2893 
  94   0.0000       3.821380       103.9850 
  95   0.0000       3.881714       105.6268 
  96   0.0000       3.886644       105.7610 
  97   0.0000       3.930555       106.9558 
  98   0.0000       3.965885       107.9172 
  99   0.0000       3.974564       108.1534 
 100   0.0000       4.003137       108.9309 
 101   0.0000       4.111937       111.8915 
 102   0.0000       4.193529       114.1117 
 103   0.0000       4.216214       114.7290 
 104   0.0000       4.269328       116.1743 
 105   0.0000       4.323476       117.6478 
 106   0.0000       4.361508       118.6827 
 107   0.0000       4.423876       120.3798 
 108   0.0000       4.451120       121.1211 
 109   0.0000       4.544945       123.6742 
 110   0.0000       4.546480       123.7160 
 111   0.0000       4.583687       124.7285 
 112   0.0000       4.678200       127.3003 
 113   0.0000       4.700076       127.8956 
 114   0.0000       4.774900       129.9316 
 115   0.0000       4.776416       129.9729 
 116   0.0000       4.825852       131.3181 
 117   0.0000       4.861132       132.2781 
 118   0.0000       4.939818       134.4193 
 119   0.0000       5.076639       138.1424 
 120   0.0000       5.092364       138.5703 
 121   0.0000       5.291490       143.9888 
 122   0.0000       5.360414       145.8643 
 123   0.0000       5.390078       146.6715 
 124   0.0000       5.573510       151.6629 
 125   0.0000       5.659450       154.0015 
 126   0.0000       5.685458       154.7092 
 127   0.0000       5.732274       155.9831 
 128   0.0000       5.743978       156.3016 
 129   0.0000       5.753115       156.5502 
 130   0.0000       5.803729       157.9275 
 131   0.0000       5.835946       158.8042 
 132   0.0000       5.875318       159.8755 
 133   0.0000       5.908624       160.7818 
 134   0.0000       5.908867       160.7885 
 135   0.0000       5.930894       161.3878 
 136   0.0000       6.095620       165.8703 
 137   0.0000       6.243741       169.9008 
 138   0.0000       6.291507       171.2006 
 139   0.0000       6.311361       171.7409 
 140   0.0000       6.374851       173.4685 
 141   0.0000       6.400572       174.1684 
 142   0.0000       6.608151       179.8169 
 143   0.0000       6.832634       185.9254 
 144   0.0000       6.905301       187.9028 
 145   0.0000       6.928075       188.5225 
 146   0.0000       6.996384       190.3813 
 147   0.0000       7.105958       193.3629 
 148   0.0000       7.146846       194.4756 
 149   0.0000       7.212134       196.2521 
 150   0.0000       7.233752       196.8404 
 151   0.0000       7.532389       204.9667 
 152   0.0000       7.589644       206.5247 
 153   0.0000       7.628063       207.5701 
 154   0.0000       7.683767       209.0859 
 155   0.0000       7.837674       213.2739 
 156   0.0000       7.866833       214.0674 
 157   0.0000       8.005945       217.8528 
 158   0.0000       9.352840       254.5037 
 159   0.0000      12.450774       338.8028 
 160   0.0000      13.320410       362.4668 
 161   0.0000      14.009162       381.2087 

                 SPIN DOWN ORBITALS
  NO   OCC          E(Eh)            E(eV) 
   0   1.0000     -20.266548      -551.4808 
   1   1.0000     -20.263572      -551.3998 
   2   1.0000     -11.113766      -302.4209 
   3   1.0000     -11.036255      -300.3118 
   4   1.0000      -1.152123       -31.3509 
   5   1.0000      -1.050046       -28.5732 
   6   1.0000      -0.782790       -21.3008 
   7   1.0000      -0.497449       -13.5363 
   8   1.0000      -0.407166       -11.0795 
   9   1.0000      -0.404543       -11.0082 
  10   1.0000      -0.403772       -10.9872 
  11   1.0000      -0.351634        -9.5684 
  12   1.0000      -0.309192        -8.4135 
  13   1.0000      -0.189161        -5.1473 
  14   1.0000      -0.179367        -4.8808 
  15   1.0000      -0.175875        -4.7858 
  16   0.0000       0.305716         8.3190 
  17   0.0000       0.363238         9.8842 
  18   0.0000       0.370906        10.0929 
  19   0.0000       0.460852        12.5404 
  20   0.0000       0.470610        12.8060 
  21   0.0000       0.547278        14.8922 
  22   0.0000       0.569338        15.4925 
  23   0.0000       0.574912        15.6442 
  24   0.0000       0.606706        16.5093 
  25   0.0000       0.687101        18.6970 
  26   0.0000       0.755185        20.5496 
  27   0.0000       0.784627        21.3508 
  28   0.0000       0.798766        21.7355 
  29   0.0000       0.801952        21.8222 
  30   0.0000       0.815785        22.1986 
  31   0.0000       0.899375        24.4732 
  32   0.0000       0.950335        25.8599 
  33   0.0000       0.956845        26.0371 
  34   0.0000       0.999245        27.1909 
  35   0.0000       1.003993        27.3200 
  36   0.0000       1.012683        27.5565 
  37   0.0000       1.053840        28.6764 
  38   0.0000       1.087186        29.5838 
  39   0.0000       1.167303        31.7639 
  40   0.0000       1.170771        31.8583 
  41   0.0000       1.242759        33.8172 
  42   0.0000       1.265116        34.4255 
  43   0.0000       1.275639        34.7119 
  44   0.0000       1.346133        36.6301 
  45   0.0000       1.368238        37.2316 
  46   0.0000       1.432713        38.9861 
  47   0.0000       1.435341        39.0576 
  48   0.0000       1.460052        39.7300 
  49   0.0000       1.511430        41.1281 
  50   0.0000       1.577469        42.9251 
  51   0.0000       1.591615        43.3101 
  52   0.0000       1.669840        45.4387 
  53   0.0000       1.699433        46.2439 
  54   0.0000       1.707474        46.4627 
  55   0.0000       1.711566        46.5741 
  56   0.0000       1.765970        48.0545 
  57   0.0000       1.908147        51.9233 
  58   0.0000       1.958398        53.2907 
  59   0.0000       2.024860        55.0992 
  60   0.0000       2.050605        55.7998 
  61   0.0000       2.068662        56.2912 
  62   0.0000       2.185323        59.4657 
  63   0.0000       2.194342        59.7111 
  64   0.0000       2.270965        61.7961 
  65   0.0000       2.442980        66.4769 
  66   0.0000       2.548543        69.3494 
  67   0.0000       2.582578        70.2755 
  68   0.0000       2.589169        70.4549 
  69   0.0000       2.682147        72.9849 
  70   0.0000       2.701949        73.5238 
  71   0.0000       2.752797        74.9074 
  72   0.0000       2.819287        76.7167 
  73   0.0000       2.866250        77.9946 
  74   0.0000       2.916238        79.3549 
  75   0.0000       3.060545        83.2817 
  76   0.0000       3.075684        83.6936 
  77   0.0000       3.104038        84.4652 
  78   0.0000       3.117445        84.8300 
  79   0.0000       3.279165        89.2306 
  80   0.0000       3.285041        89.3905 
  81   0.0000       3.298782        89.7644 
  82   0.0000       3.354064        91.2687 
  83   0.0000       3.407324        92.7180 
  84   0.0000       3.464912        94.2851 
  85   0.0000       3.480863        94.7191 
  86   0.0000       3.482970        94.7764 
  87   0.0000       3.537751        96.2671 
  88   0.0000       3.613686        98.3334 
  89   0.0000       3.614490        98.3553 
  90   0.0000       3.633494        98.8724 
  91   0.0000       3.777754       102.7979 
  92   0.0000       3.778738       102.8247 
  93   0.0000       3.795811       103.2893 
  94   0.0000       3.821380       103.9850 
  95   0.0000       3.881714       105.6268 
  96   0.0000       3.886644       105.7610 
  97   0.0000       3.930555       106.9558 
  98   0.0000       3.965885       107.9172 
  99   0.0000       3.974564       108.1534 
 100   0.0000       4.003137       108.9309 
 101   0.0000       4.111937       111.8915 
 102   0.0000       4.193529       114.1117 
 103   0.0000       4.216214       114.7290 
 104   0.0000       4.269328       116.1743 
 105   0.0000       4.323476       117.6478 
 106   0.0000       4.361508       118.6827 
 107   0.0000       4.423876       120.3798 
 108   0.0000       4.451120       121.1211 
 109   0.0000       4.544945       123.6742 
 110   0.0000       4.546480       123.7160 
 111   0.0000       4.583687       124.7285 
 112   0.0000       4.678200       127.3003 
 113   0.0000       4.700076       127.8956 
 114   0.0000       4.774900       129.9316 
 115   0.0000       4.776416       129.9729 
 116   0.0000       4.825852       131.3181 
 117   0.0000       4.861132       132.2781 
 118   0.0000       4.939818       134.4193 
 119   0.0000       5.076639       138.1424 
 120   0.0000       5.092364       138.5703 
 121   0.0000       5.291490       143.9888 
 122   0.0000       5.360414       145.8643 
 123   0.0000       5.390078       146.6715 
 124   0.0000       5.573510       151.6629 
 125   0.0000       5.659450       154.0015 
 126   0.0000       5.685458       154.7092 
 127   0.0000       5.732274       155.9831 
 128   0.0000       5.743978       156.3016 
 129   0.0000       5.753115       156.5502 
 130   0.0000       5.803729       157.9275 
 131   0.0000       5.835946       158.8042 
 132   0.0000       5.875318       159.8755 
 133   0.0000       5.908624       160.7818 
 134   0.0000       5.908867       160.7885 
 135   0.0000       5.930894       161.3878 
 136   0.0000       6.095620       165.8703 
 137   0.0000       6.243741       169.9008 
 138   0.0000       6.291507       171.2006 
 139   0.0000       6.311361       171.7409 
 140   0.0000       6.374851       173.4685 
 141   0.0000       6.400572       174.1684 
 142   0.0000       6.608151       179.8169 
 143   0.0000       6.832634       185.9254 
 144   0.0000       6.905301       187.9028 
 145   0.0000       6.928075       188.5225 
 146   0.0000       6.996384       190.3813 
 147   0.0000       7.105958       193.3629 
 148   0.0000       7.146846       194.4756 
 149   0.0000       7.212134       196.2521 
 150   0.0000       7.233752       196.8404 
 151   0.0000       7.532389       204.9667 
 152   0.0000       7.589644       206.5247 
 153   0.0000       7.628063       207.5701 
 154   0.0000       7.683767       209.0859 
 155   0.0000       7.837674       213.2739 
 156   0.0000       7.866833       214.0674 
 157   0.0000       8.005945       217.8528 
 158   0.0000       9.352840       254.5037 
 159   0.0000      12.450774       338.8028 
 160   0.0000      13.320410       362.4668 
 161   0.0000      14.009162       381.2087 
------------------
MOLECULAR ORBITALS
------------------
                      0         1         2         3         4         5   
                 -20.26655 -20.26357 -11.11377 -11.03625  -1.15212  -1.05005
                   1.00000   1.00000   1.00000   1.00000   1.00000   1.00000
                  --------  --------  --------  --------  --------  --------
  0C   1s        -0.000130  0.000091  0.003368 -0.978521  0.002840  0.000168
  0C   2s        -0.000247  0.000173  0.000111 -0.001716 -0.050566  0.002995
  0C   3s         0.000007  0.000008  0.000225 -0.041271 -0.011800  0.000475
  0C   4s         0.000310 -0.000748 -0.001565 -0.007191 -0.001085  0.004637
  0C   1pz        0.000000 -0.000000  0.000000 -0.000000  0.000000 -0.000001
  0C   1px        0.000021  0.000003 -0.000053 -0.000355  0.007453  0.006326
  0C   1py        0.000026 -0.000012  0.000118  0.000434 -0.014461  0.003793
  0C   2pz        0.000000 -0.000000 -0.000000  0.000000  0.000000 -0.000002
  0C   2px        0.000065 -0.000333 -0.000438  0.000077  0.005010  0.010846
  0C   2py       -0.000414  0.000323  0.000805 -0.000039 -0.011553  0.005705
  0C   3pz        0.000000 -0.000000  0.000000 -0.000000 -0.000000  0.000000
  0C   3px        0.000301  0.000226  0.000408  0.000155 -0.001547 -0.001918
  0C   3py        0.000180  0.000051 -0.000634 -0.000476  0.000288 -0.000534
  0C   1dz2       0.000049 -0.000066 -0.000005 -0.000083  0.001044  0.000337
  0C   1dxz       0.000000 -0.000000  0.000000  0.000000  0.000000 -0.000000
  0C   1dyz      -0.000000  0.000000 -0.000000 -0.000000 -0.000000 -0.000000
  0C   1dx2y2     0.000019 -0.000029 -0.000020 -0.000102  0.000766 -0.001364
  0C   1dxy       0.000014  0.000001 -0.000043 -0.000160  0.000900  0.000744
  0C   2dz2      -0.000317  0.000028 -0.000075 -0.000001 -0.003740  0.001544
  0C   2dxz       0.000000  0.000000 -0.000000  0.000000 -0.000001 -0.000001
  0C   2dyz       0.000000  0.000000 -0.000000 -0.000000  0.000001 -0.000000
  0C   2dx2y2     0.000077 -0.000130  0.000110  0.000009 -0.002006  0.002122
  0C   2dxy       0.000299 -0.000189  0.000085  0.000031  0.000675 -0.001786
  0C   1f0       -0.000000 -0.000000 -0.000000 -0.000000 -0.000000  0.000000
  0C   1f+1       0.000015 -0.000016 -0.000040 -0.000692 -0.000762  0.000027
  0C   1f-1      -0.000008  0.000012  0.000133 -0.000019 -0.000276 -0.000385
  0C   1f+2       0.000000 -0.000000  0.000000  0.000000  0.000000 -0.000000
  0C   1f-2      -0.000000  0.000000 -0.000000  0.000000  0.000000  0.000000
  0C   1f+3       0.000022 -0.000045  0.000309  0.000469 -0.000725  0.000323
  0C   1f-3      -0.000009 -0.000047 -0.000004 -0.000195 -0.000231  0.001118
  1C   1s        -0.000538  0.000546  0.978575  0.003581  0.020868 -0.000108
  1C   2s        -0.001187  0.001202  0.001036  0.000080 -0.290721  0.002906
  1C   3s         0.000056 -0.000066  0.040522 -0.000083 -0.063951  0.000637
  1C   4s         0.000696 -0.000678  0.003710  0.002150 -0.079950 -0.000550
  1C   1pz       -0.000000 -0.000000  0.000000  0.000000 -0.000001 -0.000023
  1C   1px        0.000131  0.000075  0.000119 -0.000106  0.022512  0.129014
  1C   1py       -0.000000  0.000107 -0.000264  0.000235 -0.042986  0.063660
  1C   2pz       -0.000000 -0.000000  0.000000 -0.000000 -0.000001 -0.000021
  1C   2px        0.002256  0.001451 -0.000442 -0.000022  0.021177  0.119368
  1C   2py        0.000153  0.001681  0.001031 -0.000112 -0.041992  0.058656
  1C   3pz        0.000000  0.000000  0.000000 -0.000000 -0.000000 -0.000004
  1C   3px       -0.001103 -0.000713  0.000638  0.000278  0.004358  0.024961
  1C   3py       -0.000011 -0.000886 -0.001142 -0.000803 -0.006876  0.013428
  1C   1dz2       0.000220 -0.000224 -0.000706 -0.000047  0.014916 -0.000118
  1C   1dxz       0.000000 -0.000000 -0.000000 -0.000000  0.000006  0.000001
  1C   1dyz      -0.000000 -0.000000 -0.000000 -0.000000  0.000003 -0.000002
  1C   1dx2y2    -0.000385 -0.000126  0.000273  0.000015 -0.007837 -0.013248
  1C   1dxy       0.000029  0.000366  0.000344  0.000006 -0.009985  0.010192
  1C   2dz2       0.000243 -0.000215 -0.000169 -0.000148  0.018337 -0.000387
  1C   2dxz       0.000000 -0.000000 -0.000000  0.000000  0.000007  0.000001
  1C   2dyz      -0.000000 -0.000000 -0.000000 -0.000000  0.000004 -0.000002
  1C   2dx2y2    -0.001259 -0.000201  0.000157 -0.000194 -0.012655 -0.009479
  1C   2dxy      -0.000033  0.001173  0.000269 -0.000218 -0.014282  0.007246
  1C   1f0        0.000000  0.000000 -0.000000  0.000000  0.000000  0.000001
  1C   1f+1      -0.000179 -0.000130  0.000072 -0.000033 -0.000699 -0.002383
  1C   1f-1      -0.000032 -0.000137 -0.000156  0.000115  0.001564 -0.001127
  1C   1f+2      -0.000000 -0.000000  0.000000  0.000000 -0.000002 -0.000001
  1C   1f-2      -0.000000 -0.000000 -0.000000 -0.000000  0.000002 -0.000001
  1C   1f+3      -0.000054  0.000055  0.000807  0.000277 -0.013149 -0.000269
  1C   1f-3      -0.000004 -0.000008 -0.000164 -0.000032  0.002480 -0.001548
  2H   1s         0.000010 -0.000047 -0.000009 -0.000189 -0.005083  0.002123
  2H   2s         0.000067  0.000349  0.000303  0.000816 -0.002515 -0.001661
  2H   3s        -0.000091  0.000089 -0.000224  0.000770 -0.001505  0.000742
  2H   1pz       -0.000008 -0.000009 -0.000035 -0.000271  0.000345 -0.000173
  2H   1px        0.000003  0.000011  0.000007 -0.000202  0.000222 -0.000166
  2H   1py       -0.000003 -0.000019 -0.000027  0.000022 -0.000283  0.000372
  2H   2pz        0.000083 -0.000145 -0.000101 -0.000283 -0.000248  0.001331
  2H   2px       -0.000137 -0.000107 -0.000084 -0.000243 -0.000506  0.001014
  2H   2py        0.000011  0.000101 -0.000141  0.000078 -0.000629  0.000202
  2H   1dz2      -0.000029  0.000011  0.000046  0.000138  0.000018 -0.000179
  2H   1dxz       0.000007  0.000023  0.000017  0.000264 -0.000015 -0.000040
  2H   1dyz       0.000005 -0.000008  0.000042 -0.000039  0.000156 -0.000248
  2H   1dx2y2     0.000004 -0.000011  0.000023  0.000098  0.000144 -0.000162
  2H   1dxy      -0.000015 -0.000001  0.000035 -0.000043  0.000306  0.000022
  3H   1s         0.000010 -0.000047 -0.000009 -0.000189 -0.005083  0.002125
  3H   2s         0.000068  0.000349  0.000303  0.000816 -0.002516 -0.001661
  3H   3s        -0.000091  0.000089 -0.000223  0.000770 -0.001505  0.000743
  3H   1pz        0.000008  0.000009  0.000035  0.000271 -0.000345  0.000173
  3H   1px        0.000003  0.000011  0.000007 -0.000202  0.000222 -0.000166
  3H   1py       -0.000003 -0.000019 -0.000027  0.000022 -0.000283  0.000372
  3H   2pz       -0.000083  0.000145  0.000100  0.000283  0.000248 -0.001332
  3H   2px       -0.000137 -0.000107 -0.000084 -0.000243 -0.000507  0.001015
  3H   2py        0.000011  0.000101 -0.000141  0.000078 -0.000628  0.000203
  3H   1dz2      -0.000029  0.000011  0.000046  0.000138  0.000018 -0.000179
  3H   1dxz      -0.000007 -0.000023 -0.000017 -0.000264  0.000015  0.000040
  3H   1dyz      -0.000005  0.000008 -0.000042  0.000039 -0.000156  0.000248
  3H   1dx2y2     0.000004 -0.000011  0.000023  0.000098  0.000144 -0.000162
  3H   1dxy      -0.000015 -0.000001  0.000036 -0.000043  0.000306  0.000022
  4H   1s        -0.000019  0.000033  0.000010 -0.000163 -0.005650 -0.002866
  4H   2s        -0.000429  0.000127  0.000238  0.000781 -0.006210  0.000838
  4H   3s         0.000133  0.000030 -0.000097  0.000690 -0.001844 -0.002767
  4H   1pz       -0.000000 -0.000000  0.000000  0.000000 -0.000000 -0.000000
  4H   1px       -0.000000 -0.000026  0.000071  0.000234 -0.000244  0.000076
  4H   1py       -0.000012  0.000036 -0.000012  0.000262 -0.000725 -0.000617
  4H   2pz       -0.000000  0.000000 -0.000000  0.000000 -0.000000  0.000000
  4H   2px       -0.000072  0.000027  0.000223  0.000208 -0.000758  0.002087
  4H   2py       -0.000149 -0.000105 -0.000047  0.000299  0.000732  0.000520
  4H   1dz2       0.000019  0.000030  0.000007 -0.000157  0.000049 -0.000095
  4H   1dxz      -0.000000 -0.000000  0.000000  0.000000 -0.000000  0.000000
  4H   1dyz      -0.000000  0.000000 -0.000000  0.000000 -0.000000 -0.000000
  4H   1dx2y2     0.000008 -0.000002  0.000112 -0.000044 -0.000254  0.000540
  4H   1dxy       0.000013 -0.000011  0.000075  0.000257  0.000034  0.000114
  5O   1s        -0.975228  0.005973 -0.000430 -0.000019  0.008621  0.006453
  5O   2s         0.001752  0.000282 -0.000158 -0.000022 -0.308518 -0.353922
  5O   3s        -0.043615  0.000205  0.000244 -0.000002 -0.079867 -0.090814
  5O   4s        -0.002737  0.000051 -0.000095 -0.000185 -0.138990 -0.206060
  5O   1pz        0.000000  0.000000 -0.000000 -0.000000  0.000008  0.000006
  5O   1px       -0.001713 -0.000009  0.000354  0.000007 -0.053163 -0.042173
  5O   1py       -0.000006 -0.000021  0.000029  0.000007 -0.003048  0.007130
  5O   2pz       -0.000000 -0.000000  0.000000  0.000000  0.000009  0.000008
  5O   2px        0.001982  0.000184 -0.000242 -0.000065 -0.062191 -0.061382
  5O   2py        0.000020  0.000076 -0.000116 -0.000091 -0.004359  0.009165
  5O   3pz        0.000000 -0.000000 -0.000000  0.000000 -0.000000  0.000001
  5O   3px       -0.000125  0.000184  0.000178 -0.000035 -0.000186 -0.008633
  5O   3py       -0.000010  0.000411  0.000212 -0.000025  0.000768  0.002845
  5O   1dz2       0.000104 -0.000016  0.000038  0.000008  0.002830  0.002570
  5O   1dxz       0.000000 -0.000000  0.000000 -0.000000  0.000001  0.000001
  5O   1dyz       0.000000  0.000000  0.000000  0.000000  0.000000 -0.000000
  5O   1dx2y2    -0.000061 -0.000002 -0.000016 -0.000008 -0.004600 -0.004353
  5O   1dxy       0.000004 -0.000021 -0.000001  0.000005 -0.000444  0.000669
  5O   2dz2      -0.000261  0.000002  0.000085 -0.000001  0.003597  0.006416
  5O   2dxz      -0.000000 -0.000000  0.000000  0.000000  0.000002  0.000003
  5O   2dyz       0.000000 -0.000000  0.000000 -0.000000 -0.000000 -0.000000
  5O   2dx2y2     0.000619  0.000077 -0.000263 -0.000055 -0.007140 -0.011776
  5O   2dxy       0.000006  0.000114 -0.000083 -0.000063 -0.000418  0.000925
  5O   1f0        0.000000 -0.000000 -0.000000 -0.000000 -0.000001 -0.000001
  5O   1f+1      -0.000069  0.000010  0.000010  0.000001  0.001864  0.001948
  5O   1f-1       0.000002  0.000007  0.000011 -0.000005  0.000067 -0.000100
  5O   1f+2      -0.000000  0.000000  0.000000  0.000000  0.000001  0.000001
  5O   1f-2       0.000000  0.000000  0.000000 -0.000000  0.000000 -0.000000
  5O   1f+3      -0.000072 -0.000004  0.000072  0.000031  0.002271  0.003268
  5O   1f-3       0.000000  0.000001  0.000026  0.000008  0.000279 -0.000485
  6O   1s         0.005633  0.975225 -0.000423 -0.000025  0.008518 -0.006679
  6O   2s        -0.000305 -0.001755 -0.000148 -0.000034 -0.302238  0.357683
  6O   3s         0.000314  0.043619  0.000241 -0.000005 -0.078254  0.091745
  6O   4s        -0.000096  0.002859 -0.000275  0.000028 -0.136937  0.208353
  6O   1pz        0.000000  0.000000  0.000000 -0.000000 -0.000008  0.000005
  6O   1px       -0.000037 -0.001041 -0.000245 -0.000008  0.034260 -0.020477
  6O   1py       -0.000012 -0.001362 -0.000265  0.000010  0.039718 -0.038481
  6O   2pz       -0.000000 -0.000000 -0.000000 -0.000000 -0.000009  0.000008
  6O   2px        0.000203  0.001199  0.000273  0.000089  0.040765 -0.030782
  6O   2py        0.000128  0.001558  0.000142 -0.000066  0.045810 -0.055164
  6O   3pz       -0.000000  0.000000  0.000000  0.000000 -0.000000  0.000001
  6O   3px        0.000451 -0.000105 -0.000265  0.000100 -0.000075 -0.002712
  6O   3py       -0.000095 -0.000135  0.000034 -0.000035  0.000404 -0.009282
  6O   1dz2       0.000016 -0.000097  0.000038  0.000007  0.002790 -0.002603
  6O   1dxz       0.000000 -0.000000  0.000000  0.000000  0.000001 -0.000001
  6O   1dyz       0.000000 -0.000000  0.000000  0.000000  0.000001 -0.000001
  6O   1dx2y2     0.000020 -0.000021  0.000004  0.000008  0.000778 -0.001774
  6O   1dxy       0.000007  0.000059 -0.000016  0.000003 -0.004479  0.004095
  6O   2dz2      -0.000001  0.000260  0.000090 -0.000015  0.003385 -0.006507
  6O   2dxz       0.000000  0.000000  0.000000  0.000000  0.000001 -0.000002
  6O   2dyz       0.000000  0.000000  0.000000 -0.000000  0.000001 -0.000003
  6O   2dx2y2    -0.000089  0.000155 -0.000007 -0.000083  0.001177 -0.004118
  6O   2dxy      -0.000116 -0.000595 -0.000286 -0.000084 -0.006778  0.011263
  6O   1f0       -0.000000  0.000000  0.000000 -0.000000  0.000001 -0.000001
  6O   1f+1       0.000013 -0.000043 -0.000014  0.000004 -0.001145  0.001124
  6O   1f-1       0.000004 -0.000056 -0.000002  0.000004 -0.001404  0.001653
  6O   1f+2       0.000000  0.000000  0.000000 -0.000000  0.000000 -0.000000
  6O   1f-2       0.000000 -0.000000 -0.000000 -0.000000 -0.000001  0.000001
  6O   1f+3       0.000006  0.000066  0.000060  0.000021  0.001918 -0.003234
  6O   1f-3       0.000000 -0.000029 -0.000050 -0.000028 -0.001096  0.000814
                      6         7         8         9        10        11   
                  -0.78279  -0.49745  -0.40717  -0.40454  -0.40377  -0.35163
                   1.00000   1.00000   1.00000   1.00000   1.00000   1.00000
                  --------  --------  --------  --------  --------  --------
  0C   1s         0.013779  0.003067 -0.000863  0.000001 -0.000657  0.000300
  0C   2s        -0.431251 -0.074346 -0.004760 -0.000019  0.019845 -0.002882
  0C   3s        -0.084777 -0.013622 -0.000644 -0.000005  0.004854 -0.000996
  0C   4s        -0.162871 -0.085058 -0.026459 -0.000002  0.005065  0.006209
  0C   1pz       -0.000002  0.000001  0.000011 -0.196072 -0.000235 -0.000025
  0C   1px       -0.000305 -0.059837  0.156152 -0.000050  0.043402  0.132743
  0C   1py       -0.003673  0.116516  0.068686  0.000138 -0.116103  0.072712
  0C   2pz       -0.000002 -0.000004  0.000012 -0.245535 -0.000299 -0.000031
  0C   2px       -0.000412 -0.078631  0.193209 -0.000056  0.048985  0.170477
  0C   2py       -0.005353  0.141156  0.088258  0.000173 -0.146118  0.092169
  0C   3pz        0.000004 -0.000013  0.000000 -0.108871 -0.000146 -0.000010
  0C   3px       -0.001562 -0.034250  0.102400 -0.000018  0.019892  0.058539
  0C   3py        0.016161  0.028959  0.041348  0.000129 -0.108682  0.036995
  0C   1dz2       0.000679 -0.005730  0.009387 -0.000010  0.003806  0.008822
  0C   1dxz       0.000000  0.000000 -0.000003 -0.014155 -0.000017 -0.000006
  0C   1dyz      -0.000000  0.000000 -0.000002 -0.000540 -0.000000 -0.000001
  0C   1dx2y2     0.000509 -0.006353  0.002753 -0.000004  0.004373  0.005907
  0C   1dxy       0.000241 -0.008608 -0.006519 -0.000007  0.007451 -0.009716
  0C   2dz2      -0.002355 -0.006642  0.009772 -0.000013  0.005149  0.015163
  0C   2dxz      -0.000001 -0.000001 -0.000004 -0.017110 -0.000022 -0.000010
  0C   2dyz       0.000000 -0.000001 -0.000002 -0.003325 -0.000005 -0.000002
  0C   2dx2y2    -0.000827 -0.004909  0.004258 -0.000009  0.010384  0.007278
  0C   2dxy       0.002014 -0.009056 -0.012568 -0.000015  0.015040 -0.014958
  0C   1f0       -0.000002 -0.000001 -0.000000  0.000906  0.000001 -0.000000
  0C   1f+1      -0.006999 -0.001665 -0.000572 -0.000000 -0.000026  0.001119
  0C   1f-1       0.001648 -0.001408 -0.000687 -0.000003  0.002513  0.000046
  0C   1f+2       0.000001  0.000000 -0.000000  0.000166  0.000000 -0.000000
  0C   1f-2       0.000001  0.000000  0.000000  0.001351  0.000001 -0.000000
  0C   1f+3       0.006816  0.000191  0.001018 -0.000004  0.003221 -0.000012
  0C   1f-3      -0.002196 -0.000074  0.001786  0.000000 -0.000120 -0.002147
  1C   1s         0.000581 -0.005301 -0.000762  0.000004 -0.003455  0.000077
  1C   2s        -0.092670  0.330103  0.003366 -0.000065  0.058737 -0.005109
  1C   3s        -0.019930  0.076995  0.001306 -0.000023  0.020327 -0.001437
  1C   4s        -0.013989  0.078642  0.004069  0.000041 -0.033305 -0.003563
  1C   1pz       -0.000000  0.000000 -0.000001 -0.102455 -0.000122  0.000024
  1C   1px       -0.038299  0.019365  0.105916  0.000124 -0.096600 -0.139223
  1C   1py        0.077757 -0.041026  0.074783 -0.000182  0.155571 -0.073149
  1C   2pz       -0.000001  0.000002  0.000006 -0.137889 -0.000164  0.000021
  1C   2px       -0.047009  0.032818  0.100314  0.000137 -0.111496 -0.123697
  1C   2py        0.095585 -0.069523  0.078663 -0.000223  0.186902 -0.065302
  1C   3pz       -0.000001  0.000002  0.000020 -0.049822 -0.000060 -0.000008
  1C   3px       -0.011691  0.041514 -0.061957 -0.000023  0.004483  0.038202
  1C   3py        0.020980 -0.076849 -0.030788 -0.000038  0.022413  0.022101
  1C   1dz2       0.002327 -0.007807  0.000161  0.000003 -0.002556  0.000550
  1C   1dxz      -0.000001 -0.000002 -0.000000 -0.000772 -0.000002 -0.000001
  1C   1dyz      -0.000000 -0.000001  0.000000 -0.000068 -0.000000  0.000002
  1C   1dx2y2     0.005064  0.000199  0.001688  0.000000  0.000006  0.010814
  1C   1dxy       0.007018  0.000121 -0.001581 -0.000000  0.000201 -0.008503
  1C   2dz2       0.000035 -0.002595  0.000674 -0.000007  0.005816 -0.000303
  1C   2dxz      -0.000003  0.000002 -0.000002 -0.002988 -0.000003 -0.000000
  1C   2dyz      -0.000001 -0.000001  0.000002  0.004179  0.000003  0.000000
  1C   2dx2y2     0.008481 -0.005551  0.021177 -0.000004  0.005598  0.000350
  1C   2dxy       0.014373 -0.011875 -0.013066 -0.000012  0.008162 -0.000331
  1C   1f0        0.000000 -0.000000 -0.000001  0.005138  0.000006 -0.000000
  1C   1f+1       0.000644 -0.000898 -0.000200 -0.000001  0.001949  0.000380
  1C   1f-1      -0.001395  0.001758 -0.000988  0.000005 -0.003633  0.000260
  1C   1f+2       0.000000  0.000001  0.000000 -0.000846  0.000000  0.000000
  1C   1f-2      -0.000000 -0.000001 -0.000000 -0.000738 -0.000002  0.000001
  1C   1f+3      -0.001211  0.008393  0.000072 -0.000003  0.002855  0.000645
  1C   1f-3       0.000019 -0.001316 -0.000724  0.000001 -0.000509  0.003604
  2H   1s        -0.078048 -0.047541  0.062299 -0.117599  0.028567  0.057098
  2H   2s        -0.089800 -0.057054  0.101594 -0.180741  0.047119  0.084779
  2H   3s        -0.015879 -0.026262  0.046663 -0.094559  0.017283  0.058221
  2H   1pz        0.005979  0.003821 -0.005945  0.006403 -0.002753 -0.004334
  2H   1px        0.004400  0.001522 -0.001022  0.007681 -0.000856 -0.000808
  2H   1py       -0.000575  0.002032  0.001889 -0.001443 -0.002848  0.001861
  2H   2pz        0.002163  0.002094 -0.006954  0.004332 -0.003700 -0.007177
  2H   2px        0.001903 -0.001572 -0.000378  0.010594 -0.000529  0.005536
  2H   2py       -0.001259  0.007102  0.004644  0.001919 -0.005679  0.000558
  2H   1dz2      -0.000394 -0.000856  0.001341 -0.000377  0.001103  0.001536
  2H   1dxz      -0.000984 -0.000362  0.000982 -0.002458  0.000564  0.000391
  2H   1dyz       0.000376 -0.000919 -0.000978  0.000341  0.001219 -0.000287
  2H   1dx2y2    -0.000258 -0.000108 -0.000055 -0.001381  0.000274  0.000066
  2H   1dxy       0.000503 -0.001045 -0.000444  0.000482  0.000864 -0.000402
  3H   1s        -0.078047 -0.047544  0.062317  0.117509  0.028848  0.057159
  3H   2s        -0.089796 -0.057070  0.101616  0.180591  0.047538  0.084874
  3H   3s        -0.015872 -0.026281  0.046667  0.094496  0.017489  0.058285
  3H   1pz       -0.005977 -0.003820  0.005946  0.006393  0.002767  0.004337
  3H   1px        0.004402  0.001523 -0.001025 -0.007680 -0.000875 -0.000813
  3H   1py       -0.000574  0.002032  0.001889  0.001449 -0.002845  0.001861
  3H   2pz       -0.002163 -0.002097  0.006953  0.004316  0.003706  0.007181
  3H   2px        0.001902 -0.001567 -0.000382 -0.010595 -0.000551  0.005530
  3H   2py       -0.001257  0.007099  0.004642 -0.001909 -0.005687  0.000553
  3H   1dz2      -0.000394 -0.000856  0.001340  0.000372  0.001104  0.001536
  3H   1dxz       0.000984  0.000363 -0.000983 -0.002457 -0.000570 -0.000393
  3H   1dyz      -0.000376  0.000919  0.000977  0.000343 -0.001219  0.000287
  3H   1dx2y2    -0.000259 -0.000108 -0.000054  0.001381  0.000277  0.000066
  3H   1dxy       0.000503 -0.001045 -0.000444 -0.000484  0.000863 -0.000401
  4H   1s        -0.076714 -0.050005 -0.113515 -0.000036  0.046095 -0.113334
  4H   2s        -0.086545 -0.073060 -0.163593 -0.000039  0.056990 -0.174145
  4H   3s        -0.006928 -0.049874 -0.079710  0.000016  0.000897 -0.115741
  4H   1pz       -0.000001 -0.000001 -0.000002 -0.003963 -0.000004 -0.000002
  4H   1px       -0.004700 -0.004581 -0.004871 -0.000005  0.004868 -0.004855
  4H   1py       -0.005614 -0.001243 -0.008563 -0.000000  0.001441 -0.007133
  4H   2pz       -0.000001 -0.000000  0.000001 -0.009336 -0.000011 -0.000004
  4H   2px       -0.002676 -0.006673 -0.003415 -0.000004  0.006056 -0.009600
  4H   2py       -0.001014 -0.002167 -0.005017  0.000011 -0.008068 -0.001818
  4H   1dz2       0.000552  0.000476  0.001021 -0.000001 -0.000064  0.000979
  4H   1dxz      -0.000000 -0.000000 -0.000000 -0.001128 -0.000001 -0.000001
  4H   1dyz      -0.000000 -0.000000 -0.000000 -0.001237 -0.000002 -0.000001
  4H   1dx2y2     0.000444 -0.000713  0.001320 -0.000002  0.001992 -0.000104
  4H   1dxy      -0.000716 -0.001052 -0.002042 -0.000001  0.001147 -0.002399
  5O   1s        -0.000890 -0.001393  0.001540  0.000002 -0.001626 -0.001771
  5O   2s         0.084204 -0.180741  0.102250  0.000144 -0.104251 -0.078837
  5O   3s         0.022644 -0.050879  0.030194  0.000042 -0.030479 -0.024511
  5O   4s         0.056180 -0.171155  0.065852  0.000148 -0.112770 -0.061574
  5O   1pz       -0.000001 -0.000017  0.000029 -0.083995 -0.000130 -0.000022
  5O   1px       -0.005346  0.128101 -0.111795 -0.000191  0.131191  0.159257
[...]
 Sum of total UMP2 truncation errors ...   0.0014170782 Eh
  | Pair screening ...   0.0000000000 Eh
  | PNO truncation ...   0.0014170782 Eh
 Timing for NEV-PNO construction (sec.)
  | Intermediate construction  ..            0.000
  | Amplitude construction     ..            0.058
  | Total time                 ..            0.058
 Making pair pair interaction lists ...      ok
                                                 
  ___         ___     __        ___  __   __     
 |__  | |\ | |__     / _` |  | |__  /__` /__`   
 |    | | \| |___    \__> \__/ |___ .__/ .__/ 
                                                 

Thresholds for map construction and integral transformation:
   TCutMKN   ...     1.0e-03
   TCutDO    ...     1.0e-02
   TCutCMO   ...     1.0e-03
   TCutCPAO  ...     1.0e-03

Thresholds for map construction and integral transformation for strong Triples:
   TCutMKN   ...     1.0e-02
   TCutDO    ...     2.0e-02
   TCutCMO   ...     1.0e-03
   TCutCPAO  ...     1.0e-03

Thresholds for map construction and integral transformation for weak Triples:
   TCutMKN   ...     1.0e-01
   TCutDO    ...     4.0e-02
   TCutCMO   ...     1.0e-03
   TCutCPAO  ...     1.0e-03

--------------------------------
LOCAL RI TRANSFORMATION (IAVPAO)
--------------------------------

Orbital window:       4 to 15
Number of PAOs:     162
Basis functions:    162 (58 shells)
Aux. functions:     792 (232 shells)

Processing maps (0.0 sec)
Average map sizes:
   Aux shells -> MOs              12.0
   Aux shells -> PAOs            162.0
   MOs        -> AO shells        58.0
   PAOs       -> AO shells        58.0

Calculating integrals (0.3 sec, 11.756 MB)
Sorting integrals (0.0 sec, 11.747 MB)
Total time for the integral transformation: 0.3 sec

 ==> UMP guess in NEV-PNO space 

Truncation parameters                       .... 
    PAOOverlapThresh     =        1.000e-08
Pair selection                          .... not used
    TCutPairs            =        1.000e-04
    TCutMKN              =        1.000e-03
    TCutDO               =        1.000e-02
    TCutCMO              =        1.000e-03
    TCutCPAO             =        1.000e-03
    TCutPNO              =        3.330e-07
    TScaleTCutPNO_SS     =        1.000e+00
    TScaleTCutPNO_SD     =        1.000e+00
    TScalePNO_Core       =        1.000e-02
    TScaleTCutPairs_Somo =        3.300e-01
    TScaleTCutPairs_Core =        1.000e+00
    TCutPairs_MP2        =        1.000e-05
    TCutCMO              =        1.000e-03
    TCutCPAO             =        1.000e-03
Spin component scaling in ijab excitation            .... not used

Formation of guess energy and open-shell PNO.

NEV-PNO operators..
  E(ij->ab)

   .... Finished loop over pairs

 PNO Occupation Number Statistics: 
  | Av. % of trace(Dij) retained        ...  99.466697551832
  | sigma^2 in % of trace(Dij) retained ...   3.17e-01
  | Av. % of trace(Di) retained         ...  99.999362591833
  | sigma^2 in % of trace(Di) retained  ...   2.63e-08
 Distributions of % trace(Dij) recovered:
  |       >= 99.9  ...    30 ( 38.5 % of all IJ-pairs)
  |   [90.0, 99.0) ...    20 ( 25.6 % of all IJ-pairs)
  |   [99.0, 99.9) ...    28 ( 35.9 % of all IJ-pairs)
 Distributions of % trace(Di) recovered :
  |       >= 99.9  ...    12 (100.0 % of all I-pairs )

                       ===========================
                        144 OF  144 PAIRS ARE KEPT
                       ===========================

 Initial PAO correlation energy (all pairs)    ...  -0.7771846662 Eh
 Energy constituents in PAO basis (Eh):
  | Vijab(+0) ...  -0.7771846662
 Initial PNO correlation energy                ...  -0.7757578999 Eh
 Energy constituents in PNO basis (Eh):
  | Vijab(+0) ...  -0.7757578999 (err=  0.0014267663)
 Sum of total truncation errors ...   0.0014267663 Eh
  | Pair screening ...   0.0000000000 Eh
  | PNO truncation ...   0.0014267663 Eh

 UMP2 correlation energy (PAO) ...  -0.7771846662
  | alpha-alpha ...  -0.0971477296 (NP_aa=   66)
  | alpha-beta  ...  -0.5828892069 (NP_ab=  144)
  | beta -beta  ...  -0.0971477296 (NP_bb=   66)
 UMP2 correlation energy (PNO) ...  -0.7757578999
  | alpha-alpha ...  -0.0969482583 (err=  0.0001994713, NP_aa=   66)
  | alpha-beta  ...  -0.5818613832 (err=  0.0010278237, NP_ab=  144)
  | beta -beta  ...  -0.0969482583 (err=  0.0001994713, NP_bb=   66)
 Sum of total UMP2 truncation errors ...   0.0014267663 Eh
  | Pair screening ...   0.0000000000 Eh
  | PNO truncation ...   0.0014267663 Eh
 Timing for NEV-PNO construction (sec.)
  | Intermediate construction  ..            0.000
  | Amplitude construction     ..            0.064
  | Total time                 ..            0.064
 Making pair pair interaction lists ...      ok
 Total size for 2-ext PNO integrals ...      1.3 MB
--------------------------------
LOCAL RI TRANSFORMATION (VABPAO)
--------------------------------

Number of PAOs:     162
Basis functions:    162 (58 shells)
Aux. functions:     792 (232 shells)

Processing maps (0.0 sec)
Average map sizes:
   Aux shells -> PAOs            162.0
   PAOs       -> AO shells        58.0

Calculating integrals (0.8 sec, 290.144 MB)
Finished
-----------------------------
LOCAL RI TRANSFORMATION (IJV)
-----------------------------

Orbital window:       4 to 15
Basis functions:    162 (58 shells)
Aux. functions:     792 (232 shells)

Processing maps (0.0 sec)
Average map sizes:
   Aux shells -> MOs(i)           12.0
   Aux shells -> MOs(j)           12.0
   MOs        -> AO shells        58.0

Calculating integrals (0.2 sec, 0.879 MB)
Sorting integrals (0.0 sec, 0.870 MB)
Total time for the integral transformation: 0.3 sec


-------------------------------------
Pair Pair Term precalculation with     
RI-(ij|mn) and (im|jn) transformation  
ON THE FLY                             
-------------------------------------

   IBatch   1 (of   7)              ... done (    2.482 sec)
   IBatch   2 (of   7)              ... done (    4.179 sec)
   IBatch   3 (of   7)              ... done (    3.524 sec)
   IBatch   4 (of   7)              ... done (    4.868 sec)
   IBatch   5 (of   7)              ... done (    4.098 sec)
   IBatch   6 (of   7)              ... done (    2.882 sec)
   IBatch   7 (of   7)              ... done (    2.184 sec)
Total EXT                           ...          24.217 sec

---------------------
RI-PNO TRANSFORMATION
---------------------

Total Number of PNOs                   ...  4812
Total Number of IJ-PNOs                ...  4812
Total Number of IP-PNOs                ...     0
Total Number of PQ-PNOs                ...     0
Total Number of IJ-pairs               ...   144
Total Number of PI-pairs               ...     0
Total Number of PQ-pairs               ...     0
Average number of PNOs per pair        ...    33
Maximal number of PNOs per pair        ...    50
>> Statistics for ij-pairs..
   #pairs with  1 -  5 PNOs   :    0
   #pairs with  6 - 10 PNOs   :    0
   #pairs with 11 - 15 PNOs   :    0
   #pairs with 16 - 20 PNOs   :   10
   #pairs with 21 - 25 PNOs   :   36
   #pairs with 26 - 30 PNOs   :   18
   #pairs with 31 - 35 PNOs   :   16
   #pairs with 36 - 40 PNOs   :   20
   #pairs with 41 - 45 PNOs   :   27
   #pairs with 46 - 50 PNOs   :   17
Generation of (ij|ab)[P] integrals            ... on
Generation of (ia|bc)[P],(ja|bc)[P] integrals ... on
Storage of 3 and 4 external integrals         ... on
Generation of ALL (ka|bc)[P] integrals        ... on
Keep RI integrals in memory                   ... off

Ibatch:  1 (of  1)
Starting 2-4 index PNO integral generation ... done

Timings:
Total PNO integral transformation time     ...          9.502 sec
Size of the 3-external file                ...        29 MB
Size of the 4-external file                ...       150 MB
Size of the IKJL file                      ...         0 MB
Size of the all 3-external file            ...       174 MB
Size of the 1-external file                ...         0 MB

Size of the PAO/PNO coefficient matrices   ...       5.9 MB

Making pair/pair overlap matrices          ... done (    0.596 sec)
Size of the pair overlap file              ...      44.0 MB
Total # unrestricted pairs ...        276
  # of alpha-alpha pairs   ...         66
  # of alpha-beta pairs    ...        144
  # of beta-beta pairs     ...         66
Constructing the guess amplitudes          ... done (    0.034 sec)

-------------------------
FINAL STARTUP INFORMATION
-------------------------

E(0)                                       ...   -227.319448681
E(SL-UMP2 in NEV-PNO space)                ...     -0.777184666
Initial E(tot)                             ...   -228.096633347
<T|T>                                      ...      0.143758780
Number of unrestricted pairs included      ... 276
Total number of pairs                      ... 276
----------------------------------------------------------
                     OPEN-SHELL COUPLED CLUSTER ITERATIONS
----------------------------------------------------------

Number of PNO amplitudes to be optimized        ...           329002
Number of canonical amplitudes for strong pairs ...          5886720
Untruncated number of canonical amplitudes      ...          5886720

Iter       E(tot)           E(Corr)          Delta-E          Residual     Time
  0   -228.096659358     -0.775783911      0.001400755      0.014227630   10.87
                           *** Turning on DIIS ***
  1   -228.111989392     -0.791113944     -0.015330033      0.009330450   10.37
  2   -228.130705781     -0.809830333     -0.018716389      0.004103108   10.24
  3   -228.135287506     -0.814412058     -0.004581725      0.002383260   10.40
  4   -228.136818921     -0.815943474     -0.001531416      0.001000557   10.23
  5   -228.137129136     -0.816253689     -0.000310215      0.000348674   10.07
  6   -228.137191295     -0.816315847     -0.000062159      0.000139697   10.44
  7   -228.137216768     -0.816341321     -0.000025474      0.000051090   10.23
  8   -228.137216432     -0.816340985      0.000000336      0.000017232   10.02
  9   -228.137215859     -0.816340412      0.000000573      0.000004805   10.63
               --- The CCSD iterations have converged ---

E(0)                                       ...   -227.319448681
E(CORR)(strong-pairs)                      ...     -0.816340412
E(CORR)(weak-pairs)                        ...     -0.001426766
E(CORR)(corrected)                         ...     -0.817767178
E(TOT)                                     ...   -228.137215859
Singles norm <S|S>**1/2                    ...      0.072976554 ( 0.036488277, 0.036488277)  
T1 diagnostic                              ...      0.014896277                              
<S**2>(linearized)                         ...      0.0000000 (ideal value:      0.0000000)

----------------------
LARGEST PNO AMPLITUDES
----------------------
   4a-> 20a   4b-> 20b       0.044322
  11a-> 16a  11b-> 16b       0.039159
   9a-> 16a   9b-> 16b       0.039159
  15a-> 16a  15b-> 16b       0.038461
  14a-> 16a  14b-> 16b       0.038461
   5a-> 16a   5b-> 16b       0.033504
   6a-> 16a   6b-> 16b       0.033502
   7a-> 16a   7b-> 16b       0.032746
   7a-> 19a   7b-> 19b       0.032424
   9a-> 16a  11b-> 16b       0.027960
  11a-> 16a   9b-> 16b       0.027960
  14a-> 16a  15b-> 16b       0.026886
  15a-> 16a  14b-> 16b       0.026886
   4a-> 17a   4b-> 17b       0.026241
  15a-> 16a  -1a-> -1a       0.026068
  15b-> 16b  -1b-> -1b       0.026068

Total # unrestricted pairs ...          0
  # of alpha-alpha pairs   ...          0
  # of alpha-beta pairs    ...          0
  # of beta-beta pairs     ...          0

-------------------------------------------
DLPNO BASED TRIPLES CORRECTION
-------------------------------------------

Singles multiplier          ...  1.000000
Fragment selection                          .... not used
TCutTNO                     ... 1.000e-09
TCutMP2Pairs                ... 1.000e-05
TCutDOStrong                ... 2.000e-02
TCutMKNStrong               ... 1.000e-02
TCutDOWeak                  ... 4.000e-02
TCutMKNWeak                 ... 1.000e-01
NTCutTNO                    ... 1

Number of Triples that are to be computed         ...      1716

 . . . . . . . . .
10% done  
20% done  
30% done  
40% done  
          Batch   1   done (     28.913 sec)
 . . . . . . . . .
50% done  
60% done  
70% done  
          Batch   2   done (     19.889 sec)
 . . . . . . . . .
80% done  
90% done  
          Batch   3   done (     22.045 sec)

Triples-Correction TCutTNO=   1.000e-09 (NWeakPairs = 0  1  2  3)  -0.032776292913    0.000000000000    0.000000000000    0.000000000000
Triples-Correction  -0.032776292913

Triples timings:
Total time                      ...    80.608 sec

Triples List generation         ...     0.000 sec
TNO generation                  ...     1.217 sec
Pair density generation         ...     0.010 sec
Look up tables                  ...     0.003 sec
Generating 3-index integrals    ...    37.439 sec
Make 4-ind.int. from 3-ind.int  ...     0.248 sec
Projecting amplitudes (D + S)   ...     7.981 sec
Sorting integrals for spin cases...     2.111 sec
Calculate W0/W1                 ...    20.393 sec
T0 Energy contr.(sum over a,b,c)...     2.669 sec

Everything after 3-index in T0  ...    43.731 sec

Energy contribution AAA         ...     1.939 sec
Energy contribution AAB         ...    10.755 sec
Energy contribution ABB         ...    10.856 sec
Energy contribution BBB         ...     1.626 sec
prep                ...     0.046 sec
makeTTNO            ...     7.561 sec
copyij              ...     0.005 sec
copyil              ...     0.062 sec
transposeij         ...     0.004 sec
newMatInDoubleProj  ...     0.066 sec
BlasInDoubleProj    ...     6.898 sec
ProjSingles         ...     0.269 sec
ProjDoubles         ...     7.713 sec
overall Doubles for projection      ... 40920
used Doubles for projection         ... 40920


Number of Triples   (0, 1, 2, 3 weak pairs; overall):   1364       0       0       0  (  1364)
Number of Atoms     (0, 1, 2, 3 weak pairs; overall):    7.0     0.0     0.0     0.0  (     7)
Number of PAOs      (0, 1, 2, 3 weak pairs; overall):  161.7     0.0     0.0     0.0  (   162)
Number of AuxFcns   (0, 1, 2, 3 weak pairs; overall):  609.7     0.0     0.0     0.0  (   792)
Number of TNOs (0, 1, 2, 3 weak pairs         ):   80.6     0.0     0.0     0.0
Aver. Number of NTNO, Atoms, PAOs, AuxFcns / Triples:   1364    80.6     7.0   161.7   609.7

Triples Correction (T)                     ...     -0.032776293
    alpha-alpha-alpha ... -0.000928474 (  2.8%)
    alpha-alpha-beta  ... -0.015459672 ( 47.2%)
    alpha-beta -beta  ... -0.015459672 ( 47.2%)
    beta -beta -beta  ... -0.000928474 (  2.8%)
Final correlation energy                   ...     -0.850543471
E(CCSD)                                    ...   -228.137215859
E(CCSD(T))                                 ...   -228.169992152

----------------------------
STATISTICS FOR PAIR-ENERGIES
----------------------------
Minimum, maximum and average ratios of UMP and CCSD pair-energies ... 0.89, 1.19, 1.04


------------------------------------------------------------------------------- 
                                     TIMINGS                                   
------------------------------------------------------------------------------- 


Total execution time                   ...      228.680 sec

Localization of occupied MO's          ...        0.311 sec (  0.1%)
Fock Matrix Formation                  ...        1.435 sec (  0.6%)
Differential overlap integrals         ...        1.576 sec (  0.7%)
Organizing maps                        ...        0.015 sec (  0.0%)
RI 3-index integral generations        ...        1.743 sec (  0.8%)
RI-PNO integral transformation         ...       34.318 sec ( 15.0%)
Initial Guess                          ...        5.685 sec (  2.5%)
DIIS Solver                            ...        0.277 sec (  0.1%)
State Vector Update                    ...        0.025 sec (  0.0%)
Sigma-vector construction              ...      103.500 sec ( 45.3%)
  <0|H|D>                              ...        0.002 sec (  0.0% of sigma)
  <D|H|D>(0-ext)                       ...        2.403 sec (  2.3% of sigma)
  <D|H|D>(2-ext Fock)                  ...        0.021 sec (  0.0% of sigma)
  <D|H|D>(2-ext)                       ...       15.709 sec ( 15.2% of sigma)
  <D|H|D>(4-ext)                       ...       13.726 sec ( 13.3% of sigma)
  <D|H|D>(4-ext-corr)                  ...       54.832 sec ( 53.0% of sigma)
  CCSD doubles correction              ...        0.505 sec (  0.5% of sigma)
  <S|H|S>                              ...        0.407 sec (  0.4% of sigma)
  <S|H|D>(1-ext)                       ...        0.414 sec (  0.4% of sigma)
  <D|H|S>(1-ext)                       ...        0.011 sec (  0.0% of sigma)
  <S|H|D>(3-ext)                       ...        0.242 sec (  0.2% of sigma)
  Fock-dressing                        ...        8.351 sec (  8.1% of sigma)
  Singles amplitudes                   ...        0.098 sec (  0.1% of sigma)
  (ik|jl)-dressing                     ...        2.691 sec (  2.6% of sigma)
  (ij|ab),(ia|jb)-dressing             ...        3.768 sec (  3.6% of sigma)
  Pair energies                        ...        0.004 sec (  0.0% of sigma)
Total Time for computing (T)           ...       80.666 sec ( 35.3% of ALL)


-------------------------   --------------------
FINAL SINGLE POINT ENERGY      -228.169992151890
-------------------------   --------------------


                            ***************************************
                            *     ORCA property calculations      *
                            ***************************************

                                    ---------------------
                                    Active property flags
                                    ---------------------
   (+) Dipole Moment


------------------------------------------------------------------------------
                       ORCA ELECTRIC PROPERTIES CALCULATION
------------------------------------------------------------------------------

Dipole Moment Calculation                       ... on
Quadrupole Moment Calculation                   ... off
Polarizability Calculation                      ... off
GBWName                                         ... acetate.gbw
Electron density file                           ... acetate.scfp
The origin for moment calculation is the CENTER OF MASS  = (-0.031170, -0.080096 -0.000008)

-------------
DIPOLE MOMENT
-------------
                                X             Y             Z
Electronic contribution:     -1.71811       3.23748      -0.00002
Nuclear contribution   :      2.32993      -4.46281       0.00003
                        -----------------------------------------
Total Dipole Moment    :      0.61183      -1.22533       0.00001
                        -----------------------------------------
Magnitude (a.u.)       :      1.36959
Magnitude (Debye)      :      3.48121



--------------------
Rotational spectrum 
--------------------
 
Rotational constants in cm-1:     0.386598     0.336250     0.186069 
Rotational constants in MHz : 11589.915242 10080.514223  5578.218498 

 Dipole components along the rotational axes: 
x,y,z [a.u.] :     1.365348    -0.107666     0.000009 
x,y,z [Debye]:     3.470439    -0.273664     0.000022 

 

Timings for individual modules:

Sum of individual times         ...      244.750 sec (=   4.079 min)
GTO integral calculation        ...        0.742 sec (=   0.012 min)   0.3 %
SCF iterations                  ...       14.142 sec (=   0.236 min)   5.8 %
MDCI module                     ...      229.866 sec (=   3.831 min)  93.9 %
                             ****ORCA TERMINATED NORMALLY****
TOTAL RUN TIME: 0 days 0 hours 4 minutes 5 seconds 347 msec
