
                                 *****************
                                 * O   R   C   A *
                                 *****************

           --- An Ab Initio, DFT and Semiempirical electronic structure package ---

                  #######################################################
                  #                        -***-                        #
                  #          Department of theory and spectroscopy      #
                  #               Directorship: Frank Neese             #
                  #        Max Planck Institute fuer Kohlenforschung    #
                  #                Kaiser Wilhelm Platz 1               #
                  #                 D-45470 Muelheim/Ruhr               #
                  #                      Germany                        #
                  #                                                     #
                  #                  All rights reserved                #
                  #                        -***-                        #
                  #######################################################


                         Program Version 4.2.1 -  RELEASE  -


 With contributions from (in alphabetic order):
   Daniel Aravena         : Magnetic Suceptibility
   Michael Atanasov       : Ab Initio Ligand Field Theory (pilot matlab implementation)
   Alexander A. Auer      : GIAO ZORA, VPT2
   Ute Becker             : Parallelization
   Giovanni Bistoni       : ED, misc. LED, open-shell LED, HFLD
   Martin Brehm           : Molecular dynamics
   Dmytro Bykov           : SCF Hessian
   Vijay G. Chilkuri      : MRCI spin determinant printing, contributions to CSF-ICE
   Dipayan Datta          : RHF DLPNO-CCSD density
   Achintya Kumar Dutta   : EOM-CC, STEOM-CC
   Dmitry Ganyushin       : Spin-Orbit,Spin-Spin,Magnetic field MRCI
   Miquel Garcia          : C-PCM Hessian, Gaussian charge scheme
   Yang Guo               : DLPNO-NEVPT2, CIM, IAO-localization
   Andreas Hansen         : Spin unrestricted coupled pair/coupled cluster methods
   Benjamin Helmich-Paris : CASSCF linear response (MC-RPA)
   Lee Huntington         : MR-EOM, pCC
   Robert Izsak           : Overlap fitted RIJCOSX, COSX-SCS-MP3, EOM
   Christian Kollmar      : KDIIS, OOCD, Brueckner-CCSD(T), CCSD density
   Simone Kossmann        : Meta GGA functionals, TD-DFT gradient, OOMP2, MP2 Hessian
   Martin Krupicka        : AUTO-CI
   Lucas Lang             : DCDCAS
   Dagmar Lenk            : GEPOL surface, SMD
   Dimitrios Liakos       : Extrapolation schemes; Compound Job, initial MDCI parallelization
   Dimitrios Manganas     : Further ROCIS development; embedding schemes
   Dimitrios Pantazis     : SARC Basis sets
   Taras Petrenko         : DFT Hessian,TD-DFT gradient, ASA, ECA, R-Raman, ABS, FL, XAS/XES, NRVS
   Peter Pinski           : DLPNO-MP2, DLPNO-MP2 Gradient
   Christoph Reimann      : Effective Core Potentials
   Marius Retegan         : Local ZFS, SOC
   Christoph Riplinger    : Optimizer, TS searches, QM/MM, DLPNO-CCSD(T), (RO)-DLPNO pert. Triples
   Tobias Risthaus        : Range-separated hybrids, TD-DFT gradient, RPA, STAB
   Michael Roemelt        : Original ROCIS implementation
   Masaaki Saitow         : Open-shell DLPNO-CCSD energy and density
   Barbara Sandhoefer     : DKH picture change effects
   Avijit Sen             : IP-ROCIS
   Kantharuban Sivalingam : CASSCF convergence, NEVPT2, FIC-MRCI
   Bernardo de Souza      : ESD, SOC TD-DFT
   Georgi Stoychev        : AutoAux, RI-MP2 NMR
   Willem Van den Heuvel  : Paramagnetic NMR
   Boris Wezisla          : Elementary symmetry handling
   Frank Wennmohs         : Technical directorship


 We gratefully acknowledge several colleagues who have allowed us to
 interface, adapt or use parts of their codes:
   Stefan Grimme, W. Hujo, H. Kruse,             : VdW corrections, initial TS optimization,
                  C. Bannwarth                     DFT functionals, gCP, sTDA/sTD-DF
   Ed Valeev, F. Pavosevic, A. Kumar             : LibInt (2-el integral package), F12 methods
   Garnet Chan, S. Sharma, J. Yang, R. Olivares  : DMRG
   Ulf Ekstrom                                   : XCFun DFT Library
   Mihaly Kallay                                 : mrcc  (arbitrary order and MRCC methods)
   Andreas Klamt, Michael Diedenhofen            : otool_cosmo (COSMO solvation model)
   Jiri Pittner, Ondrej Demel                    : Mk-CCSD
   Frank Weinhold                                : gennbo (NPA and NBO analysis)
   Christopher J. Cramer and Donald G. Truhlar   : smd solvation model
   Lars Goerigk                                  : TD-DFT with DH, B97 family of functionals
   V. Asgeirsson, H. Jonsson                     : NEB implementation
   FAccTs GmbH                                   : IRC, NEB, NEB-TS, Multilevel, MM, QM/MM, CI optimization
   S Lehtola, MJT Oliveira, MAL Marques          : LibXC Library


 Your calculation uses the libint2 library for the computation of 2-el integrals
 For citations please refer to: http://libint.valeyev.net

 Your ORCA version has been built with support for libXC version: 4.2.3
 For citations please refer to: https://tddft.org/programs/libxc/

 This ORCA versions uses:
   CBLAS   interface :  Fast vector & matrix operations
   LAPACKE interface :  Fast linear algebra routines
   SCALAPACK package :  Parallel linear algebra routines




***************************************
The coordinates will be read from file: acetic_acid.xyz
***************************************


----- Orbital basis set information -----
Your calculation utilizes the basis: cc-pVTZ 
       H, B-Ne : Obtained from the ccRepo (grant-hill.group.shef.ac.uk/ccrepo) Feb. 2017
                 T. H. Dunning, Jr., J. Chem. Phys. 90, 1007 (1989)
            He : Obtained from the ccRepo (grant-hill.group.shef.ac.uk/ccrepo) Feb. 2017
                 D. E. Woon, T. H. Dunning, Jr., J. Chem. Phys. 100, 2975 (1994)
  Li-Be, Na-Mg : Obtained from the ccRepo (grant-hill.group.shef.ac.uk/ccrepo) Feb. 2017
                 B. P. Prascher, D. E. Woon, K. A. Peterson, T. H. Dunning, Jr., A. K. Wilson, Theor. Chem. Acc. 128, 69 (2011)
         Al-Ar : Obtained from the ccRepo (grant-hill.group.shef.ac.uk/ccrepo) Feb. 2017
                 D. E. Woon, T. H. Dunning, Jr., J. Chem. Phys. 98, 1358 (1993)
            Ca : Obtained from the Peterson Research Group Website (tyr0.chem.wsu.edu/~kipeters) Feb. 2017
                 J. Koput, K. A. Peterson, J. Phys. Chem. 106, 9595 (2002)
         Sc-Zn : Obtained from the ccRepo (grant-hill.group.shef.ac.uk/ccrepo) Feb. 2017
                 N. B. Balabanov, K. A. Peterson, J. Chem. Phys. 123, 064107 (2005)
                 N. B. Balabanov, K. A. Peterson, J. Chem. Phys. 125, 074110 (2006)
         Ga-Kr : Obtained from the ccRepo (grant-hill.group.shef.ac.uk/ccrepo) Feb. 2017
                 A. K. Wilson, D. E. Woon, K. A. Peterson, T. H. Dunning, Jr., J. Chem. Phys. 110, 7667 (1999)
             Y : Obtained from the ccRepo (grant-hill.group.shef.ac.uk/ccrepo) Feb. 2017
                 K. A. Peterson, D. Figgen, M. Dolg, H. Stoll, J. Chem. Phys. 126, 124101 (2007)
        Ag, Au : Obtained from the Peterson Research Group Website (tyr0.chem.wsu.edu/~kipeters) Feb. 2017
                 K. A. Peterson, C. Puzzarini, Theor. Chem. Acc. 114, 283 (2005)

----- AuxJ basis set information -----
Your calculation utilizes the AutoAux generation procedure.
  G. L. Stoychev, A. A. Auer, F. Neese, J. Chem. Theory Comput. 13, 554 (2017)

----- AuxC basis set information -----
Your calculation utilizes the AutoAux generation procedure.
  G. L. Stoychev, A. A. Auer, F. Neese, J. Chem. Theory Comput. 13, 554 (2017)

----- AuxJK basis set information -----
Your calculation utilizes the AutoAux generation procedure.
  G. L. Stoychev, A. A. Auer, F. Neese, J. Chem. Theory Comput. 13, 554 (2017)

================================================================================
                                        WARNINGS
                       Please study these warnings very carefully!
================================================================================


WARNING: PNO calculations with unrestricted orbitals require UNOs
  ===> : Switching on UNOs

WARNING: Unrestricted DLPNO-CCSD(T0/T) with FullLMP2-Guess requested.
         This is not yet implemented.
         When comparing energies between closed and open shell calculations:
  ===> : Be aware to set UseFullLMP2Guess to false for the corresponding closed shell calculations.
         Note that UseFullLMP2Guess is done by default only for TightPNO closed shell calculations.


WARNING: MDCI localization with Augmented Hessian Foster-Boys
  ===> : Switching off randomization!

WARNING: Post HF methods need fully converged wavefunctions
  ===> : Setting SCFConvForced true
         You can overwrite this default with %scf ConvForced false 


INFO   : the flag for use of LIBINT has been found!

================================================================================
                                       INPUT FILE
================================================================================
NAME = acetic_acid.inp
|  1> ! UHF DLPNO-CCSD(T) cc-pVTZ AutoAux TightSCF Grid6 NoFinalGrid PrintBasis PrintMOs NBO
|  2> 
|  3> %pal
|  4>  nprocs 6
|  5> end
|  6> 
|  7> *xyzfile 0 1 acetic_acid.xyz
|  8> 
|  9>                          ****END OF INPUT****
================================================================================

                       ****************************
                       * Single Point Calculation *
                       ****************************

---------------------------------
CARTESIAN COORDINATES (ANGSTROEM)
---------------------------------
  C      0.633560   -1.316203   -0.000001
  C     -0.105686   -0.010877   -0.000006
  H      1.271492   -1.384875    0.881850
  H      1.271494   -1.384880   -0.881850
  H     -0.091168   -2.126813    0.000001
  O     -1.297429    0.105696    0.000003
  O      0.711560    1.056542    0.000001
  H      0.153268    1.844769    0.000003

----------------------------
CARTESIAN COORDINATES (A.U.)
----------------------------
  NO LB      ZA    FRAG     MASS         X           Y           Z
   0 C     6.0000    0    12.011    1.197255   -2.487263   -0.000002
   1 C     6.0000    0    12.011   -0.199718   -0.020554   -0.000012
   2 H     1.0000    0     1.008    2.402772   -2.617034    1.666455
   3 H     1.0000    0     1.008    2.402776   -2.617044   -1.666455
   4 H     1.0000    0     1.008   -0.172283   -4.019095    0.000001
   5 O     8.0000    0    15.999   -2.451786    0.199737    0.000005
   6 O     8.0000    0    15.999    1.344653    1.996575    0.000002
   7 H     1.0000    0     1.008    0.289635    3.486109    0.000005

--------------------------------
INTERNAL COORDINATES (ANGSTROEM)
--------------------------------
 C      0   0   0     0.000000000000     0.00000000     0.00000000
 C      1   0   0     1.500120818000     0.00000000     0.00000000
 H      1   2   0     1.090565990054   110.06313619     0.00000000
 H      1   2   3     1.090565976849   110.06311962   241.17391953
 H      1   2   3     1.087345603385   108.67739803   120.58695406
 O      2   1   3     1.197430856204   125.11095211   239.41369666
 O      2   1   3     1.344348867793   113.03710198    59.41258102
 H      7   2   1     0.965915127196   107.25182087   180.00035889

---------------------------
INTERNAL COORDINATES (A.U.)
---------------------------
 C      0   0   0     0.000000000000     0.00000000     0.00000000
 C      1   0   0     2.834817513814     0.00000000     0.00000000
 H      1   2   0     2.060871052170   110.06313619     0.00000000
 H      1   2   3     2.060871027216   110.06311962   241.17391953
 H      1   2   3     2.054785403322   108.67739803   120.58695406
 O      2   1   3     2.262816382532   125.11095211   239.41369666
 O      2   1   3     2.540451188575   113.03710198    59.41258102
 H      7   2   1     1.825315059012   107.25182087   180.00035889

---------------------
BASIS SET INFORMATION
---------------------
There are 3 groups of distinct atoms

 Group   1 Type C   : 18s5p2d1f contracted to 4s3p2d1f pattern {8811/311/11/1}
 Group   2 Type H   : 5s2p1d contracted to 3s2p1d pattern {311/11/1}
 Group   3 Type O   : 18s5p2d1f contracted to 4s3p2d1f pattern {8811/311/11/1}

Atom   0C    basis set group =>   1
Atom   1C    basis set group =>   1
Atom   2H    basis set group =>   2
Atom   3H    basis set group =>   2
Atom   4H    basis set group =>   2
Atom   5O    basis set group =>   3
Atom   6O    basis set group =>   3
Atom   7H    basis set group =>   2

-------------------------
BASIS SET IN INPUT FORMAT
-------------------------

 # Basis set for element : H 
 NewGTO H 
 S 3 
   1      33.8700000000      0.0254948632
   2       5.0950000000      0.1903627659
   3       1.1590000000      0.8521620222
 S 1 
   1       0.3258000000      1.0000000000
 S 1 
   1       0.1027000000      1.0000000000
 P 1 
   1       1.4070000000      1.0000000000
 P 1 
   1       0.3880000000      1.0000000000
 D 1 
   1       1.0570000000      1.0000000000
  end;

 # Basis set for element : C 
 NewGTO C 
 S 8 
   1    8236.0000000000      0.0005424302
   2    1235.0000000000      0.0041964279
   3     280.8000000000      0.0215409141
   4      79.2700000000      0.0836149496
   5      25.5900000000      0.2398716189
   6       8.9970000000      0.4437518201
   7       3.3190000000      0.3535796965
   8       0.3643000000     -0.0091763661
 S 8 
   1    8236.0000000000     -0.0001963922
   2    1235.0000000000     -0.0015259503
   3     280.8000000000     -0.0078904490
   4      79.2700000000     -0.0315148705
   5      25.5900000000     -0.0969100083
   6       8.9970000000     -0.2205415263
   7       3.3190000000     -0.2960691129
   8       0.3643000000      1.0405034329
 S 1 
   1       0.9059000000      1.0000000000
 S 1 
   1       0.1285000000      1.0000000000
 P 3 
   1      18.7100000000      0.0394263872
   2       4.1330000000      0.2440889849
   3       1.2000000000      0.8154920089
 P 1 
   1       0.3827000000      1.0000000000
 P 1 
   1       0.1209000000      1.0000000000
 D 1 
   1       1.0970000000      1.0000000000
 D 1 
   1       0.3180000000      1.0000000000
 F 1 
   1       0.7610000000      1.0000000000
  end;

 # Basis set for element : O 
 NewGTO O 
 S 8 
   1   15330.0000000000      0.0005201983
   2    2299.0000000000      0.0040233448
   3     522.4000000000      0.0207290833
   4     147.3000000000      0.0810823271
   5      47.5500000000      0.2362263521
   6      16.7600000000      0.4435182094
   7       6.2070000000      0.3586705887
   8       0.6882000000     -0.0083497972
 S 8 
   1   15330.0000000000     -0.0001972360
   2    2299.0000000000     -0.0015350107
   3     522.4000000000     -0.0079511839
   4     147.3000000000     -0.0321134529
   5      47.5500000000     -0.1002696430
   6      16.7600000000     -0.2340471118
   7       6.2070000000     -0.3014109278
   8       0.6882000000      1.0349196495
 S 1 
   1       1.7520000000      1.0000000000
 S 1 
   1       0.2384000000      1.0000000000
 P 3 
   1      34.4600000000      0.0411634896
   2       7.7490000000      0.2577628359
   3       2.2800000000      0.8024192744
 P 1 
   1       0.7156000000      1.0000000000
 P 1 
   1       0.2140000000      1.0000000000
 D 1 
   1       2.3140000000      1.0000000000
 D 1 
   1       0.6450000000      1.0000000000
 F 1 
   1       1.4280000000      1.0000000000
  end;

---------------------------------
AUXILIARY/J BASIS SET INFORMATION
---------------------------------
There are 3 groups of distinct atoms

 Group   1 Type C   : 14s11p10d5f3g contracted to 14s11p10d5f3g pattern {11111111111111/11111111111/1111111111/11111/111}
 Group   2 Type H   : 11s4p3d2f contracted to 11s4p3d2f pattern {11111111111/1111/111/11}
 Group   3 Type O   : 14s11p10d5f3g contracted to 14s11p10d5f3g pattern {11111111111111/11111111111/1111111111/11111/111}

Atom   0C    basis set group =>   1
Atom   1C    basis set group =>   1
Atom   2H    basis set group =>   2
Atom   3H    basis set group =>   2
Atom   4H    basis set group =>   2
Atom   5O    basis set group =>   3
Atom   6O    basis set group =>   3
Atom   7H    basis set group =>   2

-------------------------------------
AUXILIARY/J BASIS SET IN INPUT FORMAT
-------------------------------------

 # Auxiliary/J basis set for element : H 
 NewAuxJGTO H 
 S 1 
   1      73.3373968349      1.0000000000
 S 1 
   1      40.7429982416      1.0000000000
 S 1 
   1      22.6349990231      1.0000000000
 S 1 
   1      12.5749994573      1.0000000000
 S 1 
   1       6.9861108096      1.0000000000
 S 1 
   1       3.8811726720      1.0000000000
 S 1 
   1       2.1562070400      1.0000000000
 S 1 
   1       1.1978928000      1.0000000000
 S 1 
   1       0.6654960000      1.0000000000
 S 1 
   1       0.3697200000      1.0000000000
 S 1 
   1       0.2054000000      1.0000000000
 P 1 
   1       3.9256000000      1.0000000000
 P 1 
   1       1.9628000000      1.0000000000
 P 1 
   1       0.9814000000      1.0000000000
 P 1 
   1       0.4907000000      1.0000000000
 D 1 
   1       3.7558400000      1.0000000000
 D 1 
   1       1.7072000000      1.0000000000
 D 1 
   1       0.7760000000      1.0000000000
 F 1 
   1       3.1790000000      1.0000000000
 F 1 
   1       1.4450000000      1.0000000000
  end;

 # Auxiliary/J basis set for element : C 
 NewAuxJGTO C 
 S 1 
   1     503.4992904519      1.0000000000
 S 1 
   1     279.7218280288      1.0000000000
 S 1 
   1     155.4010155716      1.0000000000
 S 1 
   1      86.3338975398      1.0000000000
 S 1 
   1      47.9632764110      1.0000000000
 S 1 
   1      26.6462646728      1.0000000000
 S 1 
   1      14.8034803738      1.0000000000
 S 1 
   1       8.2241557632      1.0000000000
 S 1 
   1       4.5689754240      1.0000000000
 S 1 
   1       2.5383196800      1.0000000000
 S 1 
   1       1.4101776000      1.0000000000
 S 1 
   1       0.7834320000      1.0000000000
 S 1 
   1       0.4352400000      1.0000000000
 S 1 
   1       0.2418000000      1.0000000000
 P 1 
   1      86.3338975398      1.0000000000
 P 1 
   1      47.9632764110      1.0000000000
 P 1 
   1      26.6462646728      1.0000000000
 P 1 
   1      14.8034803738      1.0000000000
 P 1 
   1       8.2241557632      1.0000000000
 P 1 
   1       4.5689754240      1.0000000000
 P 1 
   1       2.5383196800      1.0000000000
 P 1 
   1       1.4101776000      1.0000000000
 P 1 
   1       0.7834320000      1.0000000000
 P 1 
   1       0.4352400000      1.0000000000
 P 1 
   1       0.2418000000      1.0000000000
 D 1 
   1      47.9632764110      1.0000000000
 D 1 
   1      26.6462646728      1.0000000000
 D 1 
   1      14.8034803738      1.0000000000
 D 1 
   1       8.2241557632      1.0000000000
 D 1 
   1       4.5689754240      1.0000000000
 D 1 
   1       2.5383196800      1.0000000000
 D 1 
   1       1.4101776000      1.0000000000
 D 1 
   1       0.7834320000      1.0000000000
 D 1 
   1       0.4352400000      1.0000000000
 D 1 
   1       0.2418000000      1.0000000000
 F 1 
   1      10.2814958400      1.0000000000
 F 1 
   1       4.6734072000      1.0000000000
 F 1 
   1       2.1242760000      1.0000000000
 F 1 
   1       0.9655800000      1.0000000000
 F 1 
   1       0.4389000000      1.0000000000
 G 1 
   1       3.0782400000      1.0000000000
 G 1 
   1       1.3992000000      1.0000000000
 G 1 
   1       0.6360000000      1.0000000000
  end;

 # Auxiliary/J basis set for element : O 
 NewAuxJGTO O 
 S 1 
   1     891.2228962507      1.0000000000
 S 1 
   1     495.1238312504      1.0000000000
 S 1 
   1     275.0687951391      1.0000000000
 S 1 
   1     152.8159972995      1.0000000000
 S 1 
   1      84.8977762775      1.0000000000
 S 1 
   1      47.1654312653      1.0000000000
 S 1 
   1      26.2030173696      1.0000000000
 S 1 
   1      14.5572318720      1.0000000000
 S 1 
   1       8.0873510400      1.0000000000
 S 1 
   1       4.4929728000      1.0000000000
 S 1 
   1       2.4960960000      1.0000000000
 S 1 
   1       1.3867200000      1.0000000000
 S 1 
   1       0.7704000000      1.0000000000
 S 1 
   1       0.4280000000      1.0000000000
 P 1 
   1     152.8159972995      1.0000000000
 P 1 
   1      84.8977762775      1.0000000000
 P 1 
   1      47.1654312653      1.0000000000
 P 1 
   1      26.2030173696      1.0000000000
 P 1 
   1      14.5572318720      1.0000000000
 P 1 
   1       8.0873510400      1.0000000000
 P 1 
   1       4.4929728000      1.0000000000
 P 1 
   1       2.4960960000      1.0000000000
 P 1 
   1       1.3867200000      1.0000000000
 P 1 
   1       0.7704000000      1.0000000000
 P 1 
   1       0.4280000000      1.0000000000
 D 1 
   1      84.8977762775      1.0000000000
 D 1 
   1      47.1654312653      1.0000000000
 D 1 
   1      26.2030173696      1.0000000000
 D 1 
   1      14.5572318720      1.0000000000
 D 1 
   1       8.0873510400      1.0000000000
 D 1 
   1       4.4929728000      1.0000000000
 D 1 
   1       2.4960960000      1.0000000000
 D 1 
   1       1.3867200000      1.0000000000
 D 1 
   1       0.7704000000      1.0000000000
 D 1 
   1       0.4280000000      1.0000000000
 F 1 
   1      20.1225904000      1.0000000000
 F 1 
   1       9.1466320000      1.0000000000
 F 1 
   1       4.1575600000      1.0000000000
 F 1 
   1       1.8898000000      1.0000000000
 F 1 
   1       0.8590000000      1.0000000000
 G 1 
   1       6.2436000000      1.0000000000
 G 1 
   1       2.8380000000      1.0000000000
 G 1 
   1       1.2900000000      1.0000000000
  end;

---------------------------------
AUXILIARY/C BASIS SET INFORMATION
---------------------------------
There are 3 groups of distinct atoms

 Group   1 Type C   : 14s11p10d5f3g contracted to 14s11p10d5f3g pattern {11111111111111/11111111111/1111111111/11111/111}
 Group   2 Type H   : 11s4p3d2f contracted to 11s4p3d2f pattern {11111111111/1111/111/11}
 Group   3 Type O   : 14s11p10d5f3g contracted to 14s11p10d5f3g pattern {11111111111111/11111111111/1111111111/11111/111}

Atom   0C    basis set group =>   1
Atom   1C    basis set group =>   1
Atom   2H    basis set group =>   2
Atom   3H    basis set group =>   2
Atom   4H    basis set group =>   2
Atom   5O    basis set group =>   3
Atom   6O    basis set group =>   3
Atom   7H    basis set group =>   2

-------------------------------------
AUXILIARY/C BASIS SET IN INPUT FORMAT
-------------------------------------

 # Auxiliary/C basis set for element : H 
 NewAuxCGTO H 
 S 1 
   1      73.3373968349      1.0000000000
 S 1 
   1      40.7429982416      1.0000000000
 S 1 
   1      22.6349990231      1.0000000000
 S 1 
   1      12.5749994573      1.0000000000
 S 1 
   1       6.9861108096      1.0000000000
 S 1 
   1       3.8811726720      1.0000000000
 S 1 
   1       2.1562070400      1.0000000000
 S 1 
   1       1.1978928000      1.0000000000
 S 1 
   1       0.6654960000      1.0000000000
 S 1 
   1       0.3697200000      1.0000000000
 S 1 
   1       0.2054000000      1.0000000000
 P 1 
   1       3.9256000000      1.0000000000
 P 1 
   1       1.9628000000      1.0000000000
 P 1 
   1       0.9814000000      1.0000000000
 P 1 
   1       0.4907000000      1.0000000000
 D 1 
   1       3.7558400000      1.0000000000
 D 1 
   1       1.7072000000      1.0000000000
 D 1 
   1       0.7760000000      1.0000000000
 F 1 
   1       3.1790000000      1.0000000000
 F 1 
   1       1.4450000000      1.0000000000
  end;

 # Auxiliary/C basis set for element : C 
 NewAuxCGTO C 
 S 1 
   1     503.4992904519      1.0000000000
 S 1 
   1     279.7218280288      1.0000000000
 S 1 
   1     155.4010155716      1.0000000000
 S 1 
   1      86.3338975398      1.0000000000
 S 1 
   1      47.9632764110      1.0000000000
 S 1 
   1      26.6462646728      1.0000000000
 S 1 
   1      14.8034803738      1.0000000000
 S 1 
   1       8.2241557632      1.0000000000
 S 1 
   1       4.5689754240      1.0000000000
 S 1 
   1       2.5383196800      1.0000000000
 S 1 
   1       1.4101776000      1.0000000000
 S 1 
   1       0.7834320000      1.0000000000
 S 1 
   1       0.4352400000      1.0000000000
 S 1 
   1       0.2418000000      1.0000000000
 P 1 
   1      86.3338975398      1.0000000000
 P 1 
   1      47.9632764110      1.0000000000
 P 1 
   1      26.6462646728      1.0000000000
 P 1 
   1      14.8034803738      1.0000000000
 P 1 
   1       8.2241557632      1.0000000000
 P 1 
   1       4.5689754240      1.0000000000
 P 1 
   1       2.5383196800      1.0000000000
 P 1 
   1       1.4101776000      1.0000000000
 P 1 
   1       0.7834320000      1.0000000000
 P 1 
   1       0.4352400000      1.0000000000
 P 1 
   1       0.2418000000      1.0000000000
 D 1 
   1      47.9632764110      1.0000000000
 D 1 
   1      26.6462646728      1.0000000000
 D 1 
   1      14.8034803738      1.0000000000
 D 1 
   1       8.2241557632      1.0000000000
 D 1 
   1       4.5689754240      1.0000000000
 D 1 
   1       2.5383196800      1.0000000000
 D 1 
   1       1.4101776000      1.0000000000
 D 1 
   1       0.7834320000      1.0000000000
 D 1 
   1       0.4352400000      1.0000000000
 D 1 
   1       0.2418000000      1.0000000000
 F 1 
   1      10.2814958400      1.0000000000
 F 1 
   1       4.6734072000      1.0000000000
 F 1 
   1       2.1242760000      1.0000000000
 F 1 
   1       0.9655800000      1.0000000000
 F 1 
   1       0.4389000000      1.0000000000
 G 1 
   1       3.0782400000      1.0000000000
 G 1 
   1       1.3992000000      1.0000000000
 G 1 
   1       0.6360000000      1.0000000000
  end;

 # Auxiliary/C basis set for element : O 
 NewAuxCGTO O 
 S 1 
   1     891.2228962507      1.0000000000
 S 1 
   1     495.1238312504      1.0000000000
 S 1 
   1     275.0687951391      1.0000000000
 S 1 
   1     152.8159972995      1.0000000000
 S 1 
   1      84.8977762775      1.0000000000
 S 1 
   1      47.1654312653      1.0000000000
 S 1 
   1      26.2030173696      1.0000000000
 S 1 
   1      14.5572318720      1.0000000000
 S 1 
   1       8.0873510400      1.0000000000
 S 1 
   1       4.4929728000      1.0000000000
 S 1 
   1       2.4960960000      1.0000000000
 S 1 
   1       1.3867200000      1.0000000000
 S 1 
   1       0.7704000000      1.0000000000
 S 1 
   1       0.4280000000      1.0000000000
 P 1 
   1     152.8159972995      1.0000000000
 P 1 
   1      84.8977762775      1.0000000000
 P 1 
   1      47.1654312653      1.0000000000
 P 1 
   1      26.2030173696      1.0000000000
 P 1 
   1      14.5572318720      1.0000000000
 P 1 
   1       8.0873510400      1.0000000000
 P 1 
   1       4.4929728000      1.0000000000
 P 1 
   1       2.4960960000      1.0000000000
 P 1 
   1       1.3867200000      1.0000000000
 P 1 
   1       0.7704000000      1.0000000000
 P 1 
   1       0.4280000000      1.0000000000
 D 1 
   1      84.8977762775      1.0000000000
 D 1 
   1      47.1654312653      1.0000000000
 D 1 
   1      26.2030173696      1.0000000000
 D 1 
   1      14.5572318720      1.0000000000
 D 1 
   1       8.0873510400      1.0000000000
 D 1 
   1       4.4929728000      1.0000000000
 D 1 
   1       2.4960960000      1.0000000000
 D 1 
   1       1.3867200000      1.0000000000
 D 1 
   1       0.7704000000      1.0000000000
 D 1 
   1       0.4280000000      1.0000000000
 F 1 
   1      20.1225904000      1.0000000000
 F 1 
   1       9.1466320000      1.0000000000
 F 1 
   1       4.1575600000      1.0000000000
 F 1 
   1       1.8898000000      1.0000000000
 F 1 
   1       0.8590000000      1.0000000000
 G 1 
   1       6.2436000000      1.0000000000
 G 1 
   1       2.8380000000      1.0000000000
 G 1 
   1       1.2900000000      1.0000000000
  end;

----------------------------------
AUXILIARY/JK BASIS SET INFORMATION
----------------------------------
There are 3 groups of distinct atoms

 Group   1 Type C   : 14s11p10d5f3g contracted to 14s11p10d5f3g pattern {11111111111111/11111111111/1111111111/11111/111}
 Group   2 Type H   : 11s4p3d2f contracted to 11s4p3d2f pattern {11111111111/1111/111/11}
 Group   3 Type O   : 14s11p10d5f3g contracted to 14s11p10d5f3g pattern {11111111111111/11111111111/1111111111/11111/111}

Atom   0C    basis set group =>   1
Atom   1C    basis set group =>   1
Atom   2H    basis set group =>   2
Atom   3H    basis set group =>   2
Atom   4H    basis set group =>   2
Atom   5O    basis set group =>   3
Atom   6O    basis set group =>   3
Atom   7H    basis set group =>   2

--------------------------------------
AUXILIARY/JK BASIS SET IN INPUT FORMAT
--------------------------------------

 # Auxiliary/JK basis set for element : H 
 NewAuxJKGTO H 
 S 1 
   1      73.3373968349      1.0000000000
 S 1 
   1      40.7429982416      1.0000000000
 S 1 
   1      22.6349990231      1.0000000000
 S 1 
   1      12.5749994573      1.0000000000
 S 1 
   1       6.9861108096      1.0000000000
 S 1 
   1       3.8811726720      1.0000000000
 S 1 
   1       2.1562070400      1.0000000000
 S 1 
   1       1.1978928000      1.0000000000
 S 1 
   1       0.6654960000      1.0000000000
 S 1 
   1       0.3697200000      1.0000000000
 S 1 
   1       0.2054000000      1.0000000000
 P 1 
   1       3.9256000000      1.0000000000
 P 1 
   1       1.9628000000      1.0000000000
 P 1 
   1       0.9814000000      1.0000000000
 P 1 
   1       0.4907000000      1.0000000000
 D 1 
   1       3.7558400000      1.0000000000
 D 1 
   1       1.7072000000      1.0000000000
 D 1 
   1       0.7760000000      1.0000000000
 F 1 
   1       3.1790000000      1.0000000000
 F 1 
   1       1.4450000000      1.0000000000
  end;

 # Auxiliary/JK basis set for element : C 
 NewAuxJKGTO C 
 S 1 
   1     503.4992904519      1.0000000000
 S 1 
   1     279.7218280288      1.0000000000
 S 1 
   1     155.4010155716      1.0000000000
 S 1 
   1      86.3338975398      1.0000000000
 S 1 
   1      47.9632764110      1.0000000000
 S 1 
   1      26.6462646728      1.0000000000
 S 1 
   1      14.8034803738      1.0000000000
 S 1 
   1       8.2241557632      1.0000000000
 S 1 
   1       4.5689754240      1.0000000000
 S 1 
   1       2.5383196800      1.0000000000
 S 1 
   1       1.4101776000      1.0000000000
 S 1 
   1       0.7834320000      1.0000000000
 S 1 
   1       0.4352400000      1.0000000000
 S 1 
   1       0.2418000000      1.0000000000
 P 1 
   1      86.3338975398      1.0000000000
 P 1 
   1      47.9632764110      1.0000000000
 P 1 
   1      26.6462646728      1.0000000000
 P 1 
   1      14.8034803738      1.0000000000
 P 1 
   1       8.2241557632      1.0000000000
 P 1 
   1       4.5689754240      1.0000000000
 P 1 
   1       2.5383196800      1.0000000000
 P 1 
   1       1.4101776000      1.0000000000
 P 1 
   1       0.7834320000      1.0000000000
 P 1 
   1       0.4352400000      1.0000000000
 P 1 
   1       0.2418000000      1.0000000000
 D 1 
   1      47.9632764110      1.0000000000
 D 1 
   1      26.6462646728      1.0000000000
 D 1 
   1      14.8034803738      1.0000000000
 D 1 
   1       8.2241557632      1.0000000000
 D 1 
   1       4.5689754240      1.0000000000
 D 1 
   1       2.5383196800      1.0000000000
 D 1 
   1       1.4101776000      1.0000000000
 D 1 
   1       0.7834320000      1.0000000000
 D 1 
   1       0.4352400000      1.0000000000
 D 1 
   1       0.2418000000      1.0000000000
 F 1 
   1      10.2814958400      1.0000000000
 F 1 
   1       4.6734072000      1.0000000000
 F 1 
   1       2.1242760000      1.0000000000
 F 1 
   1       0.9655800000      1.0000000000
 F 1 
   1       0.4389000000      1.0000000000
 G 1 
   1       3.0782400000      1.0000000000
 G 1 
   1       1.3992000000      1.0000000000
 G 1 
   1       0.6360000000      1.0000000000
  end;

 # Auxiliary/JK basis set for element : O 
 NewAuxJKGTO O 
 S 1 
   1     891.2228962507      1.0000000000
 S 1 
   1     495.1238312504      1.0000000000
 S 1 
   1     275.0687951391      1.0000000000
 S 1 
   1     152.8159972995      1.0000000000
 S 1 
   1      84.8977762775      1.0000000000
 S 1 
   1      47.1654312653      1.0000000000
 S 1 
   1      26.2030173696      1.0000000000
 S 1 
   1      14.5572318720      1.0000000000
 S 1 
   1       8.0873510400      1.0000000000
 S 1 
   1       4.4929728000      1.0000000000
 S 1 
   1       2.4960960000      1.0000000000
 S 1 
   1       1.3867200000      1.0000000000
 S 1 
   1       0.7704000000      1.0000000000
 S 1 
   1       0.4280000000      1.0000000000
 P 1 
   1     152.8159972995      1.0000000000
 P 1 
   1      84.8977762775      1.0000000000
 P 1 
   1      47.1654312653      1.0000000000
 P 1 
   1      26.2030173696      1.0000000000
 P 1 
   1      14.5572318720      1.0000000000
 P 1 
   1       8.0873510400      1.0000000000
 P 1 
   1       4.4929728000      1.0000000000
 P 1 
   1       2.4960960000      1.0000000000
 P 1 
   1       1.3867200000      1.0000000000
 P 1 
   1       0.7704000000      1.0000000000
 P 1 
   1       0.4280000000      1.0000000000
 D 1 
   1      84.8977762775      1.0000000000
 D 1 
   1      47.1654312653      1.0000000000
 D 1 
   1      26.2030173696      1.0000000000
 D 1 
   1      14.5572318720      1.0000000000
 D 1 
   1       8.0873510400      1.0000000000
 D 1 
   1       4.4929728000      1.0000000000
 D 1 
   1       2.4960960000      1.0000000000
 D 1 
   1       1.3867200000      1.0000000000
 D 1 
   1       0.7704000000      1.0000000000
 D 1 
   1       0.4280000000      1.0000000000
 F 1 
   1      20.1225904000      1.0000000000
 F 1 
   1       9.1466320000      1.0000000000
 F 1 
   1       4.1575600000      1.0000000000
 F 1 
   1       1.8898000000      1.0000000000
 F 1 
   1       0.8590000000      1.0000000000
 G 1 
   1       6.2436000000      1.0000000000
 G 1 
   1       2.8380000000      1.0000000000
 G 1 
   1       1.2900000000      1.0000000000
  end;



           ************************************************************
           *        Program running with 6 parallel MPI-processes     *
           *              working on a common directory               *
           ************************************************************
------------------------------------------------------------------------------
                           ORCA GTO INTEGRAL CALCULATION
------------------------------------------------------------------------------

                         BASIS SET STATISTICS AND STARTUP INFO

 # of primitive gaussian shells          ...  136
 # of primitive gaussian functions       ...  264
 # of contracted shells                  ...   64
 # of contracted basis functions         ...  176
 Highest angular momentum                ...    3
 Maximum contraction depth               ...    8
 Integral package used                   ... LIBINT
 Integral threshhold            Thresh   ...  2.500e-11
 Primitive cut-off              TCut     ...  2.500e-12


------------------------------ INTEGRAL EVALUATION ----------------------------


 * One electron integrals 
 Pre-screening matrix                    ... done
 Shell pair data                         ... done (   0.001 sec)



           ************************************************************
           *        Program running with 6 parallel MPI-processes     *
           *              working on a common directory               *
           ************************************************************
-------------------------------------------------------------------------------
                                 ORCA SCF
-------------------------------------------------------------------------------

------------
SCF SETTINGS
------------
Hamiltonian:
 Ab initio Hamiltonian  Method          .... Hartree-Fock(GTOs)


General Settings:
 Integral files         IntName         .... acetic_acid
 Hartree-Fock type      HFTyp           .... UHF
 Total Charge           Charge          ....    0
 Multiplicity           Mult            ....    1
 Number of Electrons    NEL             ....   32
 Basis Dimension        Dim             ....  176
 Nuclear Repulsion      ENuc            ....    121.6960609414 Eh

Convergence Acceleration:
 DIIS                   CNVDIIS         .... on
   Start iteration      DIISMaxIt       ....    12
   Startup error        DIISStart       ....  0.200000
   # of expansion vecs  DIISMaxEq       ....     5
   Bias factor          DIISBfac        ....   1.050
   Max. coefficient     DIISMaxC        ....  10.000
 Newton-Raphson         CNVNR           .... off
 SOSCF                  CNVSOSCF        .... off
 Level Shifting         CNVShift        .... on
   Level shift para.    LevelShift      ....    0.2500
   Turn off err/grad.   ShiftErr        ....    0.0010
 Zerner damping         CNVZerner       .... off
 Static damping         CNVDamp         .... on
   Fraction old density DampFac         ....    0.7000
   Max. Damping (<1)    DampMax         ....    0.9800
   Min. Damping (>=0)   DampMin         ....    0.0000
   Turn off err/grad.   DampErr         ....    0.1000
 Fernandez-Rico         CNVRico         .... off

SCF Procedure:
 Maximum # iterations   MaxIter         ....   125
 SCF integral mode      SCFMode         .... Direct
   Integral package                     .... LIBINT
 Reset frequency        DirectResetFreq ....    20
 Integral Threshold     Thresh          ....  2.500e-11 Eh
 Primitive CutOff       TCut            ....  2.500e-12 Eh

Convergence Tolerance:
 Convergence Check Mode ConvCheckMode   .... Total+1el-Energy
 Convergence forced     ConvForced      .... 1
 Energy Change          TolE            ....  1.000e-08 Eh
 1-El. energy change                    ....  1.000e-05 Eh
 DIIS Error             TolErr          ....  5.000e-07


Diagonalization of the overlap matrix:
Smallest eigenvalue                        ... 8.414e-04
Time for diagonalization                   ...    0.009 sec
Threshold for overlap eigenvalues          ... 1.000e-08
Number of eigenvalues below threshold      ... 0
Time for construction of square roots      ...    0.005 sec
Total time needed                          ...    0.014 sec

-------------------
DFT GRID GENERATION
-------------------

General Integration Accuracy     IntAcc      ...  5.340
Radial Grid Type                 RadialGrid  ... Gauss-Chebyshev
Angular Grid (max. acc.)         AngularGrid ... Lebedev-590
Angular grid pruning method      GridPruning ... 3 (G Style)
Weight generation scheme         WeightScheme... Becke
Basis function cutoff            BFCut       ...    1.0000e-11
Integration weight cutoff        WCut        ...    1.0000e-14
Grids for H and He will be reduced by one unit

# of grid points (after initial pruning)     ... 110416 (   0.0 sec)
# of grid points (after weights+screening)   ... 105030 (   0.0 sec)
nearest neighbour list constructed           ...    0.0 sec
Grid point re-assignment to atoms done       ...    0.0 sec
Grid point division into batches done        ...    1.3 sec
Reduced shell lists constructed in    1.4 sec

Total number of grid points                  ...   105030
Total number of batches                      ...     1646
Average number of points per batch           ...       63
Average number of grid points per atom       ...    13129
Average number of shells per batch           ...    58.61 (91.58%)
Average number of basis functions per batch  ...   159.85 (90.82%)
Average number of large shells per batch     ...    52.08 (88.87%)
Average number of large basis fcns per batch ...   141.64 (88.61%)
Maximum spatial batch extension              ...  16.99, 15.51, 14.70 au
Average spatial batch extension              ...   0.17,  0.17,  0.16 au

Time for grid setup =    1.476 sec

------------------------------
INITIAL GUESS: MODEL POTENTIAL
------------------------------
Loading Hartree-Fock densities                     ... done
Calculating cut-offs                               ... done
Setting up the integral package                    ... done
Initializing the effective Hamiltonian             ... done
Starting the Coulomb interaction                   ... done (   0.0 sec)
Reading the grid                                   ... done
Mapping shells                                     ... done
Starting the XC term evaluation                    ... done (   0.1 sec)
Transforming the Hamiltonian                       ... done (   0.0 sec)
Diagonalizing the Hamiltonian                      ... done (   0.0 sec)
Back transforming the eigenvectors                 ... done (   0.0 sec)
Now organizing SCF variables                       ... done
                      ------------------
                      INITIAL GUESS DONE (   1.7 sec)
                      ------------------
--------------
SCF ITERATIONS
--------------
ITER       Energy         Delta-E        Max-DP      RMS-DP      [F,P]     Damp
               ***  Starting incremental Fock matrix formation  ***
  0   -227.6854009366   0.000000000000 0.01353347  0.00043219  0.3351306 0.7000
  1   -227.7636065040  -0.078205567454 0.00982393  0.00032581  0.2034752 0.7000
                               ***Turning on DIIS***
  2   -227.8092049910  -0.045598487010 0.00727772  0.00020230  0.1155757 0.7000
  3   -228.2357799908  -0.426574999737 0.01878693  0.00038227  0.0827938 0.0000
  4   -227.8794057672   0.356374223522 0.00346295  0.00008504  0.0085238 0.0000
  5   -227.9052790995  -0.025873332276 0.00199710  0.00004841  0.0043554 0.0000
  6   -227.9014212410   0.003857858480 0.00095453  0.00002528  0.0025415 0.0000
  7   -227.9026644148  -0.001243173742 0.00054456  0.00001330  0.0015601 0.0000
  8   -227.9037678920  -0.001103477271 0.00032442  0.00000920  0.0005454 0.0000
  9   -227.9032873607   0.000480531352 0.00007845  0.00000228  0.0002048 0.0000
 10   -227.9033865491  -0.000099188428 0.00001939  0.00000062  0.0000891 0.0000
 11   -227.9034999578  -0.000113408678 0.00000996  0.00000022  0.0000304 0.0000
 12   -227.9034593590   0.000040598801 0.00000182  0.00000005  0.0000077 0.0000
 13   -227.9034667141  -0.000007355074 0.00000056  0.00000002  0.0000025 0.0000
                            ***DIIS convergence achieved***

               *****************************************************
               *                     SUCCESS                       *
               *           SCF CONVERGED AFTER  14 CYCLES          *
               *****************************************************


----------------
TOTAL SCF ENERGY
----------------

Total Energy       :         -227.90346359 Eh           -6201.56853 eV

Components:
Nuclear Repulsion  :          121.69606094 Eh            3311.51817 eV
Electronic Energy  :         -349.59952453 Eh           -9513.08670 eV
One Electron Energy:         -552.87857078 Eh          -15044.59076 eV
Two Electron Energy:          203.27904625 Eh            5531.50406 eV

Virial components:
Potential Energy   :         -455.53343443 Eh          -12395.69494 eV
Kinetic Energy     :          227.62997085 Eh            6194.12641 eV
Virial Ratio       :            2.00120148


---------------
SCF CONVERGENCE
---------------

  Last Energy change         ...    3.1249e-06  Tolerance :   1.0000e-08
  Last MAX-Density change    ...    2.4640e-07  Tolerance :   1.0000e-07
  Last RMS-Density change    ...    7.6346e-09  Tolerance :   5.0000e-09
  Last DIIS Error            ...    8.3930e-07  Tolerance :   5.0000e-07

             **** THE GBW FILE WAS UPDATED (acetic_acid.gbw) ****
             **** DENSITY FILE WAS UPDATED (acetic_acid.scfp) ****
             **** ENERGY FILE WAS UPDATED (acetic_acid.en.tmp) ****
----------------------
UHF SPIN CONTAMINATION
----------------------

Expectation value of <S**2>     :    -0.000000
Ideal value S*(S+1) for S=0.0   :     0.000000
Deviation                       :    -0.000000

             **** THE GBW FILE WAS UPDATED (acetic_acid.gbw) ****
             **** DENSITY FILE WAS UPDATED (acetic_acid.scfp) ****
----------------
ORBITAL ENERGIES
----------------
                 SPIN UP ORBITALS
  NO   OCC          E(Eh)            E(eV) 
   0   1.0000     -20.609666      -560.8175 
   1   1.0000     -20.544322      -559.0394 
   2   1.0000     -11.383660      -309.7651 
   3   1.0000     -11.245071      -305.9939 
   4   1.0000      -1.469428       -39.9852 
   5   1.0000      -1.362761       -37.0826 
   6   1.0000      -1.026749       -27.9393 
   7   1.0000      -0.825628       -22.4665 
   8   1.0000      -0.704308       -19.1652 
   9   1.0000      -0.682773       -18.5792 
  10   1.0000      -0.652180       -17.7467 
  11   1.0000      -0.582327       -15.8459 
  12   1.0000      -0.572747       -15.5852 
  13   1.0000      -0.562712       -15.3122 
  14   1.0000      -0.482744       -13.1361 
  15   1.0000      -0.453164       -12.3312 
  16   0.0000       0.136274         3.7082 
  17   0.0000       0.166870         4.5408 
  18   0.0000       0.172256         4.6873 
  19   0.0000       0.212571         5.7843 
  20   0.0000       0.226863         6.1733 
  21   0.0000       0.286830         7.8050 
  22   0.0000       0.343218         9.3394 
  23   0.0000       0.390269        10.6198 
  24   0.0000       0.394956        10.7473 
  25   0.0000       0.403514        10.9802 
  26   0.0000       0.461457        12.5569 
  27   0.0000       0.501216        13.6388 
  28   0.0000       0.555133        15.1059 
  29   0.0000       0.591517        16.0960 
  30   0.0000       0.614189        16.7129 
  31   0.0000       0.617980        16.8161 
  32   0.0000       0.644543        17.5389 
  33   0.0000       0.666288        18.1306 
  34   0.0000       0.704871        19.1805 
  35   0.0000       0.720325        19.6010 
  36   0.0000       0.729970        19.8635 
  37   0.0000       0.792569        21.5669 
  38   0.0000       0.799617        21.7587 
  39   0.0000       0.816507        22.2183 
  40   0.0000       0.892046        24.2738 
  41   0.0000       0.906006        24.6537 
  42   0.0000       0.911842        24.8125 
  43   0.0000       0.931261        25.3409 
  44   0.0000       0.985925        26.8284 
  45   0.0000       1.031405        28.0659 
  46   0.0000       1.063122        28.9290 
  47   0.0000       1.104898        30.0658 
  48   0.0000       1.163480        31.6599 
  49   0.0000       1.178975        32.0815 
  50   0.0000       1.245061        33.8798 
  51   0.0000       1.266506        34.4634 
  52   0.0000       1.276801        34.7435 
  53   0.0000       1.327718        36.1290 
  54   0.0000       1.359020        36.9808 
  55   0.0000       1.411031        38.3961 
  56   0.0000       1.434451        39.0334 
  57   0.0000       1.490029        40.5457 
  58   0.0000       1.509969        41.0884 
  59   0.0000       1.534063        41.7440 
  60   0.0000       1.557669        42.3863 
  61   0.0000       1.586784        43.1786 
  62   0.0000       1.677758        45.6541 
  63   0.0000       1.722151        46.8621 
  64   0.0000       1.768489        48.1230 
  65   0.0000       1.829151        49.7737 
  66   0.0000       1.934214        52.6326 
  67   0.0000       1.987168        54.0736 
  68   0.0000       2.013747        54.7968 
  69   0.0000       2.192892        59.6716 
  70   0.0000       2.219480        60.3951 
  71   0.0000       2.282054        62.0979 
  72   0.0000       2.306797        62.7711 
  73   0.0000       2.353158        64.0327 
  74   0.0000       2.427595        66.0582 
  75   0.0000       2.449545        66.6555 
  76   0.0000       2.504516        68.1513 
  77   0.0000       2.643661        71.9377 
  78   0.0000       2.644731        71.9668 
  79   0.0000       2.658504        72.3416 
  80   0.0000       2.793901        76.0259 
  81   0.0000       2.831098        77.0381 
  82   0.0000       2.866800        78.0096 
  83   0.0000       2.878294        78.3224 
  84   0.0000       2.963777        80.6485 
  85   0.0000       3.070331        83.5480 
  86   0.0000       3.079468        83.7966 
  87   0.0000       3.085280        83.9547 
  88   0.0000       3.179945        86.5307 
  89   0.0000       3.194240        86.9197 
  90   0.0000       3.262908        88.7882 
  91   0.0000       3.263944        88.8164 
  92   0.0000       3.271504        89.0222 
  93   0.0000       3.285892        89.4137 
  94   0.0000       3.349026        91.1316 
  95   0.0000       3.399800        92.5133 
  96   0.0000       3.434791        93.4654 
  97   0.0000       3.480890        94.7198 
  98   0.0000       3.495497        95.1173 
  99   0.0000       3.590312        97.6974 
 100   0.0000       3.594143        97.8016 
 101   0.0000       3.603353        98.0522 
 102   0.0000       3.628523        98.7371 
 103   0.0000       3.649826        99.3168 
 104   0.0000       3.691131       100.4408 
 105   0.0000       3.730903       101.5230 
 106   0.0000       3.736505       101.6755 
 107   0.0000       3.777486       102.7906 
 108   0.0000       3.793626       103.2298 
 109   0.0000       3.882889       105.6588 
 110   0.0000       3.946069       107.3780 
 111   0.0000       3.972315       108.0922 
 112   0.0000       4.037512       109.8663 
 113   0.0000       4.083145       111.1080 
 114   0.0000       4.090325       111.3034 
 115   0.0000       4.145074       112.7932 
 116   0.0000       4.149312       112.9085 
 117   0.0000       4.176038       113.6358 
 118   0.0000       4.202411       114.3534 
 119   0.0000       4.260133       115.9241 
 120   0.0000       4.309697       117.2728 
 121   0.0000       4.356788       118.5542 
 122   0.0000       4.360562       118.6569 
 123   0.0000       4.405022       119.8667 
 124   0.0000       4.532381       123.3324 
 125   0.0000       4.533441       123.3612 
 126   0.0000       4.569257       124.3358 
 127   0.0000       4.584042       124.7381 
 128   0.0000       4.613704       125.5453 
 129   0.0000       4.731147       128.7411 
 130   0.0000       4.754542       129.3777 
 131   0.0000       4.834556       131.5550 
 132   0.0000       4.895753       133.2202 
 133   0.0000       5.051407       137.4558 
 134   0.0000       5.125047       139.4596 
 135   0.0000       5.219659       142.0342 
 136   0.0000       5.238914       142.5581 
 137   0.0000       5.341218       145.3419 
 138   0.0000       5.404505       147.0641 
 139   0.0000       5.467523       148.7789 
 140   0.0000       5.482558       149.1880 
 141   0.0000       5.571446       151.6067 
 142   0.0000       5.589049       152.0858 
 143   0.0000       5.601855       152.4342 
 144   0.0000       5.617217       152.8522 
 145   0.0000       5.648148       153.6939 
 146   0.0000       5.673104       154.3730 
 147   0.0000       5.729600       155.9104 
 148   0.0000       5.848531       159.1466 
 149   0.0000       6.003777       163.3711 
 150   0.0000       6.048079       164.5766 
 151   0.0000       6.170164       167.8987 
 152   0.0000       6.194102       168.5501 
 153   0.0000       6.233097       169.6112 
 154   0.0000       6.441471       175.2813 
 155   0.0000       6.585089       179.1894 
 156   0.0000       6.720823       182.8829 
 157   0.0000       6.724839       182.9922 
 158   0.0000       6.854377       186.5171 
 159   0.0000       6.926111       188.4691 
 160   0.0000       6.973010       189.7452 
 161   0.0000       6.981068       189.9645 
 162   0.0000       7.061601       192.1559 
 163   0.0000       7.176391       195.2795 
 164   0.0000       7.245158       197.1508 
 165   0.0000       7.259701       197.5465 
 166   0.0000       7.382323       200.8832 
 167   0.0000       7.405710       201.5196 
 168   0.0000       7.564630       205.8440 
 169   0.0000       7.685772       209.1405 
 170   0.0000       7.782020       211.7595 
 171   0.0000       7.943167       216.1446 
 172   0.0000       9.710459       264.2350 
 173   0.0000      12.870878       350.2344 
 174   0.0000      13.806962       375.7065 
 175   0.0000      14.121600       384.2683 

                 SPIN DOWN ORBITALS
  NO   OCC          E(Eh)            E(eV) 
   0   1.0000     -20.609666      -560.8175 
   1   1.0000     -20.544322      -559.0394 
   2   1.0000     -11.383660      -309.7651 
   3   1.0000     -11.245071      -305.9939 
   4   1.0000      -1.469428       -39.9852 
   5   1.0000      -1.362761       -37.0826 
   6   1.0000      -1.026749       -27.9393 
   7   1.0000      -0.825628       -22.4665 
   8   1.0000      -0.704308       -19.1652 
   9   1.0000      -0.682773       -18.5792 
  10   1.0000      -0.652180       -17.7467 
  11   1.0000      -0.582327       -15.8459 
  12   1.0000      -0.572747       -15.5852 
  13   1.0000      -0.562712       -15.3122 
  14   1.0000      -0.482744       -13.1361 
  15   1.0000      -0.453164       -12.3312 
  16   0.0000       0.136274         3.7082 
  17   0.0000       0.166870         4.5408 
  18   0.0000       0.172256         4.6873 
  19   0.0000       0.212571         5.7843 
  20   0.0000       0.226863         6.1733 
  21   0.0000       0.286830         7.8050 
  22   0.0000       0.343218         9.3394 
  23   0.0000       0.390269        10.6198 
  24   0.0000       0.394956        10.7473 
  25   0.0000       0.403514        10.9802 
  26   0.0000       0.461457        12.5569 
  27   0.0000       0.501216        13.6388 
  28   0.0000       0.555133        15.1059 
  29   0.0000       0.591517        16.0960 
  30   0.0000       0.614189        16.7129 
  31   0.0000       0.617980        16.8161 
  32   0.0000       0.644543        17.5389 
  33   0.0000       0.666288        18.1306 
  34   0.0000       0.704871        19.1805 
  35   0.0000       0.720325        19.6010 
  36   0.0000       0.729970        19.8635 
  37   0.0000       0.792569        21.5669 
  38   0.0000       0.799617        21.7587 
  39   0.0000       0.816507        22.2183 
  40   0.0000       0.892046        24.2738 
  41   0.0000       0.906006        24.6537 
  42   0.0000       0.911842        24.8125 
  43   0.0000       0.931261        25.3409 
  44   0.0000       0.985925        26.8284 
  45   0.0000       1.031405        28.0659 
  46   0.0000       1.063122        28.9290 
  47   0.0000       1.104898        30.0658 
  48   0.0000       1.163480        31.6599 
  49   0.0000       1.178975        32.0815 
  50   0.0000       1.245061        33.8798 
  51   0.0000       1.266506        34.4634 
  52   0.0000       1.276801        34.7435 
  53   0.0000       1.327718        36.1290 
  54   0.0000       1.359020        36.9808 
  55   0.0000       1.411031        38.3961 
  56   0.0000       1.434451        39.0334 
  57   0.0000       1.490029        40.5457 
  58   0.0000       1.509969        41.0884 
  59   0.0000       1.534063        41.7440 
  60   0.0000       1.557669        42.3863 
  61   0.0000       1.586784        43.1786 
  62   0.0000       1.677758        45.6541 
  63   0.0000       1.722151        46.8621 
  64   0.0000       1.768489        48.1230 
  65   0.0000       1.829151        49.7737 
  66   0.0000       1.934214        52.6326 
  67   0.0000       1.987168        54.0736 
  68   0.0000       2.013747        54.7968 
  69   0.0000       2.192892        59.6716 
  70   0.0000       2.219480        60.3951 
  71   0.0000       2.282054        62.0979 
  72   0.0000       2.306797        62.7711 
  73   0.0000       2.353158        64.0327 
  74   0.0000       2.427595        66.0582 
  75   0.0000       2.449545        66.6555 
  76   0.0000       2.504516        68.1513 
  77   0.0000       2.643661        71.9377 
  78   0.0000       2.644731        71.9668 
  79   0.0000       2.658504        72.3416 
  80   0.0000       2.793901        76.0259 
  81   0.0000       2.831098        77.0381 
  82   0.0000       2.866800        78.0096 
  83   0.0000       2.878294        78.3224 
  84   0.0000       2.963777        80.6485 
  85   0.0000       3.070331        83.5480 
  86   0.0000       3.079468        83.7966 
  87   0.0000       3.085280        83.9547 
  88   0.0000       3.179945        86.5307 
  89   0.0000       3.194240        86.9197 
  90   0.0000       3.262908        88.7882 
  91   0.0000       3.263944        88.8164 
  92   0.0000       3.271504        89.0222 
  93   0.0000       3.285892        89.4137 
  94   0.0000       3.349026        91.1316 
  95   0.0000       3.399800        92.5133 
  96   0.0000       3.434791        93.4654 
  97   0.0000       3.480890        94.7198 
  98   0.0000       3.495497        95.1173 
  99   0.0000       3.590312        97.6974 
 100   0.0000       3.594143        97.8016 
 101   0.0000       3.603353        98.0522 
 102   0.0000       3.628523        98.7371 
 103   0.0000       3.649826        99.3168 
 104   0.0000       3.691131       100.4408 
 105   0.0000       3.730903       101.5230 
 106   0.0000       3.736505       101.6755 
 107   0.0000       3.777486       102.7906 
 108   0.0000       3.793626       103.2298 
 109   0.0000       3.882889       105.6588 
 110   0.0000       3.946069       107.3780 
 111   0.0000       3.972315       108.0922 
 112   0.0000       4.037512       109.8663 
 113   0.0000       4.083145       111.1080 
 114   0.0000       4.090325       111.3034 
 115   0.0000       4.145074       112.7932 
 116   0.0000       4.149312       112.9085 
 117   0.0000       4.176038       113.6358 
 118   0.0000       4.202411       114.3534 
 119   0.0000       4.260133       115.9241 
 120   0.0000       4.309697       117.2728 
 121   0.0000       4.356788       118.5542 
 122   0.0000       4.360562       118.6569 
 123   0.0000       4.405022       119.8667 
 124   0.0000       4.532381       123.3324 
 125   0.0000       4.533441       123.3612 
 126   0.0000       4.569257       124.3358 
 127   0.0000       4.584042       124.7381 
 128   0.0000       4.613704       125.5453 
 129   0.0000       4.731147       128.7411 
 130   0.0000       4.754542       129.3777 
 131   0.0000       4.834556       131.5550 
 132   0.0000       4.895753       133.2202 
 133   0.0000       5.051407       137.4558 
 134   0.0000       5.125047       139.4596 
 135   0.0000       5.219659       142.0342 
 136   0.0000       5.238914       142.5581 
 137   0.0000       5.341218       145.3419 
 138   0.0000       5.404505       147.0641 
 139   0.0000       5.467523       148.7789 
 140   0.0000       5.482558       149.1880 
 141   0.0000       5.571446       151.6067 
 142   0.0000       5.589049       152.0858 
 143   0.0000       5.601855       152.4342 
 144   0.0000       5.617217       152.8522 
 145   0.0000       5.648148       153.6939 
 146   0.0000       5.673104       154.3730 
 147   0.0000       5.729600       155.9104 
 148   0.0000       5.848531       159.1466 
 149   0.0000       6.003777       163.3711 
 150   0.0000       6.048079       164.5766 
 151   0.0000       6.170164       167.8987 
 152   0.0000       6.194102       168.5501 
 153   0.0000       6.233097       169.6112 
 154   0.0000       6.441471       175.2813 
 155   0.0000       6.585089       179.1894 
 156   0.0000       6.720823       182.8829 
 157   0.0000       6.724839       182.9922 
 158   0.0000       6.854377       186.5171 
 159   0.0000       6.926111       188.4691 
 160   0.0000       6.973010       189.7452 
 161   0.0000       6.981068       189.9645 
 162   0.0000       7.061601       192.1559 
 163   0.0000       7.176391       195.2795 
 164   0.0000       7.245158       197.1508 
 165   0.0000       7.259701       197.5465 
 166   0.0000       7.382323       200.8832 
 167   0.0000       7.405710       201.5196 
 168   0.0000       7.564630       205.8440 
 169   0.0000       7.685772       209.1405 
 170   0.0000       7.782020       211.7595 
 171   0.0000       7.943167       216.1446 
 172   0.0000       9.710459       264.2350 
 173   0.0000      12.870878       350.2344 
 174   0.0000      13.806962       375.7065 
 175   0.0000      14.121600       384.2683 
------------------
MOLECULAR ORBITALS
------------------
                      0         1         2         3         4         5   
                 -20.60967 -20.54432 -11.38366 -11.24507  -1.46943  -1.36276
                   1.00000   1.00000   1.00000   1.00000   1.00000   1.00000
                  --------  --------  --------  --------  --------  --------
  0C   1s        -0.000103  0.000163 -0.002203 -0.978529 -0.002411  0.001308
  0C   2s        -0.000195  0.000311  0.000161 -0.001901  0.033889 -0.010025
  0C   3s        -0.000010 -0.000042 -0.000287 -0.041441  0.008319 -0.002739
  0C   4s         0.000556 -0.000161  0.002660 -0.007645 -0.008152 -0.012413
  0C   1pz       -0.000000 -0.000000  0.000000  0.000000 -0.000000 -0.000000
  0C   1px       -0.000018 -0.000006  0.000113  0.000033 -0.005654  0.007002
  0C   1py        0.000015 -0.000029 -0.000179 -0.000301  0.011255 -0.000979
  0C   2pz       -0.000000 -0.000000 -0.000000 -0.000000  0.000000 -0.000000
  0C   2px        0.000471 -0.000111 -0.000078 -0.000305 -0.002071  0.005584
  0C   2py       -0.000307  0.000523 -0.000191  0.000704  0.007271  0.008660
  0C   3pz       -0.000000  0.000000 -0.000000  0.000000  0.000000  0.000000
  0C   3px       -0.000092 -0.000223 -0.000847  0.000100  0.001413 -0.000453
  0C   3py       -0.000017 -0.000025  0.000907 -0.000430 -0.004230 -0.000248
  0C   1dz2       0.000056 -0.000050 -0.000053 -0.000060 -0.000920  0.000046
  0C   1dxz      -0.000000 -0.000000  0.000000  0.000000  0.000000  0.000000
  0C   1dyz       0.000000 -0.000000 -0.000000 -0.000000 -0.000000 -0.000000
  0C   1dx2y2     0.000016 -0.000025 -0.000035 -0.000088 -0.000807 -0.001344
  0C   1dxy      -0.000001 -0.000035 -0.000015 -0.000108 -0.000375  0.000429
  0C   2dz2       0.000054  0.000286 -0.000088 -0.000165  0.004474 -0.001303
  0C   2dxz      -0.000000  0.000000 -0.000000 -0.000000  0.000000  0.000000
  0C   2dyz       0.000000  0.000000  0.000000 -0.000000 -0.000000 -0.000000
  0C   2dx2y2     0.000090  0.000030  0.000006 -0.000127  0.002582 -0.001105
  0C   2dxy       0.000142 -0.000447 -0.000448 -0.000240 -0.000417 -0.004399
  0C   1f0       -0.000000  0.000000 -0.000000 -0.000000  0.000000  0.000000
  0C   1f+1       0.000008  0.000004  0.000078 -0.000715  0.000442 -0.000464
  0C   1f-1      -0.000011  0.000005 -0.000142 -0.000034  0.000065 -0.000706
  0C   1f+2      -0.000000  0.000000 -0.000000  0.000000  0.000000  0.000000
  0C   1f-2      -0.000000  0.000000  0.000000 -0.000000 -0.000000  0.000000
  0C   1f+3       0.000019 -0.000047 -0.000333  0.000480  0.001105 -0.000527
  0C   1f-3       0.000051 -0.000036 -0.000097 -0.000181  0.000667  0.000533
  1C   1s        -0.000396  0.000578 -0.978488  0.002469 -0.017955  0.009481
  1C   2s        -0.000845  0.001295 -0.000958 -0.000172  0.249049 -0.102001
  1C   3s         0.000194  0.000116 -0.040637 -0.000130  0.053762 -0.022584
  1C   4s         0.000717 -0.000718 -0.004118  0.001955  0.054891 -0.026508
  1C   1pz       -0.000000  0.000000  0.000000 -0.000000  0.000001 -0.000000
  1C   1px        0.000015 -0.000215 -0.000514 -0.000116 -0.024123  0.122111
  1C   1py        0.000033  0.000014 -0.000907  0.000227  0.046508  0.030144
  1C   2pz       -0.000000  0.000000 -0.000000  0.000000  0.000001 -0.000000
  1C   2px       -0.000959 -0.002587  0.001336 -0.000241 -0.013741  0.111099
  1C   2py       -0.001340  0.000307  0.000930  0.000161  0.051466  0.034282
  1C   3pz        0.000000 -0.000000  0.000000  0.000000 -0.000000 -0.000000
  1C   3px        0.000570  0.001032 -0.000793  0.000235 -0.003731  0.012780
  1C   3py        0.000723 -0.000143  0.001988 -0.000895  0.002030 -0.004322
  1C   1dz2       0.000187 -0.000213  0.000732 -0.000060 -0.013690  0.003843
  1C   1dxz      -0.000000 -0.000000  0.000000  0.000000 -0.000000  0.000000
  1C   1dyz      -0.000000  0.000000 -0.000000 -0.000000  0.000000  0.000000
  1C   1dx2y2     0.000105  0.000374 -0.000349  0.000026  0.005864 -0.015810
  1C   1dxy      -0.000264 -0.000087  0.000024  0.000002  0.005793  0.010328
  1C   2dz2       0.000118 -0.000243  0.000111 -0.000064 -0.016937  0.006444
  1C   2dxz      -0.000000 -0.000000  0.000000 -0.000000 -0.000000  0.000000
  1C   2dyz      -0.000000 -0.000000  0.000000  0.000000  0.000000  0.000000
  1C   2dx2y2     0.000192  0.001376 -0.000205 -0.000124  0.006109 -0.012000
  1C   2dxy      -0.001030 -0.000247  0.000273 -0.000186  0.010298  0.013004
  1C   1f0        0.000000 -0.000000  0.000000 -0.000000 -0.000000  0.000000
  1C   1f+1       0.000137  0.000144 -0.000159 -0.000049  0.000029 -0.002709
  1C   1f-1       0.000177  0.000005 -0.000026  0.000141 -0.002173 -0.000802
  1C   1f+2       0.000000  0.000000 -0.000000 -0.000000  0.000000 -0.000000
  1C   1f-2      -0.000000 -0.000000  0.000000 -0.000000  0.000000  0.000000
  1C   1f+3      -0.000133 -0.000029 -0.000802  0.000316  0.011214 -0.004244
  1C   1f-3      -0.000045 -0.000003  0.000176  0.000020 -0.003143  0.001340
  2H   1s         0.000042  0.000002 -0.000003 -0.000185  0.002861 -0.000133
  2H   2s        -0.000403 -0.000198 -0.000166  0.001135  0.001498  0.003746
  2H   3s        -0.000097  0.000050  0.000253  0.000852  0.001831  0.001753
  2H   1pz        0.000011  0.000010  0.000032 -0.000271 -0.000203 -0.000087
  2H   1px       -0.000010 -0.000001 -0.000008 -0.000199 -0.000093 -0.000097
  2H   1py        0.000015  0.000003  0.000017  0.000019  0.000196  0.000127
  2H   2pz        0.000157 -0.000030  0.000042 -0.000383  0.000036 -0.001041
  2H   2px        0.000131  0.000144  0.000021 -0.000293  0.000524 -0.000841
  2H   2py       -0.000084 -0.000033  0.000151  0.000063  0.001262  0.000900
  2H   1dz2      -0.000014  0.000023 -0.000036  0.000137 -0.000007 -0.000029
  2H   1dxz      -0.000023 -0.000007  0.000002  0.000237  0.000003  0.000187
  2H   1dyz       0.000002 -0.000001 -0.000033 -0.000036 -0.000272 -0.000234
  2H   1dx2y2     0.000004 -0.000008 -0.000024  0.000094 -0.000181 -0.000084
  2H   1dxy       0.000003  0.000025 -0.000018 -0.000021 -0.000312  0.000135
  3H   1s         0.000042  0.000002 -0.000003 -0.000185  0.002861 -0.000133
  3H   2s        -0.000403 -0.000198 -0.000166  0.001135  0.001498  0.003746
  3H   3s        -0.000097  0.000050  0.000253  0.000852  0.001831  0.001753
  3H   1pz       -0.000011 -0.000010 -0.000032  0.000271  0.000203  0.000087
  3H   1px       -0.000010 -0.000001 -0.000008 -0.000199 -0.000093 -0.000097
  3H   1py        0.000015  0.000003  0.000017  0.000019  0.000196  0.000127
  3H   2pz       -0.000157  0.000030 -0.000042  0.000383 -0.000036  0.001041
  3H   2px        0.000131  0.000144  0.000021 -0.000293  0.000524 -0.000841
  3H   2py       -0.000084 -0.000033  0.000151  0.000063  0.001261  0.000900
  3H   1dz2      -0.000014  0.000023 -0.000036  0.000137 -0.000007 -0.000029
  3H   1dxz       0.000023  0.000007 -0.000002 -0.000237 -0.000003 -0.000187
  3H   1dyz      -0.000002  0.000001  0.000033  0.000036  0.000272  0.000234
  3H   1dx2y2     0.000004 -0.000008 -0.000024  0.000094 -0.000181 -0.000084
  3H   1dxy       0.000003  0.000025 -0.000018 -0.000021 -0.000312  0.000135
  4H   1s        -0.000039  0.000007  0.000050 -0.000150  0.003485 -0.003588
  4H   2s         0.000046  0.000587 -0.000255  0.001091  0.004457  0.004092
  4H   3s         0.000061 -0.000037  0.000009  0.000696 -0.001219 -0.000594
  4H   1pz       -0.000000  0.000000 -0.000000 -0.000000  0.000000  0.000000
  4H   1px        0.000022 -0.000004 -0.000069  0.000231  0.000166 -0.000059
  4H   1py       -0.000030  0.000010  0.000030  0.000257  0.000555 -0.000537
  4H   2pz        0.000000  0.000000  0.000000 -0.000000 -0.000000 -0.000000
  4H   2px       -0.000014  0.000130 -0.000133  0.000335  0.001216  0.002842
  4H   2py        0.000170  0.000198 -0.000078  0.000320 -0.001234  0.001570
  4H   1dz2      -0.000035 -0.000022  0.000031 -0.000127 -0.000035 -0.000024
  4H   1dxz       0.000000  0.000000  0.000000 -0.000000 -0.000000 -0.000000
  4H   1dyz       0.000000  0.000000 -0.000000 -0.000000  0.000000 -0.000000
  4H   1dx2y2    -0.000013 -0.000017 -0.000064 -0.000013  0.000456  0.000299
  4H   1dxy       0.000007 -0.000009 -0.000053  0.000239 -0.000058  0.000310
  5O   1s         0.000097  0.975150  0.000594 -0.000041 -0.007212  0.008704
  5O   2s        -0.000315 -0.001917  0.000271 -0.000067  0.250700 -0.388908
  5O   3s         0.000054  0.043648 -0.000198 -0.000010  0.064499 -0.100704
  5O   4s        -0.000008  0.002363  0.000137 -0.000208  0.103151 -0.199231
  5O   1pz       -0.000000 -0.000000  0.000000 -0.000000 -0.000000  0.000000
  5O   1px        0.000010  0.001939 -0.000359  0.000002  0.050510 -0.059263
  5O   1py        0.000015 -0.000118  0.000042  0.000004  0.001011  0.011541
  5O   2pz        0.000000  0.000000 -0.000000  0.000000 -0.000000  0.000001
  5O   2px       -0.000133 -0.002175  0.000282 -0.000101  0.058812 -0.076768
  5O   2py       -0.000054  0.000166 -0.000022 -0.000051  0.002796  0.014807
  5O   3pz       -0.000000  0.000000  0.000000  0.000000  0.000000  0.000000
  5O   3px       -0.000103 -0.000001 -0.000116 -0.000045  0.005327 -0.011879
  5O   3py       -0.000341  0.000026 -0.000385  0.000022  0.002894  0.004618
  5O   1dz2       0.000024 -0.000155 -0.000034  0.000013 -0.002760  0.003345
  5O   1dxz       0.000000 -0.000000 -0.000000  0.000000 -0.000000  0.000000
  5O   1dyz      -0.000000  0.000000  0.000000  0.000000  0.000000 -0.000000
  5O   1dx2y2     0.000003  0.000095  0.000010 -0.000007  0.004321 -0.005552
  5O   1dxy       0.000004 -0.000015  0.000011  0.000015 -0.000102  0.001729
  5O   2dz2      -0.000051  0.000257 -0.000062 -0.000023 -0.004047  0.007846
  5O   2dxz       0.000000  0.000000 -0.000000  0.000000 -0.000000  0.000000
  5O   2dyz       0.000000 -0.000000  0.000000 -0.000000 -0.000000 -0.000000
  5O   2dx2y2    -0.000049 -0.000650  0.000174 -0.000073  0.007592 -0.012242
  5O   2dxy      -0.000061  0.000113 -0.000158 -0.000016  0.000405  0.003777
  5O   1f0       -0.000000 -0.000000 -0.000000  0.000000  0.000000 -0.000000
  5O   1f+1      -0.000010  0.000071  0.000073 -0.000013 -0.001766  0.002211
  5O   1f-1      -0.000011 -0.000008 -0.000004 -0.000009  0.000018 -0.000291
  5O   1f+2       0.000000  0.000000  0.000000  0.000000 -0.000000  0.000000
  5O   1f-2       0.000000 -0.000000 -0.000000 -0.000000  0.000000 -0.000000
  5O   1f+3       0.000005  0.000066  0.000054  0.000036 -0.002170  0.003134
  5O   1f-3       0.000001 -0.000015  0.000009 -0.000026 -0.000062 -0.001574
  6O   1s        -0.975430  0.000451  0.000173 -0.000031 -0.006192 -0.003625
  6O   2s         0.001339  0.000298 -0.000089 -0.000042  0.378020  0.320141
  6O   3s        -0.043690 -0.000047 -0.000166  0.000002  0.097386  0.082040
  6O   4s        -0.002156  0.000526 -0.001605 -0.000024  0.177566  0.190651
  6O   1pz        0.000000  0.000000  0.000000 -0.000000 -0.000000 -0.000000
  6O   1px        0.001777  0.000025  0.000184 -0.000015 -0.042915 -0.018049
  6O   1py        0.000073  0.000024  0.000259  0.000007 -0.014716  0.002040
  6O   2pz       -0.000000 -0.000000 -0.000000  0.000000 -0.000000 -0.000000
  6O   2px       -0.001564 -0.000201  0.000128  0.000086 -0.057811 -0.031254
  6O   2py       -0.000509 -0.000142  0.000083 -0.000081 -0.016487 -0.003418
  6O   3pz        0.000000  0.000000  0.000000 -0.000000  0.000000 -0.000000
  6O   3px        0.000051 -0.000517  0.000867  0.000195 -0.005253 -0.006051
  6O   3py        0.000358  0.000265 -0.000137 -0.000266 -0.003439 -0.005877
  6O   1dz2       0.000057 -0.000016 -0.000028  0.000004 -0.003514 -0.002178
  6O   1dxz       0.000000 -0.000000 -0.000000 -0.000000  0.000000  0.000000
  6O   1dyz       0.000000  0.000000  0.000000 -0.000000  0.000000  0.000000
  6O   1dx2y2    -0.000008 -0.000006 -0.000003  0.000015 -0.000843 -0.001380
  6O   1dxy       0.000025 -0.000005 -0.000064  0.000005  0.001394 -0.000214
  6O   2dz2      -0.000447 -0.000013  0.000072  0.000011 -0.005501 -0.006371
  6O   2dxz       0.000000  0.000000  0.000000 -0.000000  0.000000  0.000000
  6O   2dyz       0.000000 -0.000000 -0.000000 -0.000000  0.000000  0.000000
  6O   2dx2y2    -0.000168  0.000011  0.000069 -0.000106  0.000207 -0.003725
  6O   2dxy       0.000137  0.000114  0.000347 -0.000055  0.003018  0.004197
  6O   1f0        0.000000  0.000000  0.000000 -0.000000  0.000000  0.000000
  6O   1f+1       0.000059 -0.000021  0.000059 -0.000003  0.001750  0.001112
  6O   1f-1       0.000020 -0.000004  0.000098  0.000003  0.000699  0.000611
  6O   1f+2       0.000000 -0.000000 -0.000000 -0.000000  0.000000  0.000000
  6O   1f-2      -0.000000 -0.000000 -0.000000  0.000000 -0.000000 -0.000000
  6O   1f+3      -0.000063 -0.000028 -0.000127  0.000016 -0.002354 -0.002929
  6O   1f-3       0.000004  0.000005  0.000084 -0.000037  0.000649  0.000295
  7H   1s        -0.000438  0.000066  0.000142 -0.000036  0.060386  0.052751
  7H   2s        -0.000765 -0.000402  0.000768  0.000277  0.052116  0.046125
  7H   3s        -0.000005 -0.000015 -0.000115  0.000130  0.001079  0.004551
  7H   1pz        0.000000  0.000000 -0.000000  0.000000 -0.000000 -0.000000
  7H   1px       -0.000091  0.000001 -0.000003  0.000004  0.004420  0.004635
  7H   1py        0.000188 -0.000022 -0.000090 -0.000005 -0.008202 -0.006749
  7H   2pz        0.000000 -0.000000  0.000000 -0.000000 -0.000000 -0.000000
  7H   2px       -0.000238 -0.000117  0.000234  0.000029  0.005241  0.004734
  7H   2py        0.000374  0.000097 -0.000078 -0.000078 -0.008868 -0.007225
  7H   1dz2      -0.000047  0.000018  0.000074 -0.000010 -0.000476 -0.000567
  7H   1dxz      -0.000000  0.000000 -0.000000 -0.000000 -0.000000 -0.000000
  7H   1dyz      -0.000000 -0.000000 -0.000000  0.000000  0.000000  0.000000
  7H   1dx2y2     0.000022  0.000003  0.000049 -0.000010 -0.000549 -0.000774
  7H   1dxy      -0.000135  0.000015 -0.000060 -0.000018 -0.001567 -0.001507
                      6         7         8         9        10        11   
                  -1.02675  -0.82563  -0.70431  -0.68277  -0.65218  -0.58233
                   1.00000   1.00000   1.00000   1.00000   1.00000   1.00000
                  --------  --------  --------  --------  --------  --------
  0C   1s         0.013651  0.004727  0.000452  0.002049 -0.000000 -0.001422
  0C   2s        -0.404300 -0.169412 -0.001130 -0.074086  0.000000 -0.010687
  0C   3s        -0.078106 -0.033022  0.000138 -0.015341 -0.000000 -0.000554
  0C   4s        -0.150686 -0.117440 -0.018073 -0.086091  0.000000 -0.016041
  0C   1pz        0.000000 -0.000000 -0.000000 -0.000001 -0.123233  0.000001
  0C   1px        0.010000 -0.015169 -0.048558 -0.102037  0.000000  0.139625
  0C   1py       -0.024552  0.068186 -0.004920  0.085604 -0.000000 -0.029107
  0C   2pz        0.000000 -0.000000 -0.000000 -0.000001 -0.150161  0.000001
  0C   2px        0.012754 -0.018016 -0.061331 -0.122603  0.000000  0.186194
  0C   2py       -0.030369  0.079601 -0.009790  0.103605 -0.000000 -0.047789
  0C   3pz        0.000000  0.000000  0.000000 -0.000000 -0.056256  0.000000
  0C   3px        0.000447 -0.001007 -0.029565 -0.043198  0.000000  0.080434
  0C   3py        0.001813  0.012230 -0.032930  0.034321  0.000000 -0.016519
  0C   1dz2       0.002184 -0.002769 -0.002731 -0.008252 -0.000000  0.010742
  0C   1dxz      -0.000000  0.000000 -0.000000  0.000000 -0.006530  0.000000
  0C   1dyz       0.000000 -0.000000 -0.000000 -0.000000 -0.003023  0.000000
  0C   1dx2y2     0.001992 -0.004874 -0.000093 -0.004852  0.000000  0.007374
  0C   1dxy       0.002833 -0.004839 -0.000840 -0.008179 -0.000000  0.001636
  0C   2dz2       0.001266 -0.002597 -0.003208 -0.009097  0.000000  0.017367
  0C   2dxz      -0.000000  0.000000 -0.000000  0.000000 -0.002665 -0.000000
  0C   2dyz       0.000000 -0.000000 -0.000000 -0.000000 -0.008003  0.000000
  0C   2dx2y2     0.001184 -0.004288  0.000866 -0.006806  0.000000  0.012539
  0C   2dxy       0.004093 -0.006021  0.004806 -0.010409 -0.000000  0.006120
  0C   1f0       -0.000000 -0.000000  0.000000  0.000000  0.001499 -0.000000
  0C   1f+1      -0.007003 -0.002951  0.000242 -0.000456 -0.000000  0.000251
  0C   1f-1       0.002218 -0.000797  0.000535 -0.001840  0.000000  0.001821
  0C   1f+2      -0.000000  0.000000  0.000000  0.000000  0.001017 -0.000000
  0C   1f-2      -0.000000 -0.000000 -0.000000  0.000000  0.001728 -0.000000
  0C   1f+3       0.007120  0.001898  0.000753 -0.001905  0.000000  0.003331
  0C   1f-3      -0.001975  0.001020 -0.001015 -0.002089  0.000000  0.000073
  1C   1s         0.002327 -0.002377 -0.001644  0.000498  0.000000 -0.004974
  1C   2s        -0.180682  0.249296  0.186788  0.083222  0.000001 -0.029498
  1C   3s        -0.040250  0.056966  0.047047  0.016981  0.000000 -0.004271
  1C   4s        -0.040221  0.095408  0.022227  0.060901  0.000002 -0.019819
  1C   1pz       -0.000000  0.000000  0.000000 -0.000000 -0.143046 -0.000000
  1C   1px       -0.070687  0.069502 -0.111458 -0.020858  0.000000 -0.148089
  1C   1py        0.076814  0.063586  0.001245 -0.171935  0.000000  0.045495
  1C   2pz        0.000000  0.000000  0.000000 -0.000001 -0.196457 -0.000000
  1C   2px       -0.081634  0.089793 -0.111610 -0.013712  0.000000 -0.151161
  1C   2py        0.092637  0.072143  0.000030 -0.219716  0.000001  0.061203
  1C   3pz        0.000000 -0.000000 -0.000001 -0.000000 -0.074657 -0.000000
  1C   3px       -0.015774  0.023196  0.034585  0.036901 -0.000000  0.030785
  1C   3py        0.017982 -0.013025 -0.024259 -0.054019  0.000001  0.024233
  1C   1dz2       0.004692 -0.007175 -0.004251 -0.000577 -0.000000 -0.000084
  1C   1dxz      -0.000000  0.000000 -0.000000 -0.000000  0.002045 -0.000000
  1C   1dyz       0.000000  0.000000  0.000000 -0.000000 -0.006030 -0.000000
  1C   1dx2y2     0.004486  0.001291 -0.001603  0.005994 -0.000000  0.022023
  1C   1dxy       0.004977  0.008386 -0.007140 -0.000576  0.000000 -0.003181
  1C   2dz2       0.003931 -0.010611  0.001333  0.000042 -0.000000 -0.002237
  1C   2dxz      -0.000000  0.000000  0.000000  0.000000  0.000426  0.000000
  1C   2dyz       0.000000  0.000000 -0.000000 -0.000000 -0.010690 -0.000000
  1C   2dx2y2     0.002771  0.003951 -0.020834  0.002256  0.000000  0.020245
  1C   2dxy       0.010260  0.008763 -0.007460 -0.000517  0.000000 -0.000822
  1C   1f0        0.000000 -0.000000 -0.000000  0.000000  0.008372  0.000000
  1C   1f+1       0.001520 -0.002546  0.001908 -0.000812  0.000000  0.001075
  1C   1f-1      -0.001406 -0.001099 -0.000281  0.004479 -0.000000 -0.001099
  1C   1f+2      -0.000000  0.000000 -0.000000  0.000000 -0.002070  0.000000
  1C   1f-2      -0.000000  0.000000 -0.000000  0.000000 -0.001934 -0.000000
  1C   1f+3      -0.003589  0.005644  0.004752  0.003421  0.000000  0.000071
  1C   1f-3       0.000077 -0.003881  0.001494  0.001709 -0.000000 -0.003782
  2H   1s        -0.066396 -0.042569 -0.019267 -0.059988 -0.067685  0.061447
  2H   2s        -0.072673 -0.051293 -0.024750 -0.086929 -0.110694  0.083692
  2H   3s        -0.005789 -0.010905 -0.010800 -0.022681 -0.037007  0.041257
  2H   1pz        0.005067  0.003319  0.001875  0.005686  0.004080 -0.005291
  2H   1px        0.003913  0.002126  0.000433  0.002030  0.004983 -0.000997
  2H   1py       -0.001089  0.001325 -0.000641  0.001377 -0.001118  0.000127
  2H   2pz        0.001479  0.002775  0.001333  0.006000  0.005728 -0.004873
  2H   2px        0.002492  0.001165 -0.000342  0.000762  0.008984  0.004542
  2H   2py       -0.002534  0.002551 -0.001363  0.002667 -0.002061 -0.003580
  2H   1dz2      -0.000090 -0.000532 -0.000224 -0.001425 -0.000146  0.001458
  2H   1dxz      -0.000834 -0.000560 -0.000255 -0.000932 -0.001814  0.000303
[...]
  | PNO truncation ...   0.0014225357 Eh
 Timing for NEV-PNO construction (sec.)
  | Intermediate construction  ..            0.000
  | Amplitude construction     ..            0.078
  | Total time                 ..            0.078
 Making pair pair interaction lists ...      ok
                                                 
  ___         ___     __        ___  __   __     
 |__  | |\ | |__     / _` |  | |__  /__` /__`   
 |    | | \| |___    \__> \__/ |___ .__/ .__/ 
                                                 

Thresholds for map construction and integral transformation:
   TCutMKN   ...     1.0e-03
   TCutDO    ...     1.0e-02
   TCutCMO   ...     1.0e-03
   TCutCPAO  ...     1.0e-03

Thresholds for map construction and integral transformation for strong Triples:
   TCutMKN   ...     1.0e-02
   TCutDO    ...     2.0e-02
   TCutCMO   ...     1.0e-03
   TCutCPAO  ...     1.0e-03

Thresholds for map construction and integral transformation for weak Triples:
   TCutMKN   ...     1.0e-01
   TCutDO    ...     4.0e-02
   TCutCMO   ...     1.0e-03
   TCutCPAO  ...     1.0e-03

--------------------------------
LOCAL RI TRANSFORMATION (IAVPAO)
--------------------------------

Orbital window:       4 to 15
Number of PAOs:     176
Basis functions:    176 (64 shells)
Aux. functions:     844 (252 shells)

Processing maps (0.0 sec)
Average map sizes:
   Aux shells -> MOs              12.0
   Aux shells -> PAOs            176.0
   MOs        -> AO shells        64.0
   PAOs       -> AO shells        64.0

Calculating integrals (0.3 sec, 13.609 MB)
Sorting integrals (0.0 sec, 13.600 MB)
Total time for the integral transformation: 0.3 sec

 ==> UMP guess in NEV-PNO space 

Truncation parameters                       .... 
    PAOOverlapThresh     =        1.000e-08
Pair selection                          .... not used
    TCutPairs            =        1.000e-04
    TCutMKN              =        1.000e-03
    TCutDO               =        1.000e-02
    TCutCMO              =        1.000e-03
    TCutCPAO             =        1.000e-03
    TCutPNO              =        3.330e-07
    TScaleTCutPNO_SS     =        1.000e+00
    TScaleTCutPNO_SD     =        1.000e+00
    TScalePNO_Core       =        1.000e-02
    TScaleTCutPairs_Somo =        3.300e-01
    TScaleTCutPairs_Core =        1.000e+00
    TCutPairs_MP2        =        1.000e-05
    TCutCMO              =        1.000e-03
    TCutCPAO             =        1.000e-03
Spin component scaling in ijab excitation            .... not used

Formation of guess energy and open-shell PNO.

NEV-PNO operators..
  E(ij->ab)

   .... Finished loop over pairs

 PNO Occupation Number Statistics: 
  | Av. % of trace(Dij) retained        ...  99.426002941562
  | sigma^2 in % of trace(Dij) retained ...   3.73e-01
  | Av. % of trace(Di) retained         ...  99.999293142269
  | sigma^2 in % of trace(Di) retained  ...   5.98e-08
 Distributions of % trace(Dij) recovered:
  |       >= 99.9  ...    30 ( 38.5 % of all IJ-pairs)
  |   [90.0, 99.0) ...    18 ( 23.1 % of all IJ-pairs)
  |   [99.0, 99.9) ...    30 ( 38.5 % of all IJ-pairs)
 Distributions of % trace(Di) recovered :
  |       >= 99.9  ...    12 (100.0 % of all I-pairs )

                       ===========================
                        144 OF  144 PAIRS ARE KEPT
                       ===========================

 Initial PAO correlation energy (all pairs)    ...  -0.7695777185 Eh
 Energy constituents in PAO basis (Eh):
  | Vijab(+0) ...  -0.7695777185
 Initial PNO correlation energy                ...  -0.7681519034 Eh
 Energy constituents in PNO basis (Eh):
  | Vijab(+0) ...  -0.7681519034 (err=  0.0014258150)
 Sum of total truncation errors ...   0.0014258150 Eh
  | Pair screening ...   0.0000000000 Eh
  | PNO truncation ...   0.0014258150 Eh

 UMP2 correlation energy (PAO) ...  -0.7695777185
  | alpha-alpha ...  -0.0944407326 (NP_aa=   66)
  | alpha-beta  ...  -0.5806962532 (NP_ab=  144)
  | beta -beta  ...  -0.0944407326 (NP_bb=   66)
 UMP2 correlation energy (PNO) ...  -0.7681519034
  | alpha-alpha ...  -0.0942418446 (err=  0.0001988880, NP_aa=   66)
  | alpha-beta  ...  -0.5796682143 (err=  0.0010280389, NP_ab=  144)
  | beta -beta  ...  -0.0942418446 (err=  0.0001988880, NP_bb=   66)
 Sum of total UMP2 truncation errors ...   0.0014258150 Eh
  | Pair screening ...   0.0000000000 Eh
  | PNO truncation ...   0.0014258150 Eh
 Timing for NEV-PNO construction (sec.)
  | Intermediate construction  ..            0.000
  | Amplitude construction     ..            0.082
  | Total time                 ..            0.082
 Making pair pair interaction lists ...      ok
 Total size for 2-ext PNO integrals ...      1.3 MB
--------------------------------
LOCAL RI TRANSFORMATION (VABPAO)
--------------------------------

Number of PAOs:     176
Basis functions:    176 (64 shells)
Aux. functions:     844 (252 shells)

Processing maps (0.0 sec)
Average map sizes:
   Aux shells -> PAOs            176.0
   PAOs       -> AO shells        64.0

Calculating integrals (1.0 sec, 365.854 MB)
Finished
-----------------------------
LOCAL RI TRANSFORMATION (IJV)
-----------------------------

Orbital window:       4 to 15
Basis functions:    176 (64 shells)
Aux. functions:     844 (252 shells)

Processing maps (0.0 sec)
Average map sizes:
   Aux shells -> MOs(i)           12.0
   Aux shells -> MOs(j)           12.0
   MOs        -> AO shells        64.0

Calculating integrals (0.3 sec, 0.937 MB)
Sorting integrals (0.0 sec, 0.927 MB)
Total time for the integral transformation: 0.3 sec


-------------------------------------
Pair Pair Term precalculation with     
RI-(ij|mn) and (im|jn) transformation  
ON THE FLY                             
-------------------------------------

   IBatch   1 (of   7)              ... done (    3.568 sec)
   IBatch   2 (of   7)              ... done (    4.197 sec)
   IBatch   3 (of   7)              ... done (    3.946 sec)
   IBatch   4 (of   7)              ... done (    5.053 sec)
   IBatch   5 (of   7)              ... done (    2.949 sec)
   IBatch   6 (of   7)              ... done (    4.324 sec)
   IBatch   7 (of   7)              ... done (    2.324 sec)
Total EXT                           ...          26.361 sec

---------------------
RI-PNO TRANSFORMATION
---------------------

Total Number of PNOs                   ...  4777
Total Number of IJ-PNOs                ...  4777
Total Number of IP-PNOs                ...     0
Total Number of PQ-PNOs                ...     0
Total Number of IJ-pairs               ...   144
Total Number of PI-pairs               ...     0
Total Number of PQ-pairs               ...     0
Average number of PNOs per pair        ...    33
Maximal number of PNOs per pair        ...    52
>> Statistics for ij-pairs..
   #pairs with  1 -  5 PNOs   :    0
   #pairs with  6 - 10 PNOs   :    0
   #pairs with 11 - 15 PNOs   :    0
   #pairs with 16 - 20 PNOs   :   18
   #pairs with 21 - 25 PNOs   :   20
   #pairs with 26 - 30 PNOs   :   26
   #pairs with 31 - 35 PNOs   :   21
   #pairs with 36 - 40 PNOs   :   16
   #pairs with 41 - 45 PNOs   :   24
   #pairs with 46 - 50 PNOs   :    9
   #pairs with 51 - 55 PNOs   :   10
Generation of (ij|ab)[P] integrals            ... on
Generation of (ia|bc)[P],(ja|bc)[P] integrals ... on
Storage of 3 and 4 external integrals         ... on
Generation of ALL (ka|bc)[P] integrals        ... on
Keep RI integrals in memory                   ... off

Ibatch:  1 (of  1)
Starting 2-4 index PNO integral generation ... done

Timings:
Total PNO integral transformation time     ...         10.836 sec
Size of the 3-external file                ...        29 MB
Size of the 4-external file                ...       157 MB
Size of the IKJL file                      ...         0 MB
Size of the all 3-external file            ...       178 MB
Size of the 1-external file                ...         0 MB

Size of the PAO/PNO coefficient matrices   ...       6.4 MB

Making pair/pair overlap matrices          ... done (    0.712 sec)
Size of the pair overlap file              ...      44.0 MB
Total # unrestricted pairs ...        276
  # of alpha-alpha pairs   ...         66
  # of alpha-beta pairs    ...        144
  # of beta-beta pairs     ...         66
Constructing the guess amplitudes          ... done (    0.036 sec)

-------------------------
FINAL STARTUP INFORMATION
-------------------------

E(0)                                       ...   -227.903464706
E(SL-UMP2 in NEV-PNO space)                ...     -0.769577718
Initial E(tot)                             ...   -228.673042425
<T|T>                                      ...      0.139553611
Number of unrestricted pairs included      ... 276
Total number of pairs                      ... 276
----------------------------------------------------------
                     OPEN-SHELL COUPLED CLUSTER ITERATIONS
----------------------------------------------------------

Number of PNO amplitudes to be optimized        ...           328569
Number of canonical amplitudes for strong pairs ...          7069440
Untruncated number of canonical amplitudes      ...          7069440

Iter       E(tot)           E(Corr)          Delta-E          Residual     Time
  0   -228.673067585     -0.768177064      0.001400655      0.017488461   11.92
                           *** Turning on DIIS ***
  1   -228.693750036     -0.788859515     -0.020682451      0.012744531   10.88
  2   -228.712129710     -0.807239189     -0.018379674      0.006240858   12.06
  3   -228.716635329     -0.811744808     -0.004505619      0.003518458   11.82
  4   -228.718036657     -0.813146136     -0.001401328      0.001611432   11.52
  5   -228.718267989     -0.813377468     -0.000231332      0.000656066   11.13
  6   -228.718326540     -0.813436019     -0.000058551      0.000260067   10.93
  7   -228.718348243     -0.813457722     -0.000021703      0.000087473   11.39
  8   -228.718347573     -0.813457052      0.000000670      0.000037714   10.83
  9   -228.718347919     -0.813457397     -0.000000346      0.000016337   10.82
 10   -228.718348245     -0.813457724     -0.000000327      0.000006270   10.82
               --- The CCSD iterations have converged ---

E(0)                                       ...   -227.903464706
E(CORR)(strong-pairs)                      ...     -0.813457724
E(CORR)(weak-pairs)                        ...     -0.001425815
E(CORR)(corrected)                         ...     -0.814883539
E(TOT)                                     ...   -228.718348245
Singles norm <S|S>**1/2                    ...      0.065882052 ( 0.032941026, 0.032941026)  
T1 diagnostic                              ...      0.013448118                              
<S**2>(linearized)                         ...      0.0000000 (ideal value:      0.0000000)

----------------------
LARGEST PNO AMPLITUDES
----------------------
  11a-> 16a  11b-> 16b       0.050442
  13a-> 16a  13b-> 16b       0.050441
  15a-> 16a  15b-> 16b       0.039565
  13a-> 16a  11b-> 16b       0.039509
  11a-> 16a  13b-> 16b       0.039509
   8a-> 16a   8b-> 16b       0.034392
   9a-> 16a   9b-> 16b       0.034392
   7a-> 19a   7b-> 19b       0.033782
  10a-> 16a  10b-> 16b       0.032805
  10a-> 19a  10b-> 19b       0.032606
  14a-> 17a  14b-> 17b       0.031821
   7a-> 16a   7b-> 16b       0.027640
  13a-> 16a  -1a-> -1a       0.025652
  13b-> 16b  -1b-> -1b       0.025652
  11b-> 16b  -1b-> -1b       0.025652
  11a-> 16a  -1a-> -1a       0.025652

Total # unrestricted pairs ...          0
  # of alpha-alpha pairs   ...          0
  # of alpha-beta pairs    ...          0
  # of beta-beta pairs     ...          0

-------------------------------------------
DLPNO BASED TRIPLES CORRECTION
-------------------------------------------

Singles multiplier          ...  1.000000
Fragment selection                          .... not used
TCutTNO                     ... 1.000e-09
TCutMP2Pairs                ... 1.000e-05
TCutDOStrong                ... 2.000e-02
TCutMKNStrong               ... 1.000e-02
TCutDOWeak                  ... 4.000e-02
TCutMKNWeak                 ... 1.000e-01
NTCutTNO                    ... 1

Number of Triples that are to be computed         ...      1716

 . . . . . . . . .
10% done  
20% done  
30% done  
40% done  
          Batch   1   done (     27.972 sec)
 . . . . . . . . .
50% done  
60% done  
          Batch   2   done (     26.203 sec)
 . . . . . . . . .
70% done  
80% done  
90% done  
          Batch   3   done (     23.989 sec)

Triples-Correction TCutTNO=   1.000e-09 (NWeakPairs = 0  1  2  3)  -0.031137352520    0.000000000000    0.000000000000    0.000000000000
Triples-Correction  -0.031137352520

Triples timings:
Total time                      ...    84.193 sec

Triples List generation         ...     0.000 sec
TNO generation                  ...     1.463 sec
Pair density generation         ...     0.009 sec
Look up tables                  ...     0.003 sec
Generating 3-index integrals    ...    41.312 sec
Make 4-ind.int. from 3-ind.int  ...     0.231 sec
Projecting amplitudes (D + S)   ...     9.107 sec
Sorting integrals for spin cases...     2.226 sec
Calculate W0/W1                 ...    22.409 sec
T0 Energy contr.(sum over a,b,c)...     2.874 sec

Everything after 3-index in T0  ...    47.641 sec

Energy contribution AAA         ...     2.158 sec
Energy contribution AAB         ...    11.677 sec
Energy contribution ABB         ...    11.842 sec
Energy contribution BBB         ...     1.835 sec
prep                ...     0.047 sec
makeTTNO            ...     8.638 sec
copyij              ...     0.005 sec
copyil              ...     0.065 sec
transposeij         ...     0.004 sec
newMatInDoubleProj  ...     0.074 sec
BlasInDoubleProj    ...     7.814 sec
ProjSingles         ...     0.309 sec
ProjDoubles         ...     8.798 sec
overall Doubles for projection      ... 40920
used Doubles for projection         ... 40920


Number of Triples   (0, 1, 2, 3 weak pairs; overall):   1364       0       0       0  (  1364)
Number of Atoms     (0, 1, 2, 3 weak pairs; overall):    8.0     0.0     0.0     0.0  (     8)
Number of PAOs      (0, 1, 2, 3 weak pairs; overall):  175.7     0.0     0.0     0.0  (   176)
Number of AuxFcns   (0, 1, 2, 3 weak pairs; overall):  588.1     0.0     0.0     0.0  (   844)
Number of TNOs (0, 1, 2, 3 weak pairs         ):   81.0     0.0     0.0     0.0
Aver. Number of NTNO, Atoms, PAOs, AuxFcns / Triples:   1364    81.0     8.0   175.7   588.1

Triples Correction (T)                     ...     -0.031137353
    alpha-alpha-alpha ... -0.000855044 (  2.7%)
    alpha-alpha-beta  ... -0.014713632 ( 47.3%)
    alpha-beta -beta  ... -0.014713632 ( 47.3%)
    beta -beta -beta  ... -0.000855044 (  2.7%)
Final correlation energy                   ...     -0.846020892
E(CCSD)                                    ...   -228.718348245
E(CCSD(T))                                 ...   -228.749485598

----------------------------
STATISTICS FOR PAIR-ENERGIES
----------------------------
Minimum, maximum and average ratios of UMP and CCSD pair-energies ... 0.88, 1.22, 1.04


------------------------------------------------------------------------------- 
                                     TIMINGS                                   
------------------------------------------------------------------------------- 


Total execution time                   ...      259.127 sec

Localization of occupied MO's          ...        0.289 sec (  0.1%)
Fock Matrix Formation                  ...        1.535 sec (  0.6%)
Differential overlap integrals         ...        1.676 sec (  0.6%)
Organizing maps                        ...        0.016 sec (  0.0%)
RI 3-index integral generations        ...        1.996 sec (  0.8%)
RI-PNO integral transformation         ...       39.876 sec ( 15.4%)
Initial Guess                          ...        5.660 sec (  2.2%)
DIIS Solver                            ...        0.339 sec (  0.1%)
State Vector Update                    ...        0.028 sec (  0.0%)
Sigma-vector construction              ...      124.110 sec ( 47.9%)
  <0|H|D>                              ...        0.003 sec (  0.0% of sigma)
  <D|H|D>(0-ext)                       ...        2.910 sec (  2.3% of sigma)
  <D|H|D>(2-ext Fock)                  ...        0.026 sec (  0.0% of sigma)
  <D|H|D>(2-ext)                       ...       20.281 sec ( 16.3% of sigma)
  <D|H|D>(4-ext)                       ...       16.608 sec ( 13.4% of sigma)
  <D|H|D>(4-ext-corr)                  ...       66.006 sec ( 53.2% of sigma)
  CCSD doubles correction              ...        0.581 sec (  0.5% of sigma)
  <S|H|S>                              ...        0.293 sec (  0.2% of sigma)
  <S|H|D>(1-ext)                       ...        0.407 sec (  0.3% of sigma)
  <D|H|S>(1-ext)                       ...        0.012 sec (  0.0% of sigma)
  <S|H|D>(3-ext)                       ...        0.299 sec (  0.2% of sigma)
  Fock-dressing                        ...        8.655 sec (  7.0% of sigma)
  Singles amplitudes                   ...        0.120 sec (  0.1% of sigma)
  (ik|jl)-dressing                     ...        3.065 sec (  2.5% of sigma)
  (ij|ab),(ia|jb)-dressing             ...        4.123 sec (  3.3% of sigma)
  Pair energies                        ...        0.005 sec (  0.0% of sigma)
Total Time for computing (T)           ...       84.258 sec ( 32.5% of ALL)


-------------------------   --------------------
FINAL SINGLE POINT ENERGY      -228.749485597775
-------------------------   --------------------


                            ***************************************
                            *     ORCA property calculations      *
                            ***************************************

                                    ---------------------
                                    Active property flags
                                    ---------------------
   (+) Dipole Moment


------------------------------------------------------------------------------
                       ORCA ELECTRIC PROPERTIES CALCULATION
------------------------------------------------------------------------------

Dipole Moment Calculation                       ... on
Quadrupole Moment Calculation                   ... off
Polarizability Calculation                      ... off
GBWName                                         ... acetic_acid.gbw
Electron density file                           ... acetic_acid.scfp
The origin for moment calculation is the CENTER OF MASS  = (-0.012811, -0.013252 -0.000001)

-------------
DIPOLE MOMENT
-------------
                                X             Y             Z
Electronic contribution:     -1.71405       2.74047      -0.00001
Nuclear contribution   :      2.46101      -2.81941       0.00001
                        -----------------------------------------
Total Dipole Moment    :      0.74695      -0.07895      -0.00001
                        -----------------------------------------
Magnitude (a.u.)       :      0.75111
Magnitude (Debye)      :      1.90918



--------------------
Rotational spectrum 
--------------------
 
Rotational constants in cm-1:     0.386392     0.315192     0.179381 
Rotational constants in MHz : 11583.730036  9449.206106  5377.712211 

 Dipole components along the rotational axes: 
x,y,z [a.u.] :    -0.336221     0.671661    -0.000005 
x,y,z [Debye]:    -0.854606     1.707226    -0.000013 

 

Timings for individual modules:

Sum of individual times         ...      280.267 sec (=   4.671 min)
GTO integral calculation        ...        0.761 sec (=   0.013 min)   0.3 %
SCF iterations                  ...       19.893 sec (=   0.332 min)   7.1 %
MDCI module                     ...      259.614 sec (=   4.327 min)  92.6 %
                             ****ORCA TERMINATED NORMALLY****
TOTAL RUN TIME: 0 days 0 hours 4 minutes 40 seconds 864 msec
