
                                 *****************
                                 * O   R   C   A *
                                 *****************

           --- An Ab Initio, DFT and Semiempirical electronic structure package ---

                  #######################################################
                  #                        -***-                        #
                  #          Department of theory and spectroscopy      #
                  #               Directorship: Frank Neese             #
                  #        Max Planck Institute fuer Kohlenforschung    #
                  #                Kaiser Wilhelm Platz 1               #
                  #                 D-45470 Muelheim/Ruhr               #
                  #                      Germany                        #
                  #                                                     #
                  #                  All rights reserved                #
                  #                        -***-                        #
                  #######################################################


                         Program Version 4.2.1 -  RELEASE  -


 With contributions from (in alphabetic order):
   Daniel Aravena         : Magnetic Suceptibility
   Michael Atanasov       : Ab Initio Ligand Field Theory (pilot matlab implementation)
   Alexander A. Auer      : GIAO ZORA, VPT2
   Ute Becker             : Parallelization
   Giovanni Bistoni       : ED, misc. LED, open-shell LED, HFLD
   Martin Brehm           : Molecular dynamics
   Dmytro Bykov           : SCF Hessian
   Vijay G. Chilkuri      : MRCI spin determinant printing, contributions to CSF-ICE
   Dipayan Datta          : RHF DLPNO-CCSD density
   Achintya Kumar Dutta   : EOM-CC, STEOM-CC
   Dmitry Ganyushin       : Spin-Orbit,Spin-Spin,Magnetic field MRCI
   Miquel Garcia          : C-PCM Hessian, Gaussian charge scheme
   Yang Guo               : DLPNO-NEVPT2, CIM, IAO-localization
   Andreas Hansen         : Spin unrestricted coupled pair/coupled cluster methods
   Benjamin Helmich-Paris : CASSCF linear response (MC-RPA)
   Lee Huntington         : MR-EOM, pCC
   Robert Izsak           : Overlap fitted RIJCOSX, COSX-SCS-MP3, EOM
   Christian Kollmar      : KDIIS, OOCD, Brueckner-CCSD(T), CCSD density
   Simone Kossmann        : Meta GGA functionals, TD-DFT gradient, OOMP2, MP2 Hessian
   Martin Krupicka        : AUTO-CI
   Lucas Lang             : DCDCAS
   Dagmar Lenk            : GEPOL surface, SMD
   Dimitrios Liakos       : Extrapolation schemes; Compound Job, initial MDCI parallelization
   Dimitrios Manganas     : Further ROCIS development; embedding schemes
   Dimitrios Pantazis     : SARC Basis sets
   Taras Petrenko         : DFT Hessian,TD-DFT gradient, ASA, ECA, R-Raman, ABS, FL, XAS/XES, NRVS
   Peter Pinski           : DLPNO-MP2, DLPNO-MP2 Gradient
   Christoph Reimann      : Effective Core Potentials
   Marius Retegan         : Local ZFS, SOC
   Christoph Riplinger    : Optimizer, TS searches, QM/MM, DLPNO-CCSD(T), (RO)-DLPNO pert. Triples
   Tobias Risthaus        : Range-separated hybrids, TD-DFT gradient, RPA, STAB
   Michael Roemelt        : Original ROCIS implementation
   Masaaki Saitow         : Open-shell DLPNO-CCSD energy and density
   Barbara Sandhoefer     : DKH picture change effects
   Avijit Sen             : IP-ROCIS
   Kantharuban Sivalingam : CASSCF convergence, NEVPT2, FIC-MRCI
   Bernardo de Souza      : ESD, SOC TD-DFT
   Georgi Stoychev        : AutoAux, RI-MP2 NMR
   Willem Van den Heuvel  : Paramagnetic NMR
   Boris Wezisla          : Elementary symmetry handling
   Frank Wennmohs         : Technical directorship


 We gratefully acknowledge several colleagues who have allowed us to
 interface, adapt or use parts of their codes:
   Stefan Grimme, W. Hujo, H. Kruse,             : VdW corrections, initial TS optimization,
                  C. Bannwarth                     DFT functionals, gCP, sTDA/sTD-DF
   Ed Valeev, F. Pavosevic, A. Kumar             : LibInt (2-el integral package), F12 methods
   Garnet Chan, S. Sharma, J. Yang, R. Olivares  : DMRG
   Ulf Ekstrom                                   : XCFun DFT Library
   Mihaly Kallay                                 : mrcc  (arbitrary order and MRCC methods)
   Andreas Klamt, Michael Diedenhofen            : otool_cosmo (COSMO solvation model)
   Jiri Pittner, Ondrej Demel                    : Mk-CCSD
   Frank Weinhold                                : gennbo (NPA and NBO analysis)
   Christopher J. Cramer and Donald G. Truhlar   : smd solvation model
   Lars Goerigk                                  : TD-DFT with DH, B97 family of functionals
   V. Asgeirsson, H. Jonsson                     : NEB implementation
   FAccTs GmbH                                   : IRC, NEB, NEB-TS, Multilevel, MM, QM/MM, CI optimization
   S Lehtola, MJT Oliveira, MAL Marques          : LibXC Library


 Your calculation uses the libint2 library for the computation of 2-el integrals
 For citations please refer to: http://libint.valeyev.net

 Your ORCA version has been built with support for libXC version: 4.2.3
 For citations please refer to: https://tddft.org/programs/libxc/

 This ORCA versions uses:
   CBLAS   interface :  Fast vector & matrix operations
   LAPACKE interface :  Fast linear algebra routines
   SCALAPACK package :  Parallel linear algebra routines




***************************************
The coordinates will be read from file: acetic_acid@water.xyz
***************************************


Your calculation utilizes the SMD solvation module
Please cite in your paper:
A.V. Marenich, C.J. Cramer, D.G. Truhlar J. Phys. Chem. B, 113, (2009), 6378 

----- Orbital basis set information -----
Your calculation utilizes the basis: cc-pVTZ 
       H, B-Ne : Obtained from the ccRepo (grant-hill.group.shef.ac.uk/ccrepo) Feb. 2017
                 T. H. Dunning, Jr., J. Chem. Phys. 90, 1007 (1989)
            He : Obtained from the ccRepo (grant-hill.group.shef.ac.uk/ccrepo) Feb. 2017
                 D. E. Woon, T. H. Dunning, Jr., J. Chem. Phys. 100, 2975 (1994)
  Li-Be, Na-Mg : Obtained from the ccRepo (grant-hill.group.shef.ac.uk/ccrepo) Feb. 2017
                 B. P. Prascher, D. E. Woon, K. A. Peterson, T. H. Dunning, Jr., A. K. Wilson, Theor. Chem. Acc. 128, 69 (2011)
         Al-Ar : Obtained from the ccRepo (grant-hill.group.shef.ac.uk/ccrepo) Feb. 2017
                 D. E. Woon, T. H. Dunning, Jr., J. Chem. Phys. 98, 1358 (1993)
            Ca : Obtained from the Peterson Research Group Website (tyr0.chem.wsu.edu/~kipeters) Feb. 2017
                 J. Koput, K. A. Peterson, J. Phys. Chem. 106, 9595 (2002)
         Sc-Zn : Obtained from the ccRepo (grant-hill.group.shef.ac.uk/ccrepo) Feb. 2017
                 N. B. Balabanov, K. A. Peterson, J. Chem. Phys. 123, 064107 (2005)
                 N. B. Balabanov, K. A. Peterson, J. Chem. Phys. 125, 074110 (2006)
         Ga-Kr : Obtained from the ccRepo (grant-hill.group.shef.ac.uk/ccrepo) Feb. 2017
                 A. K. Wilson, D. E. Woon, K. A. Peterson, T. H. Dunning, Jr., J. Chem. Phys. 110, 7667 (1999)
             Y : Obtained from the ccRepo (grant-hill.group.shef.ac.uk/ccrepo) Feb. 2017
                 K. A. Peterson, D. Figgen, M. Dolg, H. Stoll, J. Chem. Phys. 126, 124101 (2007)
        Ag, Au : Obtained from the Peterson Research Group Website (tyr0.chem.wsu.edu/~kipeters) Feb. 2017
                 K. A. Peterson, C. Puzzarini, Theor. Chem. Acc. 114, 283 (2005)

----- AuxJ basis set information -----
Your calculation utilizes the AutoAux generation procedure.
  G. L. Stoychev, A. A. Auer, F. Neese, J. Chem. Theory Comput. 13, 554 (2017)

----- AuxC basis set information -----
Your calculation utilizes the AutoAux generation procedure.
  G. L. Stoychev, A. A. Auer, F. Neese, J. Chem. Theory Comput. 13, 554 (2017)

----- AuxJK basis set information -----
Your calculation utilizes the AutoAux generation procedure.
  G. L. Stoychev, A. A. Auer, F. Neese, J. Chem. Theory Comput. 13, 554 (2017)

================================================================================
                                        WARNINGS
                       Please study these warnings very carefully!
================================================================================


WARNING: PNO calculations with unrestricted orbitals require UNOs
  ===> : Switching on UNOs

WARNING: Unrestricted DLPNO-CCSD(T0/T) with FullLMP2-Guess requested.
         This is not yet implemented.
         When comparing energies between closed and open shell calculations:
  ===> : Be aware to set UseFullLMP2Guess to false for the corresponding closed shell calculations.
         Note that UseFullLMP2Guess is done by default only for TightPNO closed shell calculations.


WARNING: MDCI localization with Augmented Hessian Foster-Boys
  ===> : Switching off randomization!

WARNING: Post HF methods need fully converged wavefunctions
  ===> : Setting SCFConvForced true
         You can overwrite this default with %scf ConvForced false 


INFO   : the flag for use of LIBINT has been found!

================================================================================
                                       INPUT FILE
================================================================================
NAME = acetic_acid@water.inp
|  1> ! UHF DLPNO-CCSD(T) cc-pVTZ AutoAux TightSCF Grid6 NoFinalGrid PrintBasis PrintMOs NBO
|  2> 
|  3> %pal
|  4>  nprocs 6
|  5> end
|  6> 
|  7> %cpcm
|  8>  smd true
|  9>  smdsolvent "water"
| 10> end
| 11> 
| 12> *xyzfile 0 1 acetic_acid@water.xyz
| 13> 
| 14>                          ****END OF INPUT****
================================================================================

                       ****************************
                       * Single Point Calculation *
                       ****************************

---------------------------------
CARTESIAN COORDINATES (ANGSTROEM)
---------------------------------
  C      0.630798   -1.316399   -0.000056
  C     -0.098182   -0.015176    0.001080
  H      1.265758   -1.383699    0.884647
  H      1.270869   -1.379495   -0.881280
  H     -0.087453   -2.132811   -0.003730
  O     -1.302537    0.101323    0.004676
  O      0.705470    1.053306   -0.002847
  H      0.162369    1.856313   -0.002491

----------------------------
CARTESIAN COORDINATES (A.U.)
----------------------------
  NO LB      ZA    FRAG     MASS         X           Y           Z
   0 C     6.0000    0    12.011    1.192035   -2.487634   -0.000106
   1 C     6.0000    0    12.011   -0.185538   -0.028678    0.002041
   2 H     1.0000    0     1.008    2.391936   -2.614813    1.671741
   3 H     1.0000    0     1.008    2.401594   -2.606868   -1.665377
   4 H     1.0000    0     1.008   -0.165263   -4.030428   -0.007049
   5 O     8.0000    0    15.999   -2.461438    0.191473    0.008836
   6 O     8.0000    0    15.999    1.333145    1.990460   -0.005379
   7 H     1.0000    0     1.008    0.306833    3.507923   -0.004707

--------------------------------
INTERNAL COORDINATES (ANGSTROEM)
--------------------------------
 C      0   0   0     0.000000000000     0.00000000     0.00000000
 C      1   0   0     1.491507762606     0.00000000     0.00000000
 H      1   2   0     1.091056180253   109.73288323     0.00000000
 H      1   2   3     1.090975207787   109.74418513   241.40492006
 H      1   2   3     1.087394289108   109.40110713   120.67851928
 O      2   1   3     1.209981395538   124.78380033   239.68833615
 O      2   1   3     1.336983612954   113.79259584    59.71448789
 H      7   2   1     0.969421890319   108.97960736   179.95822976

---------------------------
INTERNAL COORDINATES (A.U.)
---------------------------
 C      0   0   0     0.000000000000     0.00000000     0.00000000
 C      1   0   0     2.818541197944     0.00000000     0.00000000
 H      1   2   0     2.061797377400   109.73288323     0.00000000
 H      1   2   3     2.061644361615   109.74418513   241.40492006
 H      1   2   3     2.054877406004   109.40110713   120.67851928
 O      2   1   3     2.286533464707   124.78380033   239.68833615
 O      2   1   3     2.526532874023   113.79259584    59.71448789
 H      7   2   1     1.831941880931   108.97960736   179.95822976

---------------------
BASIS SET INFORMATION
---------------------
There are 3 groups of distinct atoms

 Group   1 Type C   : 18s5p2d1f contracted to 4s3p2d1f pattern {8811/311/11/1}
 Group   2 Type H   : 5s2p1d contracted to 3s2p1d pattern {311/11/1}
 Group   3 Type O   : 18s5p2d1f contracted to 4s3p2d1f pattern {8811/311/11/1}

Atom   0C    basis set group =>   1
Atom   1C    basis set group =>   1
Atom   2H    basis set group =>   2
Atom   3H    basis set group =>   2
Atom   4H    basis set group =>   2
Atom   5O    basis set group =>   3
Atom   6O    basis set group =>   3
Atom   7H    basis set group =>   2

-------------------------
BASIS SET IN INPUT FORMAT
-------------------------

 # Basis set for element : H 
 NewGTO H 
 S 3 
   1      33.8700000000      0.0254948632
   2       5.0950000000      0.1903627659
   3       1.1590000000      0.8521620222
 S 1 
   1       0.3258000000      1.0000000000
 S 1 
   1       0.1027000000      1.0000000000
 P 1 
   1       1.4070000000      1.0000000000
 P 1 
   1       0.3880000000      1.0000000000
 D 1 
   1       1.0570000000      1.0000000000
  end;

 # Basis set for element : C 
 NewGTO C 
 S 8 
   1    8236.0000000000      0.0005424302
   2    1235.0000000000      0.0041964279
   3     280.8000000000      0.0215409141
   4      79.2700000000      0.0836149496
   5      25.5900000000      0.2398716189
   6       8.9970000000      0.4437518201
   7       3.3190000000      0.3535796965
   8       0.3643000000     -0.0091763661
 S 8 
   1    8236.0000000000     -0.0001963922
   2    1235.0000000000     -0.0015259503
   3     280.8000000000     -0.0078904490
   4      79.2700000000     -0.0315148705
   5      25.5900000000     -0.0969100083
   6       8.9970000000     -0.2205415263
   7       3.3190000000     -0.2960691129
   8       0.3643000000      1.0405034329
 S 1 
   1       0.9059000000      1.0000000000
 S 1 
   1       0.1285000000      1.0000000000
 P 3 
   1      18.7100000000      0.0394263872
   2       4.1330000000      0.2440889849
   3       1.2000000000      0.8154920089
 P 1 
   1       0.3827000000      1.0000000000
 P 1 
   1       0.1209000000      1.0000000000
 D 1 
   1       1.0970000000      1.0000000000
 D 1 
   1       0.3180000000      1.0000000000
 F 1 
   1       0.7610000000      1.0000000000
  end;

 # Basis set for element : O 
 NewGTO O 
 S 8 
   1   15330.0000000000      0.0005201983
   2    2299.0000000000      0.0040233448
   3     522.4000000000      0.0207290833
   4     147.3000000000      0.0810823271
   5      47.5500000000      0.2362263521
   6      16.7600000000      0.4435182094
   7       6.2070000000      0.3586705887
   8       0.6882000000     -0.0083497972
 S 8 
   1   15330.0000000000     -0.0001972360
   2    2299.0000000000     -0.0015350107
   3     522.4000000000     -0.0079511839
   4     147.3000000000     -0.0321134529
   5      47.5500000000     -0.1002696430
   6      16.7600000000     -0.2340471118
   7       6.2070000000     -0.3014109278
   8       0.6882000000      1.0349196495
 S 1 
   1       1.7520000000      1.0000000000
 S 1 
   1       0.2384000000      1.0000000000
 P 3 
   1      34.4600000000      0.0411634896
   2       7.7490000000      0.2577628359
   3       2.2800000000      0.8024192744
 P 1 
   1       0.7156000000      1.0000000000
 P 1 
   1       0.2140000000      1.0000000000
 D 1 
   1       2.3140000000      1.0000000000
 D 1 
   1       0.6450000000      1.0000000000
 F 1 
   1       1.4280000000      1.0000000000
  end;

---------------------------------
AUXILIARY/J BASIS SET INFORMATION
---------------------------------
There are 3 groups of distinct atoms

 Group   1 Type C   : 14s11p10d5f3g contracted to 14s11p10d5f3g pattern {11111111111111/11111111111/1111111111/11111/111}
 Group   2 Type H   : 11s4p3d2f contracted to 11s4p3d2f pattern {11111111111/1111/111/11}
 Group   3 Type O   : 14s11p10d5f3g contracted to 14s11p10d5f3g pattern {11111111111111/11111111111/1111111111/11111/111}

Atom   0C    basis set group =>   1
Atom   1C    basis set group =>   1
Atom   2H    basis set group =>   2
Atom   3H    basis set group =>   2
Atom   4H    basis set group =>   2
Atom   5O    basis set group =>   3
Atom   6O    basis set group =>   3
Atom   7H    basis set group =>   2

-------------------------------------
AUXILIARY/J BASIS SET IN INPUT FORMAT
-------------------------------------

 # Auxiliary/J basis set for element : H 
 NewAuxJGTO H 
 S 1 
   1      73.3373968349      1.0000000000
 S 1 
   1      40.7429982416      1.0000000000
 S 1 
   1      22.6349990231      1.0000000000
 S 1 
   1      12.5749994573      1.0000000000
 S 1 
   1       6.9861108096      1.0000000000
 S 1 
   1       3.8811726720      1.0000000000
 S 1 
   1       2.1562070400      1.0000000000
 S 1 
   1       1.1978928000      1.0000000000
 S 1 
   1       0.6654960000      1.0000000000
 S 1 
   1       0.3697200000      1.0000000000
 S 1 
   1       0.2054000000      1.0000000000
 P 1 
   1       3.9256000000      1.0000000000
 P 1 
   1       1.9628000000      1.0000000000
 P 1 
   1       0.9814000000      1.0000000000
 P 1 
   1       0.4907000000      1.0000000000
 D 1 
   1       3.7558400000      1.0000000000
 D 1 
   1       1.7072000000      1.0000000000
 D 1 
   1       0.7760000000      1.0000000000
 F 1 
   1       3.1790000000      1.0000000000
 F 1 
   1       1.4450000000      1.0000000000
  end;

 # Auxiliary/J basis set for element : C 
 NewAuxJGTO C 
 S 1 
   1     503.4992904519      1.0000000000
 S 1 
   1     279.7218280288      1.0000000000
 S 1 
   1     155.4010155716      1.0000000000
 S 1 
   1      86.3338975398      1.0000000000
 S 1 
   1      47.9632764110      1.0000000000
 S 1 
   1      26.6462646728      1.0000000000
 S 1 
   1      14.8034803738      1.0000000000
 S 1 
   1       8.2241557632      1.0000000000
 S 1 
   1       4.5689754240      1.0000000000
 S 1 
   1       2.5383196800      1.0000000000
 S 1 
   1       1.4101776000      1.0000000000
 S 1 
   1       0.7834320000      1.0000000000
 S 1 
   1       0.4352400000      1.0000000000
 S 1 
   1       0.2418000000      1.0000000000
 P 1 
   1      86.3338975398      1.0000000000
 P 1 
   1      47.9632764110      1.0000000000
 P 1 
   1      26.6462646728      1.0000000000
 P 1 
   1      14.8034803738      1.0000000000
 P 1 
   1       8.2241557632      1.0000000000
 P 1 
   1       4.5689754240      1.0000000000
 P 1 
   1       2.5383196800      1.0000000000
 P 1 
   1       1.4101776000      1.0000000000
 P 1 
   1       0.7834320000      1.0000000000
 P 1 
   1       0.4352400000      1.0000000000
 P 1 
   1       0.2418000000      1.0000000000
 D 1 
   1      47.9632764110      1.0000000000
 D 1 
   1      26.6462646728      1.0000000000
 D 1 
   1      14.8034803738      1.0000000000
 D 1 
   1       8.2241557632      1.0000000000
 D 1 
   1       4.5689754240      1.0000000000
 D 1 
   1       2.5383196800      1.0000000000
 D 1 
   1       1.4101776000      1.0000000000
 D 1 
   1       0.7834320000      1.0000000000
 D 1 
   1       0.4352400000      1.0000000000
 D 1 
   1       0.2418000000      1.0000000000
 F 1 
   1      10.2814958400      1.0000000000
 F 1 
   1       4.6734072000      1.0000000000
 F 1 
   1       2.1242760000      1.0000000000
 F 1 
   1       0.9655800000      1.0000000000
 F 1 
   1       0.4389000000      1.0000000000
 G 1 
   1       3.0782400000      1.0000000000
 G 1 
   1       1.3992000000      1.0000000000
 G 1 
   1       0.6360000000      1.0000000000
  end;

 # Auxiliary/J basis set for element : O 
 NewAuxJGTO O 
 S 1 
   1     891.2228962507      1.0000000000
 S 1 
   1     495.1238312504      1.0000000000
 S 1 
   1     275.0687951391      1.0000000000
 S 1 
   1     152.8159972995      1.0000000000
 S 1 
   1      84.8977762775      1.0000000000
 S 1 
   1      47.1654312653      1.0000000000
 S 1 
   1      26.2030173696      1.0000000000
 S 1 
   1      14.5572318720      1.0000000000
 S 1 
   1       8.0873510400      1.0000000000
 S 1 
   1       4.4929728000      1.0000000000
 S 1 
   1       2.4960960000      1.0000000000
 S 1 
   1       1.3867200000      1.0000000000
 S 1 
   1       0.7704000000      1.0000000000
 S 1 
   1       0.4280000000      1.0000000000
 P 1 
   1     152.8159972995      1.0000000000
 P 1 
   1      84.8977762775      1.0000000000
 P 1 
   1      47.1654312653      1.0000000000
 P 1 
   1      26.2030173696      1.0000000000
 P 1 
   1      14.5572318720      1.0000000000
 P 1 
   1       8.0873510400      1.0000000000
 P 1 
   1       4.4929728000      1.0000000000
 P 1 
   1       2.4960960000      1.0000000000
 P 1 
   1       1.3867200000      1.0000000000
 P 1 
   1       0.7704000000      1.0000000000
 P 1 
   1       0.4280000000      1.0000000000
 D 1 
   1      84.8977762775      1.0000000000
 D 1 
   1      47.1654312653      1.0000000000
 D 1 
   1      26.2030173696      1.0000000000
 D 1 
   1      14.5572318720      1.0000000000
 D 1 
   1       8.0873510400      1.0000000000
 D 1 
   1       4.4929728000      1.0000000000
 D 1 
   1       2.4960960000      1.0000000000
 D 1 
   1       1.3867200000      1.0000000000
 D 1 
   1       0.7704000000      1.0000000000
 D 1 
   1       0.4280000000      1.0000000000
 F 1 
   1      20.1225904000      1.0000000000
 F 1 
   1       9.1466320000      1.0000000000
 F 1 
   1       4.1575600000      1.0000000000
 F 1 
   1       1.8898000000      1.0000000000
 F 1 
   1       0.8590000000      1.0000000000
 G 1 
   1       6.2436000000      1.0000000000
 G 1 
   1       2.8380000000      1.0000000000
 G 1 
   1       1.2900000000      1.0000000000
  end;

---------------------------------
AUXILIARY/C BASIS SET INFORMATION
---------------------------------
There are 3 groups of distinct atoms

 Group   1 Type C   : 14s11p10d5f3g contracted to 14s11p10d5f3g pattern {11111111111111/11111111111/1111111111/11111/111}
 Group   2 Type H   : 11s4p3d2f contracted to 11s4p3d2f pattern {11111111111/1111/111/11}
 Group   3 Type O   : 14s11p10d5f3g contracted to 14s11p10d5f3g pattern {11111111111111/11111111111/1111111111/11111/111}

Atom   0C    basis set group =>   1
Atom   1C    basis set group =>   1
Atom   2H    basis set group =>   2
Atom   3H    basis set group =>   2
Atom   4H    basis set group =>   2
Atom   5O    basis set group =>   3
Atom   6O    basis set group =>   3
Atom   7H    basis set group =>   2

-------------------------------------
AUXILIARY/C BASIS SET IN INPUT FORMAT
-------------------------------------

 # Auxiliary/C basis set for element : H 
 NewAuxCGTO H 
 S 1 
   1      73.3373968349      1.0000000000
 S 1 
   1      40.7429982416      1.0000000000
 S 1 
   1      22.6349990231      1.0000000000
 S 1 
   1      12.5749994573      1.0000000000
 S 1 
   1       6.9861108096      1.0000000000
 S 1 
   1       3.8811726720      1.0000000000
 S 1 
   1       2.1562070400      1.0000000000
 S 1 
   1       1.1978928000      1.0000000000
 S 1 
   1       0.6654960000      1.0000000000
 S 1 
   1       0.3697200000      1.0000000000
 S 1 
   1       0.2054000000      1.0000000000
 P 1 
   1       3.9256000000      1.0000000000
 P 1 
   1       1.9628000000      1.0000000000
 P 1 
   1       0.9814000000      1.0000000000
 P 1 
   1       0.4907000000      1.0000000000
 D 1 
   1       3.7558400000      1.0000000000
 D 1 
   1       1.7072000000      1.0000000000
 D 1 
   1       0.7760000000      1.0000000000
 F 1 
   1       3.1790000000      1.0000000000
 F 1 
   1       1.4450000000      1.0000000000
  end;

 # Auxiliary/C basis set for element : C 
 NewAuxCGTO C 
 S 1 
   1     503.4992904519      1.0000000000
 S 1 
   1     279.7218280288      1.0000000000
 S 1 
   1     155.4010155716      1.0000000000
 S 1 
   1      86.3338975398      1.0000000000
 S 1 
   1      47.9632764110      1.0000000000
 S 1 
   1      26.6462646728      1.0000000000
 S 1 
   1      14.8034803738      1.0000000000
 S 1 
   1       8.2241557632      1.0000000000
 S 1 
   1       4.5689754240      1.0000000000
 S 1 
   1       2.5383196800      1.0000000000
 S 1 
   1       1.4101776000      1.0000000000
 S 1 
   1       0.7834320000      1.0000000000
 S 1 
   1       0.4352400000      1.0000000000
 S 1 
   1       0.2418000000      1.0000000000
 P 1 
   1      86.3338975398      1.0000000000
 P 1 
   1      47.9632764110      1.0000000000
 P 1 
   1      26.6462646728      1.0000000000
 P 1 
   1      14.8034803738      1.0000000000
 P 1 
   1       8.2241557632      1.0000000000
 P 1 
   1       4.5689754240      1.0000000000
 P 1 
   1       2.5383196800      1.0000000000
 P 1 
   1       1.4101776000      1.0000000000
 P 1 
   1       0.7834320000      1.0000000000
 P 1 
   1       0.4352400000      1.0000000000
 P 1 
   1       0.2418000000      1.0000000000
 D 1 
   1      47.9632764110      1.0000000000
 D 1 
   1      26.6462646728      1.0000000000
 D 1 
   1      14.8034803738      1.0000000000
 D 1 
   1       8.2241557632      1.0000000000
 D 1 
   1       4.5689754240      1.0000000000
 D 1 
   1       2.5383196800      1.0000000000
 D 1 
   1       1.4101776000      1.0000000000
 D 1 
   1       0.7834320000      1.0000000000
 D 1 
   1       0.4352400000      1.0000000000
 D 1 
   1       0.2418000000      1.0000000000
 F 1 
   1      10.2814958400      1.0000000000
 F 1 
   1       4.6734072000      1.0000000000
 F 1 
   1       2.1242760000      1.0000000000
 F 1 
   1       0.9655800000      1.0000000000
 F 1 
   1       0.4389000000      1.0000000000
 G 1 
   1       3.0782400000      1.0000000000
 G 1 
   1       1.3992000000      1.0000000000
 G 1 
   1       0.6360000000      1.0000000000
  end;

 # Auxiliary/C basis set for element : O 
 NewAuxCGTO O 
 S 1 
   1     891.2228962507      1.0000000000
 S 1 
   1     495.1238312504      1.0000000000
 S 1 
   1     275.0687951391      1.0000000000
 S 1 
   1     152.8159972995      1.0000000000
 S 1 
   1      84.8977762775      1.0000000000
 S 1 
   1      47.1654312653      1.0000000000
 S 1 
   1      26.2030173696      1.0000000000
 S 1 
   1      14.5572318720      1.0000000000
 S 1 
   1       8.0873510400      1.0000000000
 S 1 
   1       4.4929728000      1.0000000000
 S 1 
   1       2.4960960000      1.0000000000
 S 1 
   1       1.3867200000      1.0000000000
 S 1 
   1       0.7704000000      1.0000000000
 S 1 
   1       0.4280000000      1.0000000000
 P 1 
   1     152.8159972995      1.0000000000
 P 1 
   1      84.8977762775      1.0000000000
 P 1 
   1      47.1654312653      1.0000000000
 P 1 
   1      26.2030173696      1.0000000000
 P 1 
   1      14.5572318720      1.0000000000
 P 1 
   1       8.0873510400      1.0000000000
 P 1 
   1       4.4929728000      1.0000000000
 P 1 
   1       2.4960960000      1.0000000000
 P 1 
   1       1.3867200000      1.0000000000
 P 1 
   1       0.7704000000      1.0000000000
 P 1 
   1       0.4280000000      1.0000000000
 D 1 
   1      84.8977762775      1.0000000000
 D 1 
   1      47.1654312653      1.0000000000
 D 1 
   1      26.2030173696      1.0000000000
 D 1 
   1      14.5572318720      1.0000000000
 D 1 
   1       8.0873510400      1.0000000000
 D 1 
   1       4.4929728000      1.0000000000
 D 1 
   1       2.4960960000      1.0000000000
 D 1 
   1       1.3867200000      1.0000000000
 D 1 
   1       0.7704000000      1.0000000000
 D 1 
   1       0.4280000000      1.0000000000
 F 1 
   1      20.1225904000      1.0000000000
 F 1 
   1       9.1466320000      1.0000000000
 F 1 
   1       4.1575600000      1.0000000000
 F 1 
   1       1.8898000000      1.0000000000
 F 1 
   1       0.8590000000      1.0000000000
 G 1 
   1       6.2436000000      1.0000000000
 G 1 
   1       2.8380000000      1.0000000000
 G 1 
   1       1.2900000000      1.0000000000
  end;

----------------------------------
AUXILIARY/JK BASIS SET INFORMATION
----------------------------------
There are 3 groups of distinct atoms

 Group   1 Type C   : 14s11p10d5f3g contracted to 14s11p10d5f3g pattern {11111111111111/11111111111/1111111111/11111/111}
 Group   2 Type H   : 11s4p3d2f contracted to 11s4p3d2f pattern {11111111111/1111/111/11}
 Group   3 Type O   : 14s11p10d5f3g contracted to 14s11p10d5f3g pattern {11111111111111/11111111111/1111111111/11111/111}

Atom   0C    basis set group =>   1
Atom   1C    basis set group =>   1
Atom   2H    basis set group =>   2
Atom   3H    basis set group =>   2
Atom   4H    basis set group =>   2
Atom   5O    basis set group =>   3
Atom   6O    basis set group =>   3
Atom   7H    basis set group =>   2

--------------------------------------
AUXILIARY/JK BASIS SET IN INPUT FORMAT
--------------------------------------

 # Auxiliary/JK basis set for element : H 
 NewAuxJKGTO H 
 S 1 
   1      73.3373968349      1.0000000000
 S 1 
   1      40.7429982416      1.0000000000
 S 1 
   1      22.6349990231      1.0000000000
 S 1 
   1      12.5749994573      1.0000000000
 S 1 
   1       6.9861108096      1.0000000000
 S 1 
   1       3.8811726720      1.0000000000
 S 1 
   1       2.1562070400      1.0000000000
 S 1 
   1       1.1978928000      1.0000000000
 S 1 
   1       0.6654960000      1.0000000000
 S 1 
   1       0.3697200000      1.0000000000
 S 1 
   1       0.2054000000      1.0000000000
 P 1 
   1       3.9256000000      1.0000000000
 P 1 
   1       1.9628000000      1.0000000000
 P 1 
   1       0.9814000000      1.0000000000
 P 1 
   1       0.4907000000      1.0000000000
 D 1 
   1       3.7558400000      1.0000000000
 D 1 
   1       1.7072000000      1.0000000000
 D 1 
   1       0.7760000000      1.0000000000
 F 1 
   1       3.1790000000      1.0000000000
 F 1 
   1       1.4450000000      1.0000000000
  end;

 # Auxiliary/JK basis set for element : C 
 NewAuxJKGTO C 
 S 1 
   1     503.4992904519      1.0000000000
 S 1 
   1     279.7218280288      1.0000000000
 S 1 
   1     155.4010155716      1.0000000000
 S 1 
   1      86.3338975398      1.0000000000
 S 1 
   1      47.9632764110      1.0000000000
 S 1 
   1      26.6462646728      1.0000000000
 S 1 
   1      14.8034803738      1.0000000000
 S 1 
   1       8.2241557632      1.0000000000
 S 1 
   1       4.5689754240      1.0000000000
 S 1 
   1       2.5383196800      1.0000000000
 S 1 
   1       1.4101776000      1.0000000000
 S 1 
   1       0.7834320000      1.0000000000
 S 1 
   1       0.4352400000      1.0000000000
 S 1 
   1       0.2418000000      1.0000000000
 P 1 
   1      86.3338975398      1.0000000000
 P 1 
   1      47.9632764110      1.0000000000
 P 1 
   1      26.6462646728      1.0000000000
 P 1 
   1      14.8034803738      1.0000000000
 P 1 
   1       8.2241557632      1.0000000000
 P 1 
   1       4.5689754240      1.0000000000
 P 1 
   1       2.5383196800      1.0000000000
 P 1 
   1       1.4101776000      1.0000000000
 P 1 
   1       0.7834320000      1.0000000000
 P 1 
   1       0.4352400000      1.0000000000
 P 1 
   1       0.2418000000      1.0000000000
 D 1 
   1      47.9632764110      1.0000000000
 D 1 
   1      26.6462646728      1.0000000000
 D 1 
   1      14.8034803738      1.0000000000
 D 1 
   1       8.2241557632      1.0000000000
 D 1 
   1       4.5689754240      1.0000000000
 D 1 
   1       2.5383196800      1.0000000000
 D 1 
   1       1.4101776000      1.0000000000
 D 1 
   1       0.7834320000      1.0000000000
 D 1 
   1       0.4352400000      1.0000000000
 D 1 
   1       0.2418000000      1.0000000000
 F 1 
   1      10.2814958400      1.0000000000
 F 1 
   1       4.6734072000      1.0000000000
 F 1 
   1       2.1242760000      1.0000000000
 F 1 
   1       0.9655800000      1.0000000000
 F 1 
   1       0.4389000000      1.0000000000
 G 1 
   1       3.0782400000      1.0000000000
 G 1 
   1       1.3992000000      1.0000000000
 G 1 
   1       0.6360000000      1.0000000000
  end;

 # Auxiliary/JK basis set for element : O 
 NewAuxJKGTO O 
 S 1 
   1     891.2228962507      1.0000000000
 S 1 
   1     495.1238312504      1.0000000000
 S 1 
   1     275.0687951391      1.0000000000
 S 1 
   1     152.8159972995      1.0000000000
 S 1 
   1      84.8977762775      1.0000000000
 S 1 
   1      47.1654312653      1.0000000000
 S 1 
   1      26.2030173696      1.0000000000
 S 1 
   1      14.5572318720      1.0000000000
 S 1 
   1       8.0873510400      1.0000000000
 S 1 
   1       4.4929728000      1.0000000000
 S 1 
   1       2.4960960000      1.0000000000
 S 1 
   1       1.3867200000      1.0000000000
 S 1 
   1       0.7704000000      1.0000000000
 S 1 
   1       0.4280000000      1.0000000000
 P 1 
   1     152.8159972995      1.0000000000
 P 1 
   1      84.8977762775      1.0000000000
 P 1 
   1      47.1654312653      1.0000000000
 P 1 
   1      26.2030173696      1.0000000000
 P 1 
   1      14.5572318720      1.0000000000
 P 1 
   1       8.0873510400      1.0000000000
 P 1 
   1       4.4929728000      1.0000000000
 P 1 
   1       2.4960960000      1.0000000000
 P 1 
   1       1.3867200000      1.0000000000
 P 1 
   1       0.7704000000      1.0000000000
 P 1 
   1       0.4280000000      1.0000000000
 D 1 
   1      84.8977762775      1.0000000000
 D 1 
   1      47.1654312653      1.0000000000
 D 1 
   1      26.2030173696      1.0000000000
 D 1 
   1      14.5572318720      1.0000000000
 D 1 
   1       8.0873510400      1.0000000000
 D 1 
   1       4.4929728000      1.0000000000
 D 1 
   1       2.4960960000      1.0000000000
 D 1 
   1       1.3867200000      1.0000000000
 D 1 
   1       0.7704000000      1.0000000000
 D 1 
   1       0.4280000000      1.0000000000
 F 1 
   1      20.1225904000      1.0000000000
 F 1 
   1       9.1466320000      1.0000000000
 F 1 
   1       4.1575600000      1.0000000000
 F 1 
   1       1.8898000000      1.0000000000
 F 1 
   1       0.8590000000      1.0000000000
 G 1 
   1       6.2436000000      1.0000000000
 G 1 
   1       2.8380000000      1.0000000000
 G 1 
   1       1.2900000000      1.0000000000
  end;



           ************************************************************
           *        Program running with 6 parallel MPI-processes     *
           *              working on a common directory               *
           ************************************************************
------------------------------------------------------------------------------
                           ORCA GTO INTEGRAL CALCULATION
------------------------------------------------------------------------------

                         BASIS SET STATISTICS AND STARTUP INFO

 # of primitive gaussian shells          ...  136
 # of primitive gaussian functions       ...  264
 # of contracted shells                  ...   64
 # of contracted basis functions         ...  176
 Highest angular momentum                ...    3
 Maximum contraction depth               ...    8
 Integral package used                   ... LIBINT
 Integral threshhold            Thresh   ...  2.500e-11
 Primitive cut-off              TCut     ...  2.500e-12


------------------------------ INTEGRAL EVALUATION ----------------------------


 * One electron integrals 
 Pre-screening matrix                    ... done
 Shell pair data                         ... done (   0.001 sec)



           ************************************************************
           *        Program running with 6 parallel MPI-processes     *
           *              working on a common directory               *
           ************************************************************
-------------------------------------------------------------------------------
                                 ORCA SCF
-------------------------------------------------------------------------------

------------
SCF SETTINGS
------------
Hamiltonian:
 Ab initio Hamiltonian  Method          .... Hartree-Fock(GTOs)


General Settings:
 Integral files         IntName         .... acetic_acid@water
 Hartree-Fock type      HFTyp           .... UHF
 Total Charge           Charge          ....    0
 Multiplicity           Mult            ....    1
 Number of Electrons    NEL             ....   32
 Basis Dimension        Dim             ....  176
 Nuclear Repulsion      ENuc            ....    121.6370195109 Eh

Convergence Acceleration:
 DIIS                   CNVDIIS         .... on
   Start iteration      DIISMaxIt       ....    12
   Startup error        DIISStart       ....  0.200000
   # of expansion vecs  DIISMaxEq       ....     5
   Bias factor          DIISBfac        ....   1.050
   Max. coefficient     DIISMaxC        ....  10.000
 Newton-Raphson         CNVNR           .... off
 SOSCF                  CNVSOSCF        .... off
 Level Shifting         CNVShift        .... on
   Level shift para.    LevelShift      ....    0.2500
   Turn off err/grad.   ShiftErr        ....    0.0010
 Zerner damping         CNVZerner       .... off
 Static damping         CNVDamp         .... on
   Fraction old density DampFac         ....    0.7000
   Max. Damping (<1)    DampMax         ....    0.9800
   Min. Damping (>=0)   DampMin         ....    0.0000
   Turn off err/grad.   DampErr         ....    0.1000
 Fernandez-Rico         CNVRico         .... off

SCF Procedure:
 Maximum # iterations   MaxIter         ....   125
 SCF integral mode      SCFMode         .... Direct
   Integral package                     .... LIBINT
 Reset frequency        DirectResetFreq ....    20
 Integral Threshold     Thresh          ....  2.500e-11 Eh
 Primitive CutOff       TCut            ....  2.500e-12 Eh

Convergence Tolerance:
 Convergence Check Mode ConvCheckMode   .... Total+1el-Energy
 Convergence forced     ConvForced      .... 1
 Energy Change          TolE            ....  1.000e-08 Eh
 1-El. energy change                    ....  1.000e-05 Eh
 DIIS Error             TolErr          ....  5.000e-07


Diagonalization of the overlap matrix:
Smallest eigenvalue                        ... 8.274e-04
Time for diagonalization                   ...    0.009 sec
Threshold for overlap eigenvalues          ... 1.000e-08
Number of eigenvalues below threshold      ... 0
Time for construction of square roots      ...    0.007 sec
Total time needed                          ...    0.015 sec

-------------------
DFT GRID GENERATION
-------------------

General Integration Accuracy     IntAcc      ...  5.340
Radial Grid Type                 RadialGrid  ... Gauss-Chebyshev
Angular Grid (max. acc.)         AngularGrid ... Lebedev-590
Angular grid pruning method      GridPruning ... 3 (G Style)
Weight generation scheme         WeightScheme... Becke
Basis function cutoff            BFCut       ...    1.0000e-11
Integration weight cutoff        WCut        ...    1.0000e-14
Grids for H and He will be reduced by one unit

# of grid points (after initial pruning)     ... 110416 (   0.0 sec)
# of grid points (after weights+screening)   ... 105018 (   0.0 sec)
nearest neighbour list constructed           ...    0.0 sec
Grid point re-assignment to atoms done       ...    0.0 sec
Grid point division into batches done        ...    1.3 sec
Reduced shell lists constructed in    1.4 sec

Total number of grid points                  ...   105018
Total number of batches                      ...     1644
Average number of points per batch           ...       63
Average number of grid points per atom       ...    13127
Average number of shells per batch           ...    58.84 (91.94%)
Average number of basis functions per batch  ...   160.45 (91.17%)
Average number of large shells per batch     ...    52.32 (88.93%)
Average number of large basis fcns per batch ...   142.29 (88.68%)
Maximum spatial batch extension              ...  16.99, 16.10, 14.70 au
Average spatial batch extension              ...   0.16,  0.16,  0.16 au

Time for grid setup =    1.515 sec

------------------------------
INITIAL GUESS: MODEL POTENTIAL
------------------------------
Loading Hartree-Fock densities                     ... done
Calculating cut-offs                               ... done
Setting up the integral package                    ... done
Initializing the effective Hamiltonian             ... done
Starting the Coulomb interaction                   ... done (   0.0 sec)
Reading the grid                                   ... done
Mapping shells                                     ... done
Starting the XC term evaluation                    ... done (   0.1 sec)
Transforming the Hamiltonian                       ... done (   0.0 sec)
Diagonalizing the Hamiltonian                      ... done (   0.0 sec)
Back transforming the eigenvectors                 ... done (   0.0 sec)
Now organizing SCF variables                       ... done
                      ------------------
                      INITIAL GUESS DONE (   1.8 sec)
                      ------------------

--------------------
CPCM SOLVATION MODEL
--------------------
CPCM parameters:
  Epsilon                                         ...      78.3550
  Refrac                                          ...       1.0000
  Rsolv                                           ...       1.3000
  Surface type                                    ...    GEPOL SES
  Epsilon function type                           ...         CPCM
Solvent:                                     ... WATER
SMD-CDS solvent descriptors:
  Soln                                       ...    1.3328
  Soln25                                     ...    1.3323
  Sola                                       ...    0.0000
  Solb                                       ...    0.0000
  Solg                                       ...    0.0000
  Solc                                       ...    0.0000
  Solh                                       ...    0.0000
Radii:
 Radius for C  used is    3.4960 Bohr (=   1.8500 Ang.)
 Radius for H  used is    2.2677 Bohr (=   1.2000 Ang.)
 Radius for O  used is    2.8724 Bohr (=   1.5200 Ang.)
Calculating surface                               ...        done! (  0.0s)
GEPOL surface points                              ...          297
GEPOL Volume                                      ...     401.2468
GEPOL Surface-area                                ...     296.8767
Calculating surface distance matrix               ...        done! (  0.0s)
Performing Cholesky decomposition & store         ...        done! (  0.0s)
Overall time for CPCM initialization              ...                 0.0s
--------------
SCF ITERATIONS
--------------
ITER       Energy         Delta-E        Max-DP      RMS-DP      [F,P]     Damp
               ***  Starting incremental Fock matrix formation  ***
  0   -227.7125286972   0.000000000000 0.01615831  0.00042345  0.3321135 0.7000
  1   -227.7870596710  -0.074530973843 0.01212111  0.00031694  0.2035439 0.7000
                               ***Turning on DIIS***
  2   -227.8308508242  -0.043791153249 0.00727457  0.00019901  0.1168459 0.7000
  3   -228.2404220725  -0.409571248274 0.01878031  0.00038497  0.0823720 0.0000
  4   -227.8974335395   0.342988532989 0.00301381  0.00007506  0.0091541 0.0000
  5   -227.9209793715  -0.023545831958 0.00161489  0.00004182  0.0045198 0.0000
  6   -227.9189666366   0.002012734858 0.00073575  0.00002093  0.0020616 0.0000
  7   -227.9205778295  -0.001611192834 0.00033898  0.00000933  0.0010544 0.0000
  8   -227.9216892469  -0.001111417470 0.00017449  0.00000567  0.0004233 0.0000
  9   -227.9213586812   0.000330565750 0.00004723  0.00000132  0.0001362 0.0000
 10   -227.9214859442  -0.000127263059 0.00001695  0.00000043  0.0000647 0.0000
 11   -227.9215540651  -0.000068120828 0.00000938  0.00000025  0.0000278 0.0000
 12   -227.9215206839   0.000033381147 0.00000297  0.00000007  0.0000073 0.0000
 13   -227.9215275491  -0.000006865182 0.00000078  0.00000002  0.0000027 0.0000
                            ***DIIS convergence achieved***

               *****************************************************
               *                     SUCCESS                       *
               *           SCF CONVERGED AFTER  14 CYCLES          *
               *****************************************************


SMD CDS free energy correction energy :                 3.96789     Kcal/mol
Total Energy after SMD CDS correction =              -227.915203275 Eh

----------------
TOTAL SCF ENERGY
----------------

Total Energy       :         -227.91520327 Eh           -6201.88798 eV

Components:
Nuclear Repulsion  :          121.63701951 Eh            3309.91157 eV
Electronic Energy  :         -349.55222279 Eh           -9511.79955 eV
One Electron Energy:         -552.86551836 Eh          -15044.23559 eV
Two Electron Energy:          203.31329558 Eh            5532.43604 eV
CPCM Dielectric    :           -0.02231788 Eh              -0.60730 eV
SMD CDS (Gcds)     :            0.00632324 Eh               0.17206 eV

Virial components:
Potential Energy   :         -455.51188309 Eh          -12395.10849 eV
Kinetic Energy     :          227.59667981 Eh            6193.22051 eV
Virial Ratio       :            2.00139951

CPCM Solvation Model Properties:
Surface-charge          :           -0.03002692
Charge-correction       :           -0.00015132 Eh              -0.00412 eV
Free-energy (cav+disp)  :            0.00300125 Eh               0.08167 eV
Corrected G(solv)       :         -227.91235334 Eh           -6201.81043 eV

---------------
SCF CONVERGENCE
---------------

  Last Energy change         ...    1.0343e-06  Tolerance :   1.0000e-08
  Last MAX-Density change    ...    2.7054e-07  Tolerance :   1.0000e-07
  Last RMS-Density change    ...    7.9489e-09  Tolerance :   5.0000e-09
  Last DIIS Error            ...    9.4685e-07  Tolerance :   5.0000e-07

             **** THE GBW FILE WAS UPDATED (acetic_acid@water.gbw) ****
             **** DENSITY FILE WAS UPDATED (acetic_acid@water.scfp) ****
             **** ENERGY FILE WAS UPDATED (acetic_acid@water.en.tmp) ****
----------------------
UHF SPIN CONTAMINATION
----------------------

Expectation value of <S**2>     :    -0.000000
Ideal value S*(S+1) for S=0.0   :     0.000000
Deviation                       :    -0.000000

             **** THE GBW FILE WAS UPDATED (acetic_acid@water.gbw) ****
             **** DENSITY FILE WAS UPDATED (acetic_acid@water.scfp) ****
----------------
ORBITAL ENERGIES
----------------
                 SPIN UP ORBITALS
  NO   OCC          E(Eh)            E(eV) 
   0   1.0000     -20.607426      -560.7566 
   1   1.0000     -20.550348      -559.2034 
   2   1.0000     -11.390415      -309.9490 
   3   1.0000     -11.228738      -305.5495 
   4   1.0000      -1.469056       -39.9750 
   5   1.0000      -1.363567       -37.1045 
   6   1.0000      -1.018361       -27.7110 
   7   1.0000      -0.822730       -22.3876 
   8   1.0000      -0.713471       -19.4145 
   9   1.0000      -0.680350       -18.5133 
  10   1.0000      -0.648982       -17.6597 
  11   1.0000      -0.579446       -15.7675 
  12   1.0000      -0.559797       -15.2328 
  13   1.0000      -0.548679       -14.9303 
  14   1.0000      -0.490514       -13.3476 
  15   1.0000      -0.461741       -12.5646 
  16   0.0000       0.153908         4.1880 
  17   0.0000       0.174122         4.7381 
  18   0.0000       0.190906         5.1948 
  19   0.0000       0.226097         6.1524 
  20   0.0000       0.241232         6.5642 
  21   0.0000       0.300303         8.1717 
  22   0.0000       0.342519         9.3204 
  23   0.0000       0.401349        10.9213 
  24   0.0000       0.404612        11.0101 
  25   0.0000       0.414099        11.2682 
  26   0.0000       0.467765        12.7285 
  27   0.0000       0.513294        13.9674 
  28   0.0000       0.560361        15.2482 
  29   0.0000       0.604267        16.4429 
  30   0.0000       0.629957        17.1420 
  31   0.0000       0.632950        17.2235 
  32   0.0000       0.655980        17.8501 
  33   0.0000       0.675927        18.3929 
  34   0.0000       0.689815        18.7708 
  35   0.0000       0.732922        19.9438 
  36   0.0000       0.735980        20.0270 
  37   0.0000       0.786954        21.4141 
  38   0.0000       0.792706        21.5706 
  39   0.0000       0.811408        22.0795 
  40   0.0000       0.879712        23.9382 
  41   0.0000       0.911746        24.8099 
  42   0.0000       0.919467        25.0200 
  43   0.0000       0.930092        25.3091 
  44   0.0000       0.996179        27.1074 
  45   0.0000       1.033732        28.1293 
  46   0.0000       1.081932        29.4409 
  47   0.0000       1.115336        30.3498 
  48   0.0000       1.176014        32.0010 
  49   0.0000       1.196290        32.5527 
  50   0.0000       1.260042        34.2875 
  51   0.0000       1.278793        34.7977 
  52   0.0000       1.282025        34.8857 
  53   0.0000       1.340282        36.4709 
  54   0.0000       1.371342        37.3161 
  55   0.0000       1.424201        38.7545 
  56   0.0000       1.434468        39.0339 
  57   0.0000       1.495721        40.7006 
  58   0.0000       1.530383        41.6438 
  59   0.0000       1.550516        42.1917 
  60   0.0000       1.563743        42.5516 
  61   0.0000       1.600221        43.5442 
  62   0.0000       1.689366        45.9700 
  63   0.0000       1.729280        47.0561 
  64   0.0000       1.783672        48.5362 
  65   0.0000       1.819811        49.5196 
  66   0.0000       1.922489        52.3136 
  67   0.0000       1.988269        54.1036 
  68   0.0000       2.013961        54.8027 
  69   0.0000       2.190335        59.6021 
  70   0.0000       2.217002        60.3277 
  71   0.0000       2.278717        62.0071 
  72   0.0000       2.309702        62.8502 
  73   0.0000       2.360565        64.2342 
  74   0.0000       2.416178        65.7476 
  75   0.0000       2.448550        66.6284 
  76   0.0000       2.504630        68.1544 
  77   0.0000       2.645826        71.9966 
  78   0.0000       2.656121        72.2767 
  79   0.0000       2.667679        72.5912 
  80   0.0000       2.797235        76.1166 
  81   0.0000       2.844397        77.4000 
  82   0.0000       2.872239        78.1576 
  83   0.0000       2.879654        78.3594 
  84   0.0000       2.965954        80.7077 
  85   0.0000       3.084787        83.9413 
  86   0.0000       3.094637        84.2093 
  87   0.0000       3.099972        84.3545 
  88   0.0000       3.187437        86.7346 
  89   0.0000       3.204335        87.1944 
  90   0.0000       3.267630        88.9167 
  91   0.0000       3.273062        89.0646 
  92   0.0000       3.287078        89.4459 
  93   0.0000       3.300489        89.8109 
  94   0.0000       3.352994        91.2396 
  95   0.0000       3.414780        92.9209 
  96   0.0000       3.449708        93.8713 
  97   0.0000       3.479273        94.6758 
  98   0.0000       3.499740        95.2328 
  99   0.0000       3.594086        97.8001 
 100   0.0000       3.609971        98.2323 
 101   0.0000       3.612946        98.3133 
 102   0.0000       3.634115        98.8893 
 103   0.0000       3.654383        99.4408 
 104   0.0000       3.704447       100.8031 
 105   0.0000       3.747675       101.9794 
 106   0.0000       3.749198       102.0209 
 107   0.0000       3.794799       103.2617 
 108   0.0000       3.798709       103.3681 
 109   0.0000       3.889017       105.8255 
 110   0.0000       3.961198       107.7897 
 111   0.0000       3.985762       108.4581 
 112   0.0000       4.054907       110.3396 
 113   0.0000       4.100470       111.5795 
 114   0.0000       4.104733       111.6955 
 115   0.0000       4.163867       113.3046 
 116   0.0000       4.165034       113.3363 
 117   0.0000       4.196491       114.1923 
 118   0.0000       4.215741       114.7161 
 119   0.0000       4.276684       116.3745 
 120   0.0000       4.319934       117.5514 
 121   0.0000       4.371868       118.9646 
 122   0.0000       4.375570       119.0653 
 123   0.0000       4.422886       120.3528 
 124   0.0000       4.522808       123.0719 
 125   0.0000       4.537541       123.4728 
 126   0.0000       4.582848       124.7056 
 127   0.0000       4.599819       125.1674 
 128   0.0000       4.629627       125.9785 
 129   0.0000       4.738667       128.9457 
 130   0.0000       4.755953       129.4161 
 131   0.0000       4.830628       131.4481 
 132   0.0000       4.885600       132.9439 
 133   0.0000       5.060092       137.6921 
 134   0.0000       5.141634       139.9110 
 135   0.0000       5.237065       142.5078 
 136   0.0000       5.246854       142.7742 
 137   0.0000       5.348696       145.5454 
 138   0.0000       5.420133       147.4893 
 139   0.0000       5.484493       149.2407 
 140   0.0000       5.497285       149.5887 
 141   0.0000       5.581434       151.8785 
 142   0.0000       5.598952       152.3552 
 143   0.0000       5.604123       152.4959 
 144   0.0000       5.616633       152.8364 
 145   0.0000       5.654584       153.8691 
 146   0.0000       5.671903       154.3403 
 147   0.0000       5.745804       156.3513 
 148   0.0000       5.836316       158.8142 
 149   0.0000       5.999468       163.2538 
 150   0.0000       6.024135       163.9250 
 151   0.0000       6.176011       168.0578 
 152   0.0000       6.209633       168.9727 
 153   0.0000       6.242838       169.8762 
 154   0.0000       6.446892       175.4288 
 155   0.0000       6.599082       179.5701 
 156   0.0000       6.682246       181.8331 
 157   0.0000       6.685565       181.9235 
 158   0.0000       6.844025       186.2354 
 159   0.0000       6.904080       187.8696 
 160   0.0000       6.942850       188.9246 
 161   0.0000       6.969904       189.6607 
 162   0.0000       7.053091       191.9244 
 163   0.0000       7.169554       195.0935 
 164   0.0000       7.253964       197.3904 
 165   0.0000       7.262321       197.6178 
 166   0.0000       7.369798       200.5424 
 167   0.0000       7.402275       201.4261 
 168   0.0000       7.543960       205.2816 
 169   0.0000       7.693209       209.3429 
 170   0.0000       7.772401       211.4978 
 171   0.0000       7.949087       216.3057 
 172   0.0000       9.733919       264.8734 
 173   0.0000      12.896636       350.9353 
 174   0.0000      13.602764       370.1500 
 175   0.0000      14.182481       385.9249 

                 SPIN DOWN ORBITALS
  NO   OCC          E(Eh)            E(eV) 
   0   1.0000     -20.607426      -560.7566 
   1   1.0000     -20.550348      -559.2034 
   2   1.0000     -11.390415      -309.9490 
   3   1.0000     -11.228738      -305.5495 
   4   1.0000      -1.469056       -39.9750 
   5   1.0000      -1.363567       -37.1045 
   6   1.0000      -1.018361       -27.7110 
   7   1.0000      -0.822730       -22.3876 
   8   1.0000      -0.713471       -19.4145 
   9   1.0000      -0.680350       -18.5133 
  10   1.0000      -0.648982       -17.6597 
  11   1.0000      -0.579446       -15.7675 
  12   1.0000      -0.559797       -15.2328 
  13   1.0000      -0.548679       -14.9303 
  14   1.0000      -0.490514       -13.3476 
  15   1.0000      -0.461741       -12.5646 
  16   0.0000       0.153908         4.1880 
  17   0.0000       0.174122         4.7381 
  18   0.0000       0.190906         5.1948 
  19   0.0000       0.226097         6.1524 
  20   0.0000       0.241232         6.5642 
  21   0.0000       0.300303         8.1717 
  22   0.0000       0.342519         9.3204 
  23   0.0000       0.401349        10.9213 
  24   0.0000       0.404612        11.0101 
  25   0.0000       0.414099        11.2682 
  26   0.0000       0.467765        12.7285 
  27   0.0000       0.513294        13.9674 
  28   0.0000       0.560361        15.2482 
  29   0.0000       0.604267        16.4429 
  30   0.0000       0.629957        17.1420 
  31   0.0000       0.632950        17.2235 
  32   0.0000       0.655980        17.8501 
  33   0.0000       0.675927        18.3929 
  34   0.0000       0.689815        18.7708 
  35   0.0000       0.732922        19.9438 
  36   0.0000       0.735980        20.0270 
  37   0.0000       0.786954        21.4141 
  38   0.0000       0.792706        21.5706 
  39   0.0000       0.811408        22.0795 
  40   0.0000       0.879712        23.9382 
  41   0.0000       0.911746        24.8099 
  42   0.0000       0.919467        25.0200 
  43   0.0000       0.930092        25.3091 
  44   0.0000       0.996179        27.1074 
  45   0.0000       1.033732        28.1293 
  46   0.0000       1.081932        29.4409 
  47   0.0000       1.115336        30.3498 
  48   0.0000       1.176014        32.0010 
  49   0.0000       1.196290        32.5527 
  50   0.0000       1.260042        34.2875 
  51   0.0000       1.278793        34.7977 
  52   0.0000       1.282025        34.8857 
  53   0.0000       1.340282        36.4709 
  54   0.0000       1.371342        37.3161 
  55   0.0000       1.424201        38.7545 
  56   0.0000       1.434468        39.0339 
  57   0.0000       1.495721        40.7006 
  58   0.0000       1.530383        41.6438 
  59   0.0000       1.550516        42.1917 
  60   0.0000       1.563743        42.5516 
  61   0.0000       1.600221        43.5442 
  62   0.0000       1.689366        45.9700 
  63   0.0000       1.729280        47.0561 
  64   0.0000       1.783672        48.5362 
  65   0.0000       1.819811        49.5196 
  66   0.0000       1.922489        52.3136 
  67   0.0000       1.988269        54.1036 
  68   0.0000       2.013961        54.8027 
  69   0.0000       2.190335        59.6021 
  70   0.0000       2.217002        60.3277 
  71   0.0000       2.278717        62.0071 
  72   0.0000       2.309702        62.8502 
  73   0.0000       2.360565        64.2342 
  74   0.0000       2.416178        65.7476 
  75   0.0000       2.448550        66.6284 
  76   0.0000       2.504630        68.1544 
  77   0.0000       2.645826        71.9966 
  78   0.0000       2.656121        72.2767 
  79   0.0000       2.667679        72.5912 
  80   0.0000       2.797235        76.1166 
  81   0.0000       2.844397        77.4000 
  82   0.0000       2.872239        78.1576 
  83   0.0000       2.879654        78.3594 
  84   0.0000       2.965954        80.7077 
  85   0.0000       3.084787        83.9413 
  86   0.0000       3.094637        84.2093 
  87   0.0000       3.099972        84.3545 
  88   0.0000       3.187437        86.7346 
  89   0.0000       3.204335        87.1944 
  90   0.0000       3.267630        88.9167 
  91   0.0000       3.273062        89.0646 
  92   0.0000       3.287078        89.4459 
  93   0.0000       3.300489        89.8109 
  94   0.0000       3.352994        91.2396 
  95   0.0000       3.414780        92.9209 
  96   0.0000       3.449708        93.8713 
  97   0.0000       3.479273        94.6758 
  98   0.0000       3.499740        95.2328 
  99   0.0000       3.594086        97.8001 
 100   0.0000       3.609971        98.2323 
 101   0.0000       3.612946        98.3133 
 102   0.0000       3.634115        98.8893 
 103   0.0000       3.654383        99.4408 
 104   0.0000       3.704447       100.8031 
 105   0.0000       3.747675       101.9794 
 106   0.0000       3.749198       102.0209 
 107   0.0000       3.794799       103.2617 
 108   0.0000       3.798709       103.3681 
 109   0.0000       3.889017       105.8255 
 110   0.0000       3.961198       107.7897 
 111   0.0000       3.985762       108.4581 
 112   0.0000       4.054907       110.3396 
 113   0.0000       4.100470       111.5795 
 114   0.0000       4.104733       111.6955 
 115   0.0000       4.163867       113.3046 
 116   0.0000       4.165034       113.3363 
 117   0.0000       4.196491       114.1923 
 118   0.0000       4.215741       114.7161 
 119   0.0000       4.276684       116.3745 
 120   0.0000       4.319934       117.5514 
 121   0.0000       4.371868       118.9646 
 122   0.0000       4.375570       119.0653 
 123   0.0000       4.422886       120.3528 
 124   0.0000       4.522808       123.0719 
 125   0.0000       4.537541       123.4728 
 126   0.0000       4.582848       124.7056 
 127   0.0000       4.599819       125.1674 
 128   0.0000       4.629627       125.9785 
 129   0.0000       4.738667       128.9457 
 130   0.0000       4.755953       129.4161 
 131   0.0000       4.830628       131.4481 
 132   0.0000       4.885600       132.9439 
 133   0.0000       5.060092       137.6921 
 134   0.0000       5.141634       139.9110 
 135   0.0000       5.237065       142.5078 
 136   0.0000       5.246854       142.7742 
 137   0.0000       5.348696       145.5454 
 138   0.0000       5.420133       147.4893 
 139   0.0000       5.484493       149.2407 
 140   0.0000       5.497285       149.5887 
 141   0.0000       5.581434       151.8785 
 142   0.0000       5.598952       152.3552 
 143   0.0000       5.604123       152.4959 
 144   0.0000       5.616633       152.8364 
 145   0.0000       5.654584       153.8691 
 146   0.0000       5.671903       154.3403 
 147   0.0000       5.745804       156.3513 
 148   0.0000       5.836316       158.8142 
 149   0.0000       5.999468       163.2538 
 150   0.0000       6.024135       163.9250 
 151   0.0000       6.176011       168.0578 
 152   0.0000       6.209633       168.9727 
 153   0.0000       6.242838       169.8762 
 154   0.0000       6.446892       175.4288 
 155   0.0000       6.599082       179.5701 
 156   0.0000       6.682246       181.8331 
 157   0.0000       6.685565       181.9235 
 158   0.0000       6.844025       186.2354 
 159   0.0000       6.904080       187.8696 
 160   0.0000       6.942850       188.9246 
 161   0.0000       6.969904       189.6607 
 162   0.0000       7.053091       191.9244 
 163   0.0000       7.169554       195.0935 
 164   0.0000       7.253964       197.3904 
 165   0.0000       7.262321       197.6178 
 166   0.0000       7.369798       200.5424 
 167   0.0000       7.402275       201.4261 
 168   0.0000       7.543960       205.2816 
 169   0.0000       7.693209       209.3429 
 170   0.0000       7.772401       211.4978 
 171   0.0000       7.949087       216.3057 
 172   0.0000       9.733919       264.8734 
 173   0.0000      12.896636       350.9353 
 174   0.0000      13.602764       370.1500 
 175   0.0000      14.182481       385.9249 
------------------
MOLECULAR ORBITALS
------------------
                      0         1         2         3         4         5   
                 -20.60743 -20.55035 -11.39042 -11.22874  -1.46906  -1.36357
                   1.00000   1.00000   1.00000   1.00000   1.00000   1.00000
                  --------  --------  --------  --------  --------  --------
  0C   1s        -0.000108  0.000161  0.001915 -0.978522 -0.002521 -0.001196
  0C   2s        -0.000204  0.000308 -0.000230 -0.001924  0.033422  0.008632
  0C   3s        -0.000011 -0.000035  0.000295 -0.041480  0.008213  0.002340
  0C   4s         0.000581 -0.000190 -0.002768 -0.007595 -0.008131  0.012873
  0C   1pz        0.000000 -0.000000  0.000001 -0.000001  0.000004  0.000023
  0C   1px       -0.000016 -0.000007 -0.000119  0.000135 -0.005708 -0.006741
  0C   1py        0.000014 -0.000027  0.000196 -0.000399  0.011252  0.000602
  0C   2pz        0.000003 -0.000000 -0.000000  0.000000 -0.000021  0.000024
  0C   2px        0.000460 -0.000111  0.000184 -0.000428 -0.001927 -0.006107
  0C   2py       -0.000310  0.000517 -0.000078  0.000775  0.007321 -0.008463
  0C   3pz        0.000005  0.000000 -0.000000 -0.000002 -0.000046  0.000006
  0C   3px       -0.000109 -0.000230  0.000883  0.000056  0.001200  0.000717
  0C   3py       -0.000022 -0.000041 -0.001006 -0.000400 -0.003978  0.001225
  0C   1dz2       0.000058 -0.000049  0.000069 -0.000053 -0.000927 -0.000065
  0C   1dxz       0.000000 -0.000000  0.000000  0.000000 -0.000005  0.000003
  0C   1dyz      -0.000000  0.000000 -0.000000  0.000000  0.000000  0.000006
  0C   1dx2y2     0.000017 -0.000024  0.000048 -0.000074 -0.000789  0.001377
  0C   1dxy       0.000000 -0.000032  0.000038 -0.000103 -0.000369 -0.000470
  0C   2dz2       0.000050  0.000293  0.000097 -0.000213  0.004603  0.000999
  0C   2dxz      -0.000002 -0.000002 -0.000001  0.000000  0.000024  0.000002
  0C   2dyz      -0.000001 -0.000000 -0.000002 -0.000000 -0.000025 -0.000012
  0C   2dx2y2     0.000097  0.000034  0.000058 -0.000168  0.002551  0.000870
  0C   2dxy       0.000144 -0.000438  0.000538 -0.000257 -0.000509  0.003986
  0C   1f0        0.000000  0.000000  0.000000 -0.000005  0.000003  0.000002
  0C   1f+1       0.000008  0.000003 -0.000072 -0.000715  0.000443  0.000445
  0C   1f-1      -0.000010  0.000005  0.000141 -0.000038  0.000031  0.000689
  0C   1f+2      -0.000000 -0.000000  0.000001  0.000002  0.000000  0.000003
  0C   1f-2      -0.000000  0.000000 -0.000000  0.000004 -0.000005 -0.000009
  0C   1f+3       0.000023 -0.000040  0.000333  0.000483  0.001144  0.000399
  0C   1f-3       0.000050 -0.000033  0.000093 -0.000174  0.000639 -0.000662
  1C   1s        -0.000402  0.000546  0.978578  0.002211 -0.017714 -0.008311
  1C   2s        -0.000861  0.001224  0.001041 -0.000201  0.250806  0.090433
  1C   3s         0.000188  0.000073  0.040547 -0.000148  0.054693  0.020275
  1C   4s         0.000711 -0.000735  0.004277  0.001881  0.052823  0.023349
  1C   1pz        0.000000  0.000001 -0.000002  0.000000  0.000007  0.000415
  1C   1px        0.000009 -0.000188  0.000278 -0.000115 -0.024007 -0.119698
  1C   1py        0.000025  0.000012  0.001018  0.000230  0.047128 -0.032433
  1C   2pz        0.000004  0.000008  0.000004  0.000000 -0.000010  0.000393
  1C   2px       -0.000970 -0.002474 -0.000970 -0.000275 -0.014244 -0.109677
  1C   2py       -0.001387  0.000296 -0.001147  0.000219  0.052049 -0.036098
  1C   3pz       -0.000003 -0.000003 -0.000000 -0.000001  0.000017  0.000041
  1C   3px        0.000574  0.001090  0.000840  0.000205 -0.005171 -0.013116
  1C   3py        0.000739 -0.000157 -0.002058 -0.000855  0.002787  0.004502
  1C   1dz2       0.000189 -0.000213 -0.000759 -0.000064 -0.013859 -0.003457
  1C   1dxz       0.000001 -0.000002 -0.000005 -0.000000 -0.000101 -0.000056
  1C   1dyz       0.000001  0.000000 -0.000001 -0.000000 -0.000041  0.000045
  1C   1dx2y2     0.000108  0.000366  0.000325  0.000026  0.005577  0.015586
  1C   1dxy      -0.000270 -0.000083 -0.000016  0.000001  0.005789 -0.010436
  1C   2dz2       0.000125 -0.000240 -0.000154 -0.000058 -0.017050 -0.005998
  1C   2dxz       0.000001 -0.000005 -0.000001  0.000000 -0.000123 -0.000055
  1C   2dyz       0.000005  0.000002  0.000001 -0.000000 -0.000072  0.000050
  1C   2dx2y2     0.000213  0.001363  0.000048 -0.000129  0.005598  0.013021
  1C   2dxy      -0.001025 -0.000228 -0.000351 -0.000189  0.010132 -0.012724
  1C   1f0       -0.000001 -0.000001 -0.000001  0.000000  0.000005 -0.000023
  1C   1f+1       0.000136  0.000153  0.000131 -0.000048  0.000066  0.002657
  1C   1f-1       0.000177  0.000004  0.000037  0.000142 -0.002141  0.000848
  1C   1f+2      -0.000000  0.000001  0.000004  0.000001  0.000044  0.000026
  1C   1f-2       0.000001  0.000000 -0.000001  0.000000 -0.000041 -0.000001
  1C   1f+3      -0.000125 -0.000005  0.000820  0.000326  0.011323  0.003750
  1C   1f-3      -0.000042 -0.000007 -0.000176  0.000012 -0.003067 -0.001295
  2H   1s         0.000043  0.000001  0.000001 -0.000182  0.002738 -0.000002
  2H   2s        -0.000402 -0.000195  0.000120  0.001196  0.001532 -0.003580
  2H   3s        -0.000100  0.000053 -0.000265  0.000864  0.002058 -0.001818
  2H   1pz        0.000011  0.000010 -0.000029 -0.000270 -0.000190  0.000089
  2H   1px       -0.000011 -0.000001  0.000009 -0.000197 -0.000082  0.000107
  2H   1py        0.000015  0.000003 -0.000015  0.000019  0.000191 -0.000139
  2H   2pz        0.000157 -0.000033 -0.000012 -0.000408 -0.000037  0.000941
  2H   2px        0.000131  0.000142 -0.000023 -0.000296  0.000470  0.000688
  2H   2py       -0.000085 -0.000034 -0.000142  0.000057  0.001373 -0.000886
  2H   1dz2      -0.000014  0.000024  0.000026  0.000139 -0.000009  0.000035
  2H   1dxz      -0.000022 -0.000007 -0.000002  0.000229  0.000003 -0.000166
  2H   1dyz       0.000002 -0.000001  0.000030 -0.000033 -0.000282  0.000240
  2H   1dx2y2     0.000004 -0.000007  0.000022  0.000092 -0.000181  0.000094
  2H   1dxy       0.000003  0.000023  0.000009 -0.000018 -0.000333 -0.000129
  3H   1s         0.000042  0.000002  0.000001 -0.000181  0.002763 -0.000031
  3H   2s        -0.000399 -0.000199  0.000119  0.001195  0.001518 -0.003594
  3H   3s        -0.000094  0.000052 -0.000263  0.000862  0.002004 -0.001822
  3H   1pz       -0.000011 -0.000010  0.000029  0.000269  0.000196 -0.000090
  3H   1px       -0.000011 -0.000001  0.000009 -0.000199 -0.000087  0.000113
  3H   1py        0.000015  0.000004 -0.000016  0.000017  0.000195 -0.000145
  3H   2pz       -0.000155  0.000032  0.000011  0.000406  0.000037 -0.000927
  3H   2px        0.000129  0.000145 -0.000024 -0.000298  0.000510  0.000690
  3H   2py       -0.000084 -0.000034 -0.000143  0.000054  0.001347 -0.000901
  3H   1dz2      -0.000014  0.000024  0.000026  0.000137 -0.000001  0.000040
  3H   1dxz       0.000022  0.000007  0.000002 -0.000230  0.000001  0.000164
  3H   1dyz      -0.000002  0.000001 -0.000031  0.000031  0.000276 -0.000246
  3H   1dx2y2     0.000004 -0.000007  0.000022  0.000094 -0.000182  0.000091
  3H   1dxy       0.000003  0.000024  0.000010 -0.000017 -0.000329 -0.000121
  4H   1s        -0.000037  0.000009 -0.000046 -0.000148  0.003436  0.003347
  4H   2s         0.000035  0.000582  0.000117  0.001057  0.004672 -0.004091
  4H   3s         0.000051 -0.000043 -0.000030  0.000691 -0.001147  0.001156
  4H   1pz        0.000000  0.000000  0.000000  0.000001  0.000002  0.000003
  4H   1px        0.000023 -0.000003  0.000066  0.000230  0.000172  0.000015
  4H   1py       -0.000031  0.000010 -0.000028  0.000258  0.000573  0.000519
  4H   2pz       -0.000002  0.000002 -0.000001  0.000001  0.000018 -0.000018
  4H   2px       -0.000014  0.000128  0.000091  0.000325  0.001268 -0.002816
  4H   2py        0.000165  0.000197  0.000024  0.000310 -0.001108 -0.001479
  4H   1dz2      -0.000034 -0.000022 -0.000025 -0.000124 -0.000036  0.000036
  4H   1dxz       0.000000  0.000000  0.000000  0.000001  0.000005 -0.000003
  4H   1dyz      -0.000000  0.000000 -0.000000  0.000001  0.000001 -0.000000
  4H   1dx2y2    -0.000011 -0.000014  0.000060 -0.000014  0.000457 -0.000347
  4H   1dxy       0.000007 -0.000009  0.000047  0.000239 -0.000042 -0.000319
  5O   1s         0.000128  0.975150 -0.000540 -0.000043 -0.007310 -0.008690
  5O   2s        -0.000314 -0.001881 -0.000220 -0.000069  0.257996  0.387032
  5O   3s         0.000057  0.043673  0.000223 -0.000007  0.066220  0.099923
  5O   4s        -0.000012  0.002527 -0.000014 -0.000217  0.112695  0.206999
  5O   1pz       -0.000000 -0.000006 -0.000001 -0.000000 -0.000160 -0.000163
  5O   1px        0.000011  0.001817  0.000361  0.000004  0.049680  0.054963
  5O   1py        0.000013 -0.000124 -0.000039  0.000005  0.000872 -0.011345
  5O   2pz        0.000001  0.000006  0.000001  0.000000 -0.000195 -0.000218
  5O   2px       -0.000137 -0.002083 -0.000261 -0.000111  0.058530  0.072362
  5O   2py       -0.000044  0.000167  0.000008 -0.000057  0.002467 -0.014657
  5O   3pz        0.000001 -0.000000 -0.000001  0.000001 -0.000032 -0.000042
  5O   3px       -0.000105  0.000030  0.000154 -0.000049  0.004210  0.007982
  5O   3py       -0.000334  0.000023  0.000366  0.000010  0.002567 -0.005234
  5O   1dz2       0.000024 -0.000136  0.000033  0.000013 -0.002714 -0.003154
  5O   1dxz       0.000000 -0.000001  0.000000  0.000000 -0.000027 -0.000031
  5O   1dyz       0.000000 -0.000000  0.000000  0.000000 -0.000000  0.000005
  5O   1dx2y2     0.000003  0.000083 -0.000012 -0.000006  0.004284  0.005261
  5O   1dxy       0.000004 -0.000015 -0.000010  0.000016 -0.000120 -0.001654
  5O   2dz2      -0.000050  0.000256  0.000091 -0.000019 -0.003939 -0.007404
  5O   2dxz      -0.000000  0.000003  0.000001  0.000001 -0.000052 -0.000079
  5O   2dyz      -0.000000 -0.000001 -0.000001 -0.000000  0.000001  0.000011
  5O   2dx2y2    -0.000052 -0.000629 -0.000209 -0.000081  0.007628  0.011890
  5O   2dxy      -0.000054  0.000112  0.000160 -0.000024  0.000305 -0.003732
  5O   1f0        0.000000 -0.000000  0.000000  0.000000  0.000014  0.000015
  5O   1f+1      -0.000011  0.000068 -0.000040 -0.000012 -0.001798 -0.002180
  5O   1f-1      -0.000011 -0.000007 -0.000000 -0.000009  0.000020  0.000302
  5O   1f+2       0.000000  0.000001 -0.000000  0.000000 -0.000017 -0.000020
  5O   1f-2      -0.000000 -0.000000 -0.000000 -0.000000  0.000000  0.000008
  5O   1f+3       0.000006  0.000063 -0.000011  0.000038 -0.002245 -0.003139
  5O   1f-3      -0.000003 -0.000016 -0.000025 -0.000024 -0.000038  0.001562
  6O   1s        -0.975415  0.000482 -0.000187 -0.000032 -0.006138  0.003664
  6O   2s         0.001349  0.000299  0.000079 -0.000045  0.373369 -0.326016
  6O   3s        -0.043703 -0.000044  0.000173  0.000002  0.096029 -0.083433
  6O   4s        -0.002212  0.000538  0.001656 -0.000009  0.176647 -0.194285
  6O   1pz       -0.000005 -0.000000  0.000001  0.000000  0.000142 -0.000047
  6O   1px        0.001710  0.000024 -0.000183 -0.000015 -0.041735  0.017997
  6O   1py        0.000135  0.000021 -0.000267  0.000007 -0.016132 -0.000360
  6O   2pz        0.000005  0.000001  0.000001 -0.000000  0.000186 -0.000090
  6O   2px       -0.001515 -0.000192 -0.000125  0.000090 -0.056345  0.030929
  6O   2py       -0.000575 -0.000124 -0.000052 -0.000076 -0.017656  0.005101
  6O   3pz       -0.000001  0.000001  0.000002  0.000001  0.000009 -0.000020
  6O   3px        0.000061 -0.000535 -0.000885  0.000197 -0.003286  0.004218
  6O   3py        0.000344  0.000304  0.000136 -0.000264 -0.003891  0.005801
  6O   1dz2       0.000062 -0.000015  0.000031  0.000004 -0.003513  0.002249
  6O   1dxz       0.000000 -0.000000  0.000000 -0.000000 -0.000017  0.000007
  6O   1dyz       0.000000 -0.000000 -0.000000  0.000000 -0.000015  0.000008
  6O   1dx2y2     0.000001 -0.000006  0.000002  0.000016 -0.000972  0.001488
  6O   1dxy       0.000025 -0.000005  0.000060  0.000005  0.001565  0.000028
  6O   2dz2      -0.000435 -0.000014 -0.000071  0.000010 -0.005406  0.006532
  6O   2dxz      -0.000002 -0.000000  0.000000  0.000000 -0.000030  0.000026
  6O   2dyz      -0.000002 -0.000000  0.000001 -0.000000 -0.000021  0.000036
  6O   2dx2y2    -0.000193  0.000006 -0.000043 -0.000106  0.000031  0.004169
  6O   2dxy       0.000170  0.000098 -0.000362 -0.000065  0.003329 -0.004400
  6O   1f0       -0.000000  0.000000  0.000001 -0.000000 -0.000015  0.000010
  6O   1f+1       0.000055 -0.000021 -0.000053 -0.000002  0.001738 -0.001118
  6O   1f-1       0.000024 -0.000004 -0.000098  0.000003  0.000728 -0.000639
  6O   1f+2      -0.000000 -0.000000  0.000000 -0.000000 -0.000001  0.000007
  6O   1f-2       0.000000  0.000000 -0.000001 -0.000000  0.000014 -0.000012
  6O   1f+3      -0.000062 -0.000027  0.000130  0.000019 -0.002435  0.003044
  6O   1f-3       0.000007  0.000002 -0.000079 -0.000038  0.000722 -0.000285
  7H   1s        -0.000419  0.000063 -0.000132 -0.000037  0.057342 -0.051731
  7H   2s        -0.000692 -0.000445 -0.000840  0.000264  0.046857 -0.042586
  7H   3s        -0.000004 -0.000018  0.000117  0.000123  0.000359 -0.003775
  7H   1pz       -0.000000  0.000000 -0.000000  0.000000  0.000000  0.000003
  7H   1px       -0.000084 -0.000001  0.000004  0.000004  0.004057 -0.004477
  7H   1py        0.000179 -0.000019  0.000096 -0.000003 -0.008049  0.006835
  7H   2pz        0.000000  0.000000  0.000001 -0.000000 -0.000002  0.000000
  7H   2px       -0.000219 -0.000126 -0.000208  0.000025  0.004549 -0.003649
  7H   2py        0.000348  0.000112  0.000145 -0.000073 -0.008880  0.007706
  7H   1dz2      -0.000046  0.000018 -0.000065 -0.000009 -0.000417  0.000566
  7H   1dxz      -0.000000  0.000000 -0.000000  0.000000  0.000002 -0.000002
  7H   1dyz       0.000000 -0.000000 -0.000000 -0.000000  0.000003 -0.000001
  7H   1dx2y2     0.000011  0.000004 -0.000029 -0.000009 -0.000600  0.000899
  7H   1dxy      -0.000131  0.000019  0.000051 -0.000018 -0.001384  0.001354
                      6         7         8         9        10        11   
                  -1.01836  -0.82273  -0.71347  -0.68035  -0.64898  -0.57945
                   1.00000   1.00000   1.00000   1.00000   1.00000   1.00000
                  --------  --------  --------  --------  --------  --------
  0C   1s        -0.013691 -0.005111 -0.000411 -0.002098 -0.000003  0.001515
  0C   2s         0.397620  0.179045  0.004419  0.089451  0.000017  0.000686
  0C   3s         0.076445  0.034610  0.000366  0.018360  0.000011 -0.001854
  0C   4s         0.146752  0.123149  0.020279  0.090813 -0.000204 -0.007228
  0C   1pz        0.000021  0.000027 -0.000211 -0.000130 -0.107847  0.000552
  0C   1px       -0.012043  0.012641  0.044332  0.090991 -0.000289 -0.107823
  0C   1py        0.028129 -0.062008  0.005370 -0.086988 -0.000095  0.073247
  0C   2pz        0.000021  0.000084 -0.000196 -0.000157 -0.131801  0.000704
  0C   2px       -0.014469  0.014350  0.055273  0.107166 -0.000383 -0.147681
  0C   2py        0.033771 -0.070911  0.011637 -0.102735 -0.000122  0.100776
  0C   3pz       -0.000051  0.000133  0.000081 -0.000198 -0.049198  0.000194
  0C   3px       -0.000556 -0.000628  0.027135  0.038431 -0.000118 -0.053831
  0C   3py       -0.000494 -0.006660  0.031624 -0.034555 -0.000100  0.036228
  0C   1dz2      -0.002428  0.002453  0.002378  0.007664 -0.000070 -0.009231
  0C   1dxz      -0.000004  0.000013 -0.000028 -0.000009 -0.005160  0.000065
  0C   1dyz       0.000003 -0.000001 -0.000024 -0.000029 -0.003392  0.000037
  0C   1dx2y2    -0.002375  0.004497 -0.000439  0.004621  0.000021 -0.007259
  0C   1dxy      -0.003257  0.004323  0.000991  0.008496  0.000033 -0.006281
  0C   2dz2      -0.001494  0.001702  0.002122  0.007807 -0.000074 -0.017669
  0C   2dxz      -0.000012  0.000013 -0.000028  0.000011 -0.001470  0.000158
  0C   2dyz       0.000001  0.000034 -0.000000 -0.000027 -0.007205  0.000095
  0C   2dx2y2    -0.001510  0.002901 -0.001632  0.005741  0.000016 -0.013580
  0C   2dxy      -0.003906  0.005317 -0.004485  0.010899  0.000031 -0.010280
  0C   1f0        0.000036  0.000019  0.000007  0.000022  0.001429 -0.000016
  0C   1f+1       0.007006  0.003106 -0.000284  0.000595  0.000000 -0.000294
  0C   1f-1      -0.002254  0.000627 -0.000699  0.001910 -0.000001 -0.002218
  0C   1f+2      -0.000023 -0.000009 -0.000003 -0.000003  0.000989  0.000004
  0C   1f-2      -0.000042 -0.000016  0.000008 -0.000004  0.001671  0.000005
  0C   1f+3      -0.007172 -0.002347 -0.000862  0.001683 -0.000001 -0.003903
  0C   1f-3       0.001966 -0.001003  0.001387  0.002035 -0.000008 -0.000136
  1C   1s        -0.002673  0.002592  0.002786 -0.000525 -0.000013  0.005665
  1C   2s         0.195031 -0.248182 -0.174828 -0.078721 -0.000037  0.064524
  1C   3s         0.043881 -0.057502 -0.043992 -0.016136 -0.000006  0.012759
  1C   4s         0.041516 -0.088464 -0.015955 -0.056099  0.000104  0.048357
  1C   1pz       -0.000147  0.000277 -0.000423 -0.000199 -0.147086 -0.000457
  1C   1px        0.071015 -0.060910  0.126624  0.017752 -0.000476  0.146688
  1C   1py       -0.079862 -0.073316  0.006899  0.167224 -0.000116 -0.066617
  1C   2pz       -0.000163  0.000327 -0.000439 -0.000197 -0.200479 -0.000439
  1C   2px        0.082297 -0.079397  0.127206  0.008209 -0.000640  0.147753
[...]
  | Pair screening ...   0.0000000000 Eh
  | PNO truncation ...   0.0014355250 Eh
 Timing for NEV-PNO construction (sec.)
  | Intermediate construction  ..            0.000
  | Amplitude construction     ..            0.075
  | Total time                 ..            0.075
 Making pair pair interaction lists ...      ok
                                                 
  ___         ___     __        ___  __   __     
 |__  | |\ | |__     / _` |  | |__  /__` /__`   
 |    | | \| |___    \__> \__/ |___ .__/ .__/ 
                                                 

Thresholds for map construction and integral transformation:
   TCutMKN   ...     1.0e-03
   TCutDO    ...     1.0e-02
   TCutCMO   ...     1.0e-03
   TCutCPAO  ...     1.0e-03

Thresholds for map construction and integral transformation for strong Triples:
   TCutMKN   ...     1.0e-02
   TCutDO    ...     2.0e-02
   TCutCMO   ...     1.0e-03
   TCutCPAO  ...     1.0e-03

Thresholds for map construction and integral transformation for weak Triples:
   TCutMKN   ...     1.0e-01
   TCutDO    ...     4.0e-02
   TCutCMO   ...     1.0e-03
   TCutCPAO  ...     1.0e-03

--------------------------------
LOCAL RI TRANSFORMATION (IAVPAO)
--------------------------------

Orbital window:       4 to 15
Number of PAOs:     176
Basis functions:    176 (64 shells)
Aux. functions:     844 (252 shells)

Processing maps (0.0 sec)
Average map sizes:
   Aux shells -> MOs              12.0
   Aux shells -> PAOs            176.0
   MOs        -> AO shells        64.0
   PAOs       -> AO shells        64.0

Calculating integrals (0.3 sec, 13.609 MB)
Sorting integrals (0.0 sec, 13.600 MB)
Total time for the integral transformation: 0.3 sec

 ==> UMP guess in NEV-PNO space 

Truncation parameters                       .... 
    PAOOverlapThresh     =        1.000e-08
Pair selection                          .... not used
    TCutPairs            =        1.000e-04
    TCutMKN              =        1.000e-03
    TCutDO               =        1.000e-02
    TCutCMO              =        1.000e-03
    TCutCPAO             =        1.000e-03
    TCutPNO              =        3.330e-07
    TScaleTCutPNO_SS     =        1.000e+00
    TScaleTCutPNO_SD     =        1.000e+00
    TScalePNO_Core       =        1.000e-02
    TScaleTCutPairs_Somo =        3.300e-01
    TScaleTCutPairs_Core =        1.000e+00
    TCutPairs_MP2        =        1.000e-05
    TCutCMO              =        1.000e-03
    TCutCPAO             =        1.000e-03
Spin component scaling in ijab excitation            .... not used

Formation of guess energy and open-shell PNO.

NEV-PNO operators..
  E(ij->ab)

   .... Finished loop over pairs

 PNO Occupation Number Statistics: 
  | Av. % of trace(Dij) retained        ...  99.422048619804
  | sigma^2 in % of trace(Dij) retained ...   3.72e-01
  | Av. % of trace(Di) retained         ...  99.999295976833
  | sigma^2 in % of trace(Di) retained  ...   3.84e-08
 Distributions of % trace(Dij) recovered:
  |       >= 99.9  ...    31 ( 39.7 % of all IJ-pairs)
  |   [90.0, 99.0) ...    18 ( 23.1 % of all IJ-pairs)
  |   [99.0, 99.9) ...    29 ( 37.2 % of all IJ-pairs)
 Distributions of % trace(Di) recovered :
  |       >= 99.9  ...    12 (100.0 % of all I-pairs )

                       ===========================
                        144 OF  144 PAIRS ARE KEPT
                       ===========================

 Initial PAO correlation energy (all pairs)    ...  -0.7672123253 Eh
 Energy constituents in PAO basis (Eh):
  | Vijab(+0) ...  -0.7672123253
 Initial PNO correlation energy                ...  -0.7657696965 Eh
 Energy constituents in PNO basis (Eh):
  | Vijab(+0) ...  -0.7657696965 (err=  0.0014426288)
 Sum of total truncation errors ...   0.0014426288 Eh
  | Pair screening ...   0.0000000000 Eh
  | PNO truncation ...   0.0014426288 Eh

 UMP2 correlation energy (PAO) ...  -0.7672123253
  | alpha-alpha ...  -0.0941777857 (NP_aa=   66)
  | alpha-beta  ...  -0.5788567539 (NP_ab=  144)
  | beta -beta  ...  -0.0941777857 (NP_bb=   66)
 UMP2 correlation energy (PNO) ...  -0.7657696965
  | alpha-alpha ...  -0.0939766440 (err=  0.0002011417, NP_aa=   66)
  | alpha-beta  ...  -0.5778164085 (err=  0.0010403454, NP_ab=  144)
  | beta -beta  ...  -0.0939766440 (err=  0.0002011417, NP_bb=   66)
 Sum of total UMP2 truncation errors ...   0.0014426288 Eh
  | Pair screening ...   0.0000000000 Eh
  | PNO truncation ...   0.0014426288 Eh
 Timing for NEV-PNO construction (sec.)
  | Intermediate construction  ..            0.000
  | Amplitude construction     ..            0.087
  | Total time                 ..            0.087
 Making pair pair interaction lists ...      ok
 Total size for 2-ext PNO integrals ...      1.3 MB
--------------------------------
LOCAL RI TRANSFORMATION (VABPAO)
--------------------------------

Number of PAOs:     176
Basis functions:    176 (64 shells)
Aux. functions:     844 (252 shells)

Processing maps (0.0 sec)
Average map sizes:
   Aux shells -> PAOs            176.0
   PAOs       -> AO shells        64.0

Calculating integrals (1.0 sec, 365.854 MB)
Finished
-----------------------------
LOCAL RI TRANSFORMATION (IJV)
-----------------------------

Orbital window:       4 to 15
Basis functions:    176 (64 shells)
Aux. functions:     844 (252 shells)

Processing maps (0.0 sec)
Average map sizes:
   Aux shells -> MOs(i)           12.0
   Aux shells -> MOs(j)           12.0
   MOs        -> AO shells        64.0

Calculating integrals (0.3 sec, 0.937 MB)
Sorting integrals (0.0 sec, 0.927 MB)
Total time for the integral transformation: 0.3 sec


-------------------------------------
Pair Pair Term precalculation with     
RI-(ij|mn) and (im|jn) transformation  
ON THE FLY                             
-------------------------------------

   IBatch   1 (of   6)              ... done (    4.105 sec)
   IBatch   2 (of   6)              ... done (    3.782 sec)
   IBatch   3 (of   6)              ... done (    4.156 sec)
   IBatch   4 (of   6)              ... done (    5.939 sec)
   IBatch   5 (of   6)              ... done (    3.888 sec)
   IBatch   6 (of   6)              ... done (    1.851 sec)
Total EXT                           ...          23.721 sec

---------------------
RI-PNO TRANSFORMATION
---------------------

Total Number of PNOs                   ...  4753
Total Number of IJ-PNOs                ...  4753
Total Number of IP-PNOs                ...     0
Total Number of PQ-PNOs                ...     0
Total Number of IJ-pairs               ...   144
Total Number of PI-pairs               ...     0
Total Number of PQ-pairs               ...     0
Average number of PNOs per pair        ...    33
Maximal number of PNOs per pair        ...    52
>> Statistics for ij-pairs..
   #pairs with  1 -  5 PNOs   :    0
   #pairs with  6 - 10 PNOs   :    0
   #pairs with 11 - 15 PNOs   :    0
   #pairs with 16 - 20 PNOs   :   24
   #pairs with 21 - 25 PNOs   :   18
   #pairs with 26 - 30 PNOs   :   22
   #pairs with 31 - 35 PNOs   :   21
   #pairs with 36 - 40 PNOs   :   16
   #pairs with 41 - 45 PNOs   :   23
   #pairs with 46 - 50 PNOs   :   10
   #pairs with 51 - 55 PNOs   :   10
Generation of (ij|ab)[P] integrals            ... on
Generation of (ia|bc)[P],(ja|bc)[P] integrals ... on
Storage of 3 and 4 external integrals         ... on
Generation of ALL (ka|bc)[P] integrals        ... on
Keep RI integrals in memory                   ... off

Ibatch:  1 (of  1)
Starting 2-4 index PNO integral generation ... done

Timings:
Total PNO integral transformation time     ...          9.601 sec
Size of the 3-external file                ...        29 MB
Size of the 4-external file                ...       153 MB
Size of the IKJL file                      ...         0 MB
Size of the all 3-external file            ...       175 MB
Size of the 1-external file                ...         0 MB

Size of the PAO/PNO coefficient matrices   ...       6.4 MB

Making pair/pair overlap matrices          ... done (    0.695 sec)
Size of the pair overlap file              ...      44.0 MB
Total # unrestricted pairs ...        276
  # of alpha-alpha pairs   ...         66
  # of alpha-beta pairs    ...        144
  # of beta-beta pairs     ...         66
Constructing the guess amplitudes          ... done (    0.031 sec)

-------------------------
FINAL STARTUP INFORMATION
-------------------------

E(0)                                       ...   -227.921527095
E(SL-UMP2 in NEV-PNO space)                ...     -0.767212325
Initial E(tot)                             ...   -228.688739420
<T|T>                                      ...      0.138626099
Number of unrestricted pairs included      ... 276
Total number of pairs                      ... 276
----------------------------------------------------------
                     OPEN-SHELL COUPLED CLUSTER ITERATIONS
----------------------------------------------------------

Number of PNO amplitudes to be optimized        ...           325203
Number of canonical amplitudes for strong pairs ...          7069440
Untruncated number of canonical amplitudes      ...          7069440

Iter       E(tot)           E(Corr)          Delta-E          Residual     Time
  0   -228.688764476     -0.765794753      0.001417573      0.017831893   11.50
                           *** Turning on DIIS ***
  1   -228.709475838     -0.786506114     -0.020711362      0.011573938   10.58
  2   -228.727570518     -0.804600794     -0.018094680      0.005564771   12.28
  3   -228.731910252     -0.808940528     -0.004339734      0.003169077   11.48
  4   -228.733248699     -0.810278976     -0.001338448      0.001453258   10.51
  5   -228.733467006     -0.810497282     -0.000218306      0.000601265   10.96
  6   -228.733522720     -0.810552997     -0.000055715      0.000240409   11.28
  7   -228.733544594     -0.810574870     -0.000021874      0.000089511   10.59
  8   -228.733544096     -0.810574372      0.000000498      0.000036380   11.10
  9   -228.733544459     -0.810574735     -0.000000363      0.000016972   11.33
 10   -228.733544707     -0.810574983     -0.000000248      0.000006637   10.95
               --- The CCSD iterations have converged ---

E(0)                                       ...   -227.921527095
E(CORR)(strong-pairs)                      ...     -0.810574983
E(CORR)(weak-pairs)                        ...     -0.001442629
E(CORR)(corrected)                         ...     -0.812017612
E(TOT)                                     ...   -228.733544707
Singles norm <S|S>**1/2                    ...      0.066408413 ( 0.033204206, 0.033204206)  
T1 diagnostic                              ...      0.013555560                              
<S**2>(linearized)                         ...      0.0000000 (ideal value:      0.0000000)

----------------------
LARGEST PNO AMPLITUDES
----------------------
  13a-> 16a  13b-> 16b       0.046745
  12a-> 16a  12b-> 16b       0.046742
  15a-> 16a  15b-> 16b       0.039614
  12a-> 16a  13b-> 16b       0.035735
  13a-> 16a  12b-> 16b       0.035735
  14a-> 17a  14b-> 17b       0.035081
   9a-> 16a   9b-> 16b       0.034409
  10a-> 16a  10b-> 16b       0.034375
  11a-> 19a  11b-> 19b       0.033808
  11a-> 16a  11b-> 16b       0.032458
   8a-> 19a   8b-> 19b       0.031692
   8a-> 16a   8b-> 16b       0.029192
  13b-> 16b  -1b-> -1b       0.027492
  13a-> 16a  -1a-> -1a       0.027492
  12b-> 16b  -1b-> -1b       0.027477
  12a-> 16a  -1a-> -1a       0.027477

Total # unrestricted pairs ...          0
  # of alpha-alpha pairs   ...          0
  # of alpha-beta pairs    ...          0
  # of beta-beta pairs     ...          0

-------------------------------------------
DLPNO BASED TRIPLES CORRECTION
-------------------------------------------

Singles multiplier          ...  1.000000
Fragment selection                          .... not used
TCutTNO                     ... 1.000e-09
TCutMP2Pairs                ... 1.000e-05
TCutDOStrong                ... 2.000e-02
TCutMKNStrong               ... 1.000e-02
TCutDOWeak                  ... 4.000e-02
TCutMKNWeak                 ... 1.000e-01
NTCutTNO                    ... 1

Number of Triples that are to be computed         ...      1716

 . . . . . . . . .
10% done  
20% done  
30% done  
40% done  
          Batch   1   done (     29.091 sec)
 . . . . . . . . .
50% done  
60% done  
70% done  
          Batch   2   done (     26.998 sec)
 . . . . . . . . .
80% done  
90% done  
          Batch   3   done (     17.166 sec)

Triples-Correction TCutTNO=   1.000e-09 (NWeakPairs = 0  1  2  3)  -0.030711638072    0.000000000000    0.000000000000    0.000000000000
Triples-Correction  -0.030711638072

Triples timings:
Total time                      ...    82.851 sec

Triples List generation         ...     0.000 sec
TNO generation                  ...     1.421 sec
Pair density generation         ...     0.009 sec
Look up tables                  ...     0.003 sec
Generating 3-index integrals    ...    39.879 sec
Make 4-ind.int. from 3-ind.int  ...     0.255 sec
Projecting amplitudes (D + S)   ...     9.190 sec
Sorting integrals for spin cases...     2.104 sec
Calculate W0/W1                 ...    19.231 sec
T0 Energy contr.(sum over a,b,c)...     2.590 sec

Everything after 3-index in T0  ...    43.453 sec

Energy contribution AAA         ...     1.793 sec
Energy contribution AAB         ...    10.269 sec
Energy contribution ABB         ...    10.292 sec
Energy contribution BBB         ...     1.575 sec
prep                ...     0.050 sec
makeTTNO            ...     8.714 sec
copyij              ...     0.005 sec
copyil              ...     0.069 sec
transposeij         ...     0.004 sec
newMatInDoubleProj  ...     0.081 sec
BlasInDoubleProj    ...     7.813 sec
ProjSingles         ...     0.304 sec
ProjDoubles         ...     8.886 sec
overall Doubles for projection      ... 40920
used Doubles for projection         ... 40920


Number of Triples   (0, 1, 2, 3 weak pairs; overall):   1364       0       0       0  (  1364)
Number of Atoms     (0, 1, 2, 3 weak pairs; overall):    8.0     0.0     0.0     0.0  (     8)
Number of PAOs      (0, 1, 2, 3 weak pairs; overall):  175.7     0.0     0.0     0.0  (   176)
Number of AuxFcns   (0, 1, 2, 3 weak pairs; overall):  588.1     0.0     0.0     0.0  (   844)
Number of TNOs (0, 1, 2, 3 weak pairs         ):   80.7     0.0     0.0     0.0
Aver. Number of NTNO, Atoms, PAOs, AuxFcns / Triples:   1364    80.7     8.0   175.7   588.1

Triples Correction (T)                     ...     -0.030711638
    alpha-alpha-alpha ... -0.000848130 (  2.8%)
    alpha-alpha-beta  ... -0.014507689 ( 47.2%)
    alpha-beta -beta  ... -0.014507689 ( 47.2%)
    beta -beta -beta  ... -0.000848130 (  2.8%)
Final correlation energy                   ...     -0.842729250
E(CCSD)                                    ...   -228.733544707
E(CCSD(T))                                 ...   -228.764256345

----------------------------
STATISTICS FOR PAIR-ENERGIES
----------------------------
Minimum, maximum and average ratios of UMP and CCSD pair-energies ... 0.88, 1.21, 1.04


------------------------------------------------------------------------------- 
                                     TIMINGS                                   
------------------------------------------------------------------------------- 


Total execution time                   ...      250.432 sec

Localization of occupied MO's          ...        0.307 sec (  0.1%)
Fock Matrix Formation                  ...        1.660 sec (  0.7%)
Differential overlap integrals         ...        1.736 sec (  0.7%)
Organizing maps                        ...        0.017 sec (  0.0%)
RI 3-index integral generations        ...        2.040 sec (  0.8%)
RI-PNO integral transformation         ...       34.020 sec ( 13.6%)
Initial Guess                          ...        5.525 sec (  2.2%)
DIIS Solver                            ...        0.334 sec (  0.1%)
State Vector Update                    ...        0.028 sec (  0.0%)
Sigma-vector construction              ...      122.564 sec ( 48.9%)
  <0|H|D>                              ...        0.003 sec (  0.0% of sigma)
  <D|H|D>(0-ext)                       ...        2.963 sec (  2.4% of sigma)
  <D|H|D>(2-ext Fock)                  ...        0.026 sec (  0.0% of sigma)
  <D|H|D>(2-ext)                       ...       19.423 sec ( 15.8% of sigma)
  <D|H|D>(4-ext)                       ...       16.775 sec ( 13.7% of sigma)
  <D|H|D>(4-ext-corr)                  ...       64.767 sec ( 52.8% of sigma)
  CCSD doubles correction              ...        0.606 sec (  0.5% of sigma)
  <S|H|S>                              ...        0.231 sec (  0.2% of sigma)
  <S|H|D>(1-ext)                       ...        0.399 sec (  0.3% of sigma)
  <D|H|S>(1-ext)                       ...        0.013 sec (  0.0% of sigma)
  <S|H|D>(3-ext)                       ...        0.307 sec (  0.3% of sigma)
  Fock-dressing                        ...        8.692 sec (  7.1% of sigma)
  Singles amplitudes                   ...        0.117 sec (  0.1% of sigma)
  (ik|jl)-dressing                     ...        3.096 sec (  2.5% of sigma)
  (ij|ab),(ia|jb)-dressing             ...        4.244 sec (  3.5% of sigma)
  Pair energies                        ...        0.005 sec (  0.0% of sigma)
Total Time for computing (T)           ...       82.909 sec ( 33.1% of ALL)


-------------------------   --------------------
FINAL SINGLE POINT ENERGY      -228.764256345282
-------------------------   --------------------


                            ***************************************
                            *     ORCA property calculations      *
                            ***************************************

                                    ---------------------
                                    Active property flags
                                    ---------------------
   (+) Dipole Moment


------------------------------------------------------------------------------
                       ORCA ELECTRIC PROPERTIES CALCULATION
------------------------------------------------------------------------------

Dipole Moment Calculation                       ... on
Quadrupole Moment Calculation                   ... off
Polarizability Calculation                      ... off
GBWName                                         ... acetic_acid@water.gbw
Electron density file                           ... acetic_acid@water.scfp
The origin for moment calculation is the CENTER OF MASS  = (-0.016451, -0.018398  0.001217)

-------------
DIPOLE MOMENT
-------------
                                X             Y             Z
Electronic contribution:     -1.38832       2.73682       0.00258
Nuclear contribution   :      2.47418      -2.79787      -0.00509
                        -----------------------------------------
Total Dipole Moment    :      1.08586      -0.06105      -0.00251
                        -----------------------------------------
Magnitude (a.u.)       :      1.08758
Magnitude (Debye)      :      2.76441



--------------------
Rotational spectrum 
--------------------
 
Rotational constants in cm-1:     0.386349     0.315584     0.179514 
Rotational constants in MHz : 11582.454468  9460.972693  5381.702356 

 Dipole components along the rotational axes: 
x,y,z [a.u.] :     0.439498     0.994821     0.000933 
x,y,z [Debye]:     1.117116     2.528634     0.002372 

 

Timings for individual modules:

Sum of individual times         ...      272.102 sec (=   4.535 min)
GTO integral calculation        ...        0.714 sec (=   0.012 min)   0.3 %
SCF iterations                  ...       20.452 sec (=   0.341 min)   7.5 %
MDCI module                     ...      250.935 sec (=   4.182 min)  92.2 %
                             ****ORCA TERMINATED NORMALLY****
TOTAL RUN TIME: 0 days 0 hours 4 minutes 32 seconds 708 msec
