
                                 *****************
                                 * O   R   C   A *
                                 *****************

           --- An Ab Initio, DFT and Semiempirical electronic structure package ---

                  #######################################################
                  #                        -***-                        #
                  #          Department of theory and spectroscopy      #
                  #               Directorship: Frank Neese             #
                  #        Max Planck Institute fuer Kohlenforschung    #
                  #                Kaiser Wilhelm Platz 1               #
                  #                 D-45470 Muelheim/Ruhr               #
                  #                      Germany                        #
                  #                                                     #
                  #                  All rights reserved                #
                  #                        -***-                        #
                  #######################################################


                         Program Version 4.2.1 -  RELEASE  -


 With contributions from (in alphabetic order):
   Daniel Aravena         : Magnetic Suceptibility
   Michael Atanasov       : Ab Initio Ligand Field Theory (pilot matlab implementation)
   Alexander A. Auer      : GIAO ZORA, VPT2
   Ute Becker             : Parallelization
   Giovanni Bistoni       : ED, misc. LED, open-shell LED, HFLD
   Martin Brehm           : Molecular dynamics
   Dmytro Bykov           : SCF Hessian
   Vijay G. Chilkuri      : MRCI spin determinant printing, contributions to CSF-ICE
   Dipayan Datta          : RHF DLPNO-CCSD density
   Achintya Kumar Dutta   : EOM-CC, STEOM-CC
   Dmitry Ganyushin       : Spin-Orbit,Spin-Spin,Magnetic field MRCI
   Miquel Garcia          : C-PCM Hessian, Gaussian charge scheme
   Yang Guo               : DLPNO-NEVPT2, CIM, IAO-localization
   Andreas Hansen         : Spin unrestricted coupled pair/coupled cluster methods
   Benjamin Helmich-Paris : CASSCF linear response (MC-RPA)
   Lee Huntington         : MR-EOM, pCC
   Robert Izsak           : Overlap fitted RIJCOSX, COSX-SCS-MP3, EOM
   Christian Kollmar      : KDIIS, OOCD, Brueckner-CCSD(T), CCSD density
   Simone Kossmann        : Meta GGA functionals, TD-DFT gradient, OOMP2, MP2 Hessian
   Martin Krupicka        : AUTO-CI
   Lucas Lang             : DCDCAS
   Dagmar Lenk            : GEPOL surface, SMD
   Dimitrios Liakos       : Extrapolation schemes; Compound Job, initial MDCI parallelization
   Dimitrios Manganas     : Further ROCIS development; embedding schemes
   Dimitrios Pantazis     : SARC Basis sets
   Taras Petrenko         : DFT Hessian,TD-DFT gradient, ASA, ECA, R-Raman, ABS, FL, XAS/XES, NRVS
   Peter Pinski           : DLPNO-MP2, DLPNO-MP2 Gradient
   Christoph Reimann      : Effective Core Potentials
   Marius Retegan         : Local ZFS, SOC
   Christoph Riplinger    : Optimizer, TS searches, QM/MM, DLPNO-CCSD(T), (RO)-DLPNO pert. Triples
   Tobias Risthaus        : Range-separated hybrids, TD-DFT gradient, RPA, STAB
   Michael Roemelt        : Original ROCIS implementation
   Masaaki Saitow         : Open-shell DLPNO-CCSD energy and density
   Barbara Sandhoefer     : DKH picture change effects
   Avijit Sen             : IP-ROCIS
   Kantharuban Sivalingam : CASSCF convergence, NEVPT2, FIC-MRCI
   Bernardo de Souza      : ESD, SOC TD-DFT
   Georgi Stoychev        : AutoAux, RI-MP2 NMR
   Willem Van den Heuvel  : Paramagnetic NMR
   Boris Wezisla          : Elementary symmetry handling
   Frank Wennmohs         : Technical directorship


 We gratefully acknowledge several colleagues who have allowed us to
 interface, adapt or use parts of their codes:
   Stefan Grimme, W. Hujo, H. Kruse,             : VdW corrections, initial TS optimization,
                  C. Bannwarth                     DFT functionals, gCP, sTDA/sTD-DF
   Ed Valeev, F. Pavosevic, A. Kumar             : LibInt (2-el integral package), F12 methods
   Garnet Chan, S. Sharma, J. Yang, R. Olivares  : DMRG
   Ulf Ekstrom                                   : XCFun DFT Library
   Mihaly Kallay                                 : mrcc  (arbitrary order and MRCC methods)
   Andreas Klamt, Michael Diedenhofen            : otool_cosmo (COSMO solvation model)
   Jiri Pittner, Ondrej Demel                    : Mk-CCSD
   Frank Weinhold                                : gennbo (NPA and NBO analysis)
   Christopher J. Cramer and Donald G. Truhlar   : smd solvation model
   Lars Goerigk                                  : TD-DFT with DH, B97 family of functionals
   V. Asgeirsson, H. Jonsson                     : NEB implementation
   FAccTs GmbH                                   : IRC, NEB, NEB-TS, Multilevel, MM, QM/MM, CI optimization
   S Lehtola, MJT Oliveira, MAL Marques          : LibXC Library


 Your calculation uses the libint2 library for the computation of 2-el integrals
 For citations please refer to: http://libint.valeyev.net

 Your ORCA version has been built with support for libXC version: 4.2.3
 For citations please refer to: https://tddft.org/programs/libxc/

 This ORCA versions uses:
   CBLAS   interface :  Fast vector & matrix operations
   LAPACKE interface :  Fast linear algebra routines
   SCALAPACK package :  Parallel linear algebra routines




***************************************
The coordinates will be read from file: acetate@water.xyz
***************************************


Your calculation utilizes the SMD solvation module
Please cite in your paper:
A.V. Marenich, C.J. Cramer, D.G. Truhlar J. Phys. Chem. B, 113, (2009), 6378 

----- Orbital basis set information -----
Your calculation utilizes the basis: cc-pVTZ 
       H, B-Ne : Obtained from the ccRepo (grant-hill.group.shef.ac.uk/ccrepo) Feb. 2017
                 T. H. Dunning, Jr., J. Chem. Phys. 90, 1007 (1989)
            He : Obtained from the ccRepo (grant-hill.group.shef.ac.uk/ccrepo) Feb. 2017
                 D. E. Woon, T. H. Dunning, Jr., J. Chem. Phys. 100, 2975 (1994)
  Li-Be, Na-Mg : Obtained from the ccRepo (grant-hill.group.shef.ac.uk/ccrepo) Feb. 2017
                 B. P. Prascher, D. E. Woon, K. A. Peterson, T. H. Dunning, Jr., A. K. Wilson, Theor. Chem. Acc. 128, 69 (2011)
         Al-Ar : Obtained from the ccRepo (grant-hill.group.shef.ac.uk/ccrepo) Feb. 2017
                 D. E. Woon, T. H. Dunning, Jr., J. Chem. Phys. 98, 1358 (1993)
            Ca : Obtained from the Peterson Research Group Website (tyr0.chem.wsu.edu/~kipeters) Feb. 2017
                 J. Koput, K. A. Peterson, J. Phys. Chem. 106, 9595 (2002)
         Sc-Zn : Obtained from the ccRepo (grant-hill.group.shef.ac.uk/ccrepo) Feb. 2017
                 N. B. Balabanov, K. A. Peterson, J. Chem. Phys. 123, 064107 (2005)
                 N. B. Balabanov, K. A. Peterson, J. Chem. Phys. 125, 074110 (2006)
         Ga-Kr : Obtained from the ccRepo (grant-hill.group.shef.ac.uk/ccrepo) Feb. 2017
                 A. K. Wilson, D. E. Woon, K. A. Peterson, T. H. Dunning, Jr., J. Chem. Phys. 110, 7667 (1999)
             Y : Obtained from the ccRepo (grant-hill.group.shef.ac.uk/ccrepo) Feb. 2017
                 K. A. Peterson, D. Figgen, M. Dolg, H. Stoll, J. Chem. Phys. 126, 124101 (2007)
        Ag, Au : Obtained from the Peterson Research Group Website (tyr0.chem.wsu.edu/~kipeters) Feb. 2017
                 K. A. Peterson, C. Puzzarini, Theor. Chem. Acc. 114, 283 (2005)

----- AuxJ basis set information -----
Your calculation utilizes the AutoAux generation procedure.
  G. L. Stoychev, A. A. Auer, F. Neese, J. Chem. Theory Comput. 13, 554 (2017)

----- AuxC basis set information -----
Your calculation utilizes the AutoAux generation procedure.
  G. L. Stoychev, A. A. Auer, F. Neese, J. Chem. Theory Comput. 13, 554 (2017)

----- AuxJK basis set information -----
Your calculation utilizes the AutoAux generation procedure.
  G. L. Stoychev, A. A. Auer, F. Neese, J. Chem. Theory Comput. 13, 554 (2017)

================================================================================
                                        WARNINGS
                       Please study these warnings very carefully!
================================================================================


WARNING: PNO calculations with unrestricted orbitals require UNOs
  ===> : Switching on UNOs

WARNING: Unrestricted DLPNO-CCSD(T0/T) with FullLMP2-Guess requested.
         This is not yet implemented.
         When comparing energies between closed and open shell calculations:
  ===> : Be aware to set UseFullLMP2Guess to false for the corresponding closed shell calculations.
         Note that UseFullLMP2Guess is done by default only for TightPNO closed shell calculations.


WARNING: MDCI localization with Augmented Hessian Foster-Boys
  ===> : Switching off randomization!

WARNING: Post HF methods need fully converged wavefunctions
  ===> : Setting SCFConvForced true
         You can overwrite this default with %scf ConvForced false 


INFO   : the flag for use of LIBINT has been found!

================================================================================
                                       INPUT FILE
================================================================================
NAME = acetate@water.inp
|  1> ! UHF DLPNO-CCSD(T) cc-pVTZ AutoAux TightSCF Grid6 NoFinalGrid PrintBasis PrintMOs NBO
|  2> 
|  3> %pal
|  4>  nprocs 6
|  5> end
|  6> 
|  7> %cpcm
|  8>  smd true
|  9>  smdsolvent "water"
| 10> end
| 11> 
| 12> *xyzfile -1 1 acetate@water.xyz
| 13> 
| 14>                          ****END OF INPUT****
================================================================================

                       ****************************
                       * Single Point Calculation *
                       ****************************

---------------------------------
CARTESIAN COORDINATES (ANGSTROEM)
---------------------------------
  C      0.627644   -1.315547    0.000916
  C     -0.062752    0.036181    0.000703
  H      1.275849   -1.386185    0.876479
  H      1.260164   -1.391664   -0.885848
  H     -0.091414   -2.132579    0.008937
  O     -1.318712    0.070859   -0.013246
  O      0.675603    1.055696    0.012059

----------------------------
CARTESIAN COORDINATES (A.U.)
----------------------------
  NO LB      ZA    FRAG     MASS         X           Y           Z
   0 C     6.0000    0    12.011    1.186075   -2.486024    0.001732
   1 C     6.0000    0    12.011   -0.118583    0.068373    0.001328
   2 H     1.0000    0     1.008    2.411005   -2.619511    1.656305
   3 H     1.0000    0     1.008    2.381364   -2.629865   -1.674011
   4 H     1.0000    0     1.008   -0.172748   -4.029990    0.016888
   5 O     8.0000    0    15.999   -2.492004    0.133903   -0.025031
   6 O     8.0000    0    15.999    1.276705    1.994976    0.022788

--------------------------------
INTERNAL COORDINATES (ANGSTROEM)
--------------------------------
 C      0   0   0     0.000000000000     0.00000000     0.00000000
 C      1   0   0     1.517832613958     0.00000000     0.00000000
 H      1   2   0     1.091681736403   109.13628992     0.00000000
 H      1   2   3     1.091891300536   108.99350966   242.70993534
 H      1   2   3     1.088416158183   111.59324438   121.45762492
 O      2   1   3     1.256516105368   118.63537814   237.37117844
 O      2   1   3     1.258851030854   117.03018292    57.50714236

---------------------------
INTERNAL COORDINATES (A.U.)
---------------------------
 C      0   0   0     0.000000000000     0.00000000     0.00000000
 C      1   0   0     2.868287957514     0.00000000     0.00000000
 H      1   2   0     2.062979507205   109.13628992     0.00000000
 H      1   2   3     2.063375526024   108.99350966   242.70993534
 H      1   2   3     2.056808458700   111.59324438   121.45762492
 O      2   1   3     2.374471322007   118.63537814   237.37117844
 O      2   1   3     2.378883691718   117.03018292    57.50714236

---------------------
BASIS SET INFORMATION
---------------------
There are 3 groups of distinct atoms

 Group   1 Type C   : 18s5p2d1f contracted to 4s3p2d1f pattern {8811/311/11/1}
 Group   2 Type H   : 5s2p1d contracted to 3s2p1d pattern {311/11/1}
 Group   3 Type O   : 18s5p2d1f contracted to 4s3p2d1f pattern {8811/311/11/1}

Atom   0C    basis set group =>   1
Atom   1C    basis set group =>   1
Atom   2H    basis set group =>   2
Atom   3H    basis set group =>   2
Atom   4H    basis set group =>   2
Atom   5O    basis set group =>   3
Atom   6O    basis set group =>   3

-------------------------
BASIS SET IN INPUT FORMAT
-------------------------

 # Basis set for element : H 
 NewGTO H 
 S 3 
   1      33.8700000000      0.0254948632
   2       5.0950000000      0.1903627659
   3       1.1590000000      0.8521620222
 S 1 
   1       0.3258000000      1.0000000000
 S 1 
   1       0.1027000000      1.0000000000
 P 1 
   1       1.4070000000      1.0000000000
 P 1 
   1       0.3880000000      1.0000000000
 D 1 
   1       1.0570000000      1.0000000000
  end;

 # Basis set for element : C 
 NewGTO C 
 S 8 
   1    8236.0000000000      0.0005424302
   2    1235.0000000000      0.0041964279
   3     280.8000000000      0.0215409141
   4      79.2700000000      0.0836149496
   5      25.5900000000      0.2398716189
   6       8.9970000000      0.4437518201
   7       3.3190000000      0.3535796965
   8       0.3643000000     -0.0091763661
 S 8 
   1    8236.0000000000     -0.0001963922
   2    1235.0000000000     -0.0015259503
   3     280.8000000000     -0.0078904490
   4      79.2700000000     -0.0315148705
   5      25.5900000000     -0.0969100083
   6       8.9970000000     -0.2205415263
   7       3.3190000000     -0.2960691129
   8       0.3643000000      1.0405034329
 S 1 
   1       0.9059000000      1.0000000000
 S 1 
   1       0.1285000000      1.0000000000
 P 3 
   1      18.7100000000      0.0394263872
   2       4.1330000000      0.2440889849
   3       1.2000000000      0.8154920089
 P 1 
   1       0.3827000000      1.0000000000
 P 1 
   1       0.1209000000      1.0000000000
 D 1 
   1       1.0970000000      1.0000000000
 D 1 
   1       0.3180000000      1.0000000000
 F 1 
   1       0.7610000000      1.0000000000
  end;

 # Basis set for element : O 
 NewGTO O 
 S 8 
   1   15330.0000000000      0.0005201983
   2    2299.0000000000      0.0040233448
   3     522.4000000000      0.0207290833
   4     147.3000000000      0.0810823271
   5      47.5500000000      0.2362263521
   6      16.7600000000      0.4435182094
   7       6.2070000000      0.3586705887
   8       0.6882000000     -0.0083497972
 S 8 
   1   15330.0000000000     -0.0001972360
   2    2299.0000000000     -0.0015350107
   3     522.4000000000     -0.0079511839
   4     147.3000000000     -0.0321134529
   5      47.5500000000     -0.1002696430
   6      16.7600000000     -0.2340471118
   7       6.2070000000     -0.3014109278
   8       0.6882000000      1.0349196495
 S 1 
   1       1.7520000000      1.0000000000
 S 1 
   1       0.2384000000      1.0000000000
 P 3 
   1      34.4600000000      0.0411634896
   2       7.7490000000      0.2577628359
   3       2.2800000000      0.8024192744
 P 1 
   1       0.7156000000      1.0000000000
 P 1 
   1       0.2140000000      1.0000000000
 D 1 
   1       2.3140000000      1.0000000000
 D 1 
   1       0.6450000000      1.0000000000
 F 1 
   1       1.4280000000      1.0000000000
  end;

---------------------------------
AUXILIARY/J BASIS SET INFORMATION
---------------------------------
There are 3 groups of distinct atoms

 Group   1 Type C   : 14s11p10d5f3g contracted to 14s11p10d5f3g pattern {11111111111111/11111111111/1111111111/11111/111}
 Group   2 Type H   : 11s4p3d2f contracted to 11s4p3d2f pattern {11111111111/1111/111/11}
 Group   3 Type O   : 14s11p10d5f3g contracted to 14s11p10d5f3g pattern {11111111111111/11111111111/1111111111/11111/111}

Atom   0C    basis set group =>   1
Atom   1C    basis set group =>   1
Atom   2H    basis set group =>   2
Atom   3H    basis set group =>   2
Atom   4H    basis set group =>   2
Atom   5O    basis set group =>   3
Atom   6O    basis set group =>   3

-------------------------------------
AUXILIARY/J BASIS SET IN INPUT FORMAT
-------------------------------------

 # Auxiliary/J basis set for element : H 
 NewAuxJGTO H 
 S 1 
   1      73.3373968349      1.0000000000
 S 1 
   1      40.7429982416      1.0000000000
 S 1 
   1      22.6349990231      1.0000000000
 S 1 
   1      12.5749994573      1.0000000000
 S 1 
   1       6.9861108096      1.0000000000
 S 1 
   1       3.8811726720      1.0000000000
 S 1 
   1       2.1562070400      1.0000000000
 S 1 
   1       1.1978928000      1.0000000000
 S 1 
   1       0.6654960000      1.0000000000
 S 1 
   1       0.3697200000      1.0000000000
 S 1 
   1       0.2054000000      1.0000000000
 P 1 
   1       3.9256000000      1.0000000000
 P 1 
   1       1.9628000000      1.0000000000
 P 1 
   1       0.9814000000      1.0000000000
 P 1 
   1       0.4907000000      1.0000000000
 D 1 
   1       3.7558400000      1.0000000000
 D 1 
   1       1.7072000000      1.0000000000
 D 1 
   1       0.7760000000      1.0000000000
 F 1 
   1       3.1790000000      1.0000000000
 F 1 
   1       1.4450000000      1.0000000000
  end;

 # Auxiliary/J basis set for element : C 
 NewAuxJGTO C 
 S 1 
   1     503.4992904519      1.0000000000
 S 1 
   1     279.7218280288      1.0000000000
 S 1 
   1     155.4010155716      1.0000000000
 S 1 
   1      86.3338975398      1.0000000000
 S 1 
   1      47.9632764110      1.0000000000
 S 1 
   1      26.6462646728      1.0000000000
 S 1 
   1      14.8034803738      1.0000000000
 S 1 
   1       8.2241557632      1.0000000000
 S 1 
   1       4.5689754240      1.0000000000
 S 1 
   1       2.5383196800      1.0000000000
 S 1 
   1       1.4101776000      1.0000000000
 S 1 
   1       0.7834320000      1.0000000000
 S 1 
   1       0.4352400000      1.0000000000
 S 1 
   1       0.2418000000      1.0000000000
 P 1 
   1      86.3338975398      1.0000000000
 P 1 
   1      47.9632764110      1.0000000000
 P 1 
   1      26.6462646728      1.0000000000
 P 1 
   1      14.8034803738      1.0000000000
 P 1 
   1       8.2241557632      1.0000000000
 P 1 
   1       4.5689754240      1.0000000000
 P 1 
   1       2.5383196800      1.0000000000
 P 1 
   1       1.4101776000      1.0000000000
 P 1 
   1       0.7834320000      1.0000000000
 P 1 
   1       0.4352400000      1.0000000000
 P 1 
   1       0.2418000000      1.0000000000
 D 1 
   1      47.9632764110      1.0000000000
 D 1 
   1      26.6462646728      1.0000000000
 D 1 
   1      14.8034803738      1.0000000000
 D 1 
   1       8.2241557632      1.0000000000
 D 1 
   1       4.5689754240      1.0000000000
 D 1 
   1       2.5383196800      1.0000000000
 D 1 
   1       1.4101776000      1.0000000000
 D 1 
   1       0.7834320000      1.0000000000
 D 1 
   1       0.4352400000      1.0000000000
 D 1 
   1       0.2418000000      1.0000000000
 F 1 
   1      10.2814958400      1.0000000000
 F 1 
   1       4.6734072000      1.0000000000
 F 1 
   1       2.1242760000      1.0000000000
 F 1 
   1       0.9655800000      1.0000000000
 F 1 
   1       0.4389000000      1.0000000000
 G 1 
   1       3.0782400000      1.0000000000
 G 1 
   1       1.3992000000      1.0000000000
 G 1 
   1       0.6360000000      1.0000000000
  end;

 # Auxiliary/J basis set for element : O 
 NewAuxJGTO O 
 S 1 
   1     891.2228962507      1.0000000000
 S 1 
   1     495.1238312504      1.0000000000
 S 1 
   1     275.0687951391      1.0000000000
 S 1 
   1     152.8159972995      1.0000000000
 S 1 
   1      84.8977762775      1.0000000000
 S 1 
   1      47.1654312653      1.0000000000
 S 1 
   1      26.2030173696      1.0000000000
 S 1 
   1      14.5572318720      1.0000000000
 S 1 
   1       8.0873510400      1.0000000000
 S 1 
   1       4.4929728000      1.0000000000
 S 1 
   1       2.4960960000      1.0000000000
 S 1 
   1       1.3867200000      1.0000000000
 S 1 
   1       0.7704000000      1.0000000000
 S 1 
   1       0.4280000000      1.0000000000
 P 1 
   1     152.8159972995      1.0000000000
 P 1 
   1      84.8977762775      1.0000000000
 P 1 
   1      47.1654312653      1.0000000000
 P 1 
   1      26.2030173696      1.0000000000
 P 1 
   1      14.5572318720      1.0000000000
 P 1 
   1       8.0873510400      1.0000000000
 P 1 
   1       4.4929728000      1.0000000000
 P 1 
   1       2.4960960000      1.0000000000
 P 1 
   1       1.3867200000      1.0000000000
 P 1 
   1       0.7704000000      1.0000000000
 P 1 
   1       0.4280000000      1.0000000000
 D 1 
   1      84.8977762775      1.0000000000
 D 1 
   1      47.1654312653      1.0000000000
 D 1 
   1      26.2030173696      1.0000000000
 D 1 
   1      14.5572318720      1.0000000000
 D 1 
   1       8.0873510400      1.0000000000
 D 1 
   1       4.4929728000      1.0000000000
 D 1 
   1       2.4960960000      1.0000000000
 D 1 
   1       1.3867200000      1.0000000000
 D 1 
   1       0.7704000000      1.0000000000
 D 1 
   1       0.4280000000      1.0000000000
 F 1 
   1      20.1225904000      1.0000000000
 F 1 
   1       9.1466320000      1.0000000000
 F 1 
   1       4.1575600000      1.0000000000
 F 1 
   1       1.8898000000      1.0000000000
 F 1 
   1       0.8590000000      1.0000000000
 G 1 
   1       6.2436000000      1.0000000000
 G 1 
   1       2.8380000000      1.0000000000
 G 1 
   1       1.2900000000      1.0000000000
  end;

---------------------------------
AUXILIARY/C BASIS SET INFORMATION
---------------------------------
There are 3 groups of distinct atoms

 Group   1 Type C   : 14s11p10d5f3g contracted to 14s11p10d5f3g pattern {11111111111111/11111111111/1111111111/11111/111}
 Group   2 Type H   : 11s4p3d2f contracted to 11s4p3d2f pattern {11111111111/1111/111/11}
 Group   3 Type O   : 14s11p10d5f3g contracted to 14s11p10d5f3g pattern {11111111111111/11111111111/1111111111/11111/111}

Atom   0C    basis set group =>   1
Atom   1C    basis set group =>   1
Atom   2H    basis set group =>   2
Atom   3H    basis set group =>   2
Atom   4H    basis set group =>   2
Atom   5O    basis set group =>   3
Atom   6O    basis set group =>   3

-------------------------------------
AUXILIARY/C BASIS SET IN INPUT FORMAT
-------------------------------------

 # Auxiliary/C basis set for element : H 
 NewAuxCGTO H 
 S 1 
   1      73.3373968349      1.0000000000
 S 1 
   1      40.7429982416      1.0000000000
 S 1 
   1      22.6349990231      1.0000000000
 S 1 
   1      12.5749994573      1.0000000000
 S 1 
   1       6.9861108096      1.0000000000
 S 1 
   1       3.8811726720      1.0000000000
 S 1 
   1       2.1562070400      1.0000000000
 S 1 
   1       1.1978928000      1.0000000000
 S 1 
   1       0.6654960000      1.0000000000
 S 1 
   1       0.3697200000      1.0000000000
 S 1 
   1       0.2054000000      1.0000000000
 P 1 
   1       3.9256000000      1.0000000000
 P 1 
   1       1.9628000000      1.0000000000
 P 1 
   1       0.9814000000      1.0000000000
 P 1 
   1       0.4907000000      1.0000000000
 D 1 
   1       3.7558400000      1.0000000000
 D 1 
   1       1.7072000000      1.0000000000
 D 1 
   1       0.7760000000      1.0000000000
 F 1 
   1       3.1790000000      1.0000000000
 F 1 
   1       1.4450000000      1.0000000000
  end;

 # Auxiliary/C basis set for element : C 
 NewAuxCGTO C 
 S 1 
   1     503.4992904519      1.0000000000
 S 1 
   1     279.7218280288      1.0000000000
 S 1 
   1     155.4010155716      1.0000000000
 S 1 
   1      86.3338975398      1.0000000000
 S 1 
   1      47.9632764110      1.0000000000
 S 1 
   1      26.6462646728      1.0000000000
 S 1 
   1      14.8034803738      1.0000000000
 S 1 
   1       8.2241557632      1.0000000000
 S 1 
   1       4.5689754240      1.0000000000
 S 1 
   1       2.5383196800      1.0000000000
 S 1 
   1       1.4101776000      1.0000000000
 S 1 
   1       0.7834320000      1.0000000000
 S 1 
   1       0.4352400000      1.0000000000
 S 1 
   1       0.2418000000      1.0000000000
 P 1 
   1      86.3338975398      1.0000000000
 P 1 
   1      47.9632764110      1.0000000000
 P 1 
   1      26.6462646728      1.0000000000
 P 1 
   1      14.8034803738      1.0000000000
 P 1 
   1       8.2241557632      1.0000000000
 P 1 
   1       4.5689754240      1.0000000000
 P 1 
   1       2.5383196800      1.0000000000
 P 1 
   1       1.4101776000      1.0000000000
 P 1 
   1       0.7834320000      1.0000000000
 P 1 
   1       0.4352400000      1.0000000000
 P 1 
   1       0.2418000000      1.0000000000
 D 1 
   1      47.9632764110      1.0000000000
 D 1 
   1      26.6462646728      1.0000000000
 D 1 
   1      14.8034803738      1.0000000000
 D 1 
   1       8.2241557632      1.0000000000
 D 1 
   1       4.5689754240      1.0000000000
 D 1 
   1       2.5383196800      1.0000000000
 D 1 
   1       1.4101776000      1.0000000000
 D 1 
   1       0.7834320000      1.0000000000
 D 1 
   1       0.4352400000      1.0000000000
 D 1 
   1       0.2418000000      1.0000000000
 F 1 
   1      10.2814958400      1.0000000000
 F 1 
   1       4.6734072000      1.0000000000
 F 1 
   1       2.1242760000      1.0000000000
 F 1 
   1       0.9655800000      1.0000000000
 F 1 
   1       0.4389000000      1.0000000000
 G 1 
   1       3.0782400000      1.0000000000
 G 1 
   1       1.3992000000      1.0000000000
 G 1 
   1       0.6360000000      1.0000000000
  end;

 # Auxiliary/C basis set for element : O 
 NewAuxCGTO O 
 S 1 
   1     891.2228962507      1.0000000000
 S 1 
   1     495.1238312504      1.0000000000
 S 1 
   1     275.0687951391      1.0000000000
 S 1 
   1     152.8159972995      1.0000000000
 S 1 
   1      84.8977762775      1.0000000000
 S 1 
   1      47.1654312653      1.0000000000
 S 1 
   1      26.2030173696      1.0000000000
 S 1 
   1      14.5572318720      1.0000000000
 S 1 
   1       8.0873510400      1.0000000000
 S 1 
   1       4.4929728000      1.0000000000
 S 1 
   1       2.4960960000      1.0000000000
 S 1 
   1       1.3867200000      1.0000000000
 S 1 
   1       0.7704000000      1.0000000000
 S 1 
   1       0.4280000000      1.0000000000
 P 1 
   1     152.8159972995      1.0000000000
 P 1 
   1      84.8977762775      1.0000000000
 P 1 
   1      47.1654312653      1.0000000000
 P 1 
   1      26.2030173696      1.0000000000
 P 1 
   1      14.5572318720      1.0000000000
 P 1 
   1       8.0873510400      1.0000000000
 P 1 
   1       4.4929728000      1.0000000000
 P 1 
   1       2.4960960000      1.0000000000
 P 1 
   1       1.3867200000      1.0000000000
 P 1 
   1       0.7704000000      1.0000000000
 P 1 
   1       0.4280000000      1.0000000000
 D 1 
   1      84.8977762775      1.0000000000
 D 1 
   1      47.1654312653      1.0000000000
 D 1 
   1      26.2030173696      1.0000000000
 D 1 
   1      14.5572318720      1.0000000000
 D 1 
   1       8.0873510400      1.0000000000
 D 1 
   1       4.4929728000      1.0000000000
 D 1 
   1       2.4960960000      1.0000000000
 D 1 
   1       1.3867200000      1.0000000000
 D 1 
   1       0.7704000000      1.0000000000
 D 1 
   1       0.4280000000      1.0000000000
 F 1 
   1      20.1225904000      1.0000000000
 F 1 
   1       9.1466320000      1.0000000000
 F 1 
   1       4.1575600000      1.0000000000
 F 1 
   1       1.8898000000      1.0000000000
 F 1 
   1       0.8590000000      1.0000000000
 G 1 
   1       6.2436000000      1.0000000000
 G 1 
   1       2.8380000000      1.0000000000
 G 1 
   1       1.2900000000      1.0000000000
  end;

----------------------------------
AUXILIARY/JK BASIS SET INFORMATION
----------------------------------
There are 3 groups of distinct atoms

 Group   1 Type C   : 14s11p10d5f3g contracted to 14s11p10d5f3g pattern {11111111111111/11111111111/1111111111/11111/111}
 Group   2 Type H   : 11s4p3d2f contracted to 11s4p3d2f pattern {11111111111/1111/111/11}
 Group   3 Type O   : 14s11p10d5f3g contracted to 14s11p10d5f3g pattern {11111111111111/11111111111/1111111111/11111/111}

Atom   0C    basis set group =>   1
Atom   1C    basis set group =>   1
Atom   2H    basis set group =>   2
Atom   3H    basis set group =>   2
Atom   4H    basis set group =>   2
Atom   5O    basis set group =>   3
Atom   6O    basis set group =>   3

--------------------------------------
AUXILIARY/JK BASIS SET IN INPUT FORMAT
--------------------------------------

 # Auxiliary/JK basis set for element : H 
 NewAuxJKGTO H 
 S 1 
   1      73.3373968349      1.0000000000
 S 1 
   1      40.7429982416      1.0000000000
 S 1 
   1      22.6349990231      1.0000000000
 S 1 
   1      12.5749994573      1.0000000000
 S 1 
   1       6.9861108096      1.0000000000
 S 1 
   1       3.8811726720      1.0000000000
 S 1 
   1       2.1562070400      1.0000000000
 S 1 
   1       1.1978928000      1.0000000000
 S 1 
   1       0.6654960000      1.0000000000
 S 1 
   1       0.3697200000      1.0000000000
 S 1 
   1       0.2054000000      1.0000000000
 P 1 
   1       3.9256000000      1.0000000000
 P 1 
   1       1.9628000000      1.0000000000
 P 1 
   1       0.9814000000      1.0000000000
 P 1 
   1       0.4907000000      1.0000000000
 D 1 
   1       3.7558400000      1.0000000000
 D 1 
   1       1.7072000000      1.0000000000
 D 1 
   1       0.7760000000      1.0000000000
 F 1 
   1       3.1790000000      1.0000000000
 F 1 
   1       1.4450000000      1.0000000000
  end;

 # Auxiliary/JK basis set for element : C 
 NewAuxJKGTO C 
 S 1 
   1     503.4992904519      1.0000000000
 S 1 
   1     279.7218280288      1.0000000000
 S 1 
   1     155.4010155716      1.0000000000
 S 1 
   1      86.3338975398      1.0000000000
 S 1 
   1      47.9632764110      1.0000000000
 S 1 
   1      26.6462646728      1.0000000000
 S 1 
   1      14.8034803738      1.0000000000
 S 1 
   1       8.2241557632      1.0000000000
 S 1 
   1       4.5689754240      1.0000000000
 S 1 
   1       2.5383196800      1.0000000000
 S 1 
   1       1.4101776000      1.0000000000
 S 1 
   1       0.7834320000      1.0000000000
 S 1 
   1       0.4352400000      1.0000000000
 S 1 
   1       0.2418000000      1.0000000000
 P 1 
   1      86.3338975398      1.0000000000
 P 1 
   1      47.9632764110      1.0000000000
 P 1 
   1      26.6462646728      1.0000000000
 P 1 
   1      14.8034803738      1.0000000000
 P 1 
   1       8.2241557632      1.0000000000
 P 1 
   1       4.5689754240      1.0000000000
 P 1 
   1       2.5383196800      1.0000000000
 P 1 
   1       1.4101776000      1.0000000000
 P 1 
   1       0.7834320000      1.0000000000
 P 1 
   1       0.4352400000      1.0000000000
 P 1 
   1       0.2418000000      1.0000000000
 D 1 
   1      47.9632764110      1.0000000000
 D 1 
   1      26.6462646728      1.0000000000
 D 1 
   1      14.8034803738      1.0000000000
 D 1 
   1       8.2241557632      1.0000000000
 D 1 
   1       4.5689754240      1.0000000000
 D 1 
   1       2.5383196800      1.0000000000
 D 1 
   1       1.4101776000      1.0000000000
 D 1 
   1       0.7834320000      1.0000000000
 D 1 
   1       0.4352400000      1.0000000000
 D 1 
   1       0.2418000000      1.0000000000
 F 1 
   1      10.2814958400      1.0000000000
 F 1 
   1       4.6734072000      1.0000000000
 F 1 
   1       2.1242760000      1.0000000000
 F 1 
   1       0.9655800000      1.0000000000
 F 1 
   1       0.4389000000      1.0000000000
 G 1 
   1       3.0782400000      1.0000000000
 G 1 
   1       1.3992000000      1.0000000000
 G 1 
   1       0.6360000000      1.0000000000
  end;

 # Auxiliary/JK basis set for element : O 
 NewAuxJKGTO O 
 S 1 
   1     891.2228962507      1.0000000000
 S 1 
   1     495.1238312504      1.0000000000
 S 1 
   1     275.0687951391      1.0000000000
 S 1 
   1     152.8159972995      1.0000000000
 S 1 
   1      84.8977762775      1.0000000000
 S 1 
   1      47.1654312653      1.0000000000
 S 1 
   1      26.2030173696      1.0000000000
 S 1 
   1      14.5572318720      1.0000000000
 S 1 
   1       8.0873510400      1.0000000000
 S 1 
   1       4.4929728000      1.0000000000
 S 1 
   1       2.4960960000      1.0000000000
 S 1 
   1       1.3867200000      1.0000000000
 S 1 
   1       0.7704000000      1.0000000000
 S 1 
   1       0.4280000000      1.0000000000
 P 1 
   1     152.8159972995      1.0000000000
 P 1 
   1      84.8977762775      1.0000000000
 P 1 
   1      47.1654312653      1.0000000000
 P 1 
   1      26.2030173696      1.0000000000
 P 1 
   1      14.5572318720      1.0000000000
 P 1 
   1       8.0873510400      1.0000000000
 P 1 
   1       4.4929728000      1.0000000000
 P 1 
   1       2.4960960000      1.0000000000
 P 1 
   1       1.3867200000      1.0000000000
 P 1 
   1       0.7704000000      1.0000000000
 P 1 
   1       0.4280000000      1.0000000000
 D 1 
   1      84.8977762775      1.0000000000
 D 1 
   1      47.1654312653      1.0000000000
 D 1 
   1      26.2030173696      1.0000000000
 D 1 
   1      14.5572318720      1.0000000000
 D 1 
   1       8.0873510400      1.0000000000
 D 1 
   1       4.4929728000      1.0000000000
 D 1 
   1       2.4960960000      1.0000000000
 D 1 
   1       1.3867200000      1.0000000000
 D 1 
   1       0.7704000000      1.0000000000
 D 1 
   1       0.4280000000      1.0000000000
 F 1 
   1      20.1225904000      1.0000000000
 F 1 
   1       9.1466320000      1.0000000000
 F 1 
   1       4.1575600000      1.0000000000
 F 1 
   1       1.8898000000      1.0000000000
 F 1 
   1       0.8590000000      1.0000000000
 G 1 
   1       6.2436000000      1.0000000000
 G 1 
   1       2.8380000000      1.0000000000
 G 1 
   1       1.2900000000      1.0000000000
  end;



           ************************************************************
           *        Program running with 6 parallel MPI-processes     *
           *              working on a common directory               *
           ************************************************************
------------------------------------------------------------------------------
                           ORCA GTO INTEGRAL CALCULATION
------------------------------------------------------------------------------

                         BASIS SET STATISTICS AND STARTUP INFO

 # of primitive gaussian shells          ...  128
 # of primitive gaussian functions       ...  248
 # of contracted shells                  ...   58
 # of contracted basis functions         ...  162
 Highest angular momentum                ...    3
 Maximum contraction depth               ...    8
 Integral package used                   ... LIBINT
 Integral threshhold            Thresh   ...  2.500e-11
 Primitive cut-off              TCut     ...  2.500e-12


------------------------------ INTEGRAL EVALUATION ----------------------------


 * One electron integrals 
 Pre-screening matrix                    ... done
 Shell pair data                         ... done (   0.001 sec)



           ************************************************************
           *        Program running with 6 parallel MPI-processes     *
           *              working on a common directory               *
           ************************************************************
-------------------------------------------------------------------------------
                                 ORCA SCF
-------------------------------------------------------------------------------

------------
SCF SETTINGS
------------
Hamiltonian:
 Ab initio Hamiltonian  Method          .... Hartree-Fock(GTOs)


General Settings:
 Integral files         IntName         .... acetate@water
 Hartree-Fock type      HFTyp           .... UHF
 Total Charge           Charge          ....   -1
 Multiplicity           Mult            ....    1
 Number of Electrons    NEL             ....   32
 Basis Dimension        Dim             ....  162
 Nuclear Repulsion      ENuc            ....    112.4458922781 Eh

Convergence Acceleration:
 DIIS                   CNVDIIS         .... on
   Start iteration      DIISMaxIt       ....    12
   Startup error        DIISStart       ....  0.200000
   # of expansion vecs  DIISMaxEq       ....     5
   Bias factor          DIISBfac        ....   1.050
   Max. coefficient     DIISMaxC        ....  10.000
 Newton-Raphson         CNVNR           .... off
 SOSCF                  CNVSOSCF        .... off
 Level Shifting         CNVShift        .... on
   Level shift para.    LevelShift      ....    0.2500
   Turn off err/grad.   ShiftErr        ....    0.0010
 Zerner damping         CNVZerner       .... off
 Static damping         CNVDamp         .... on
   Fraction old density DampFac         ....    0.7000
   Max. Damping (<1)    DampMax         ....    0.9800
   Min. Damping (>=0)   DampMin         ....    0.0000
   Turn off err/grad.   DampErr         ....    0.1000
 Fernandez-Rico         CNVRico         .... off

SCF Procedure:
 Maximum # iterations   MaxIter         ....   125
 SCF integral mode      SCFMode         .... Direct
   Integral package                     .... LIBINT
 Reset frequency        DirectResetFreq ....    20
 Integral Threshold     Thresh          ....  2.500e-11 Eh
 Primitive CutOff       TCut            ....  2.500e-12 Eh

Convergence Tolerance:
 Convergence Check Mode ConvCheckMode   .... Total+1el-Energy
 Convergence forced     ConvForced      .... 1
 Energy Change          TolE            ....  1.000e-08 Eh
 1-El. energy change                    ....  1.000e-05 Eh
 DIIS Error             TolErr          ....  5.000e-07


Diagonalization of the overlap matrix:
Smallest eigenvalue                        ... 9.892e-04
Time for diagonalization                   ...    0.006 sec
Threshold for overlap eigenvalues          ... 1.000e-08
Number of eigenvalues below threshold      ... 0
Time for construction of square roots      ...    0.006 sec
Total time needed                          ...    0.012 sec

-------------------
DFT GRID GENERATION
-------------------

General Integration Accuracy     IntAcc      ...  5.340
Radial Grid Type                 RadialGrid  ... Gauss-Chebyshev
Angular Grid (max. acc.)         AngularGrid ... Lebedev-590
Angular grid pruning method      GridPruning ... 3 (G Style)
Weight generation scheme         WeightScheme... Becke
Basis function cutoff            BFCut       ...    1.0000e-11
Integration weight cutoff        WCut        ...    1.0000e-14
Grids for H and He will be reduced by one unit

# of grid points (after initial pruning)     ...  99358 (   0.0 sec)
# of grid points (after weights+screening)   ...  95062 (   0.0 sec)
nearest neighbour list constructed           ...    0.0 sec
Grid point re-assignment to atoms done       ...    0.0 sec
Grid point division into batches done        ...    1.2 sec
Reduced shell lists constructed in    1.3 sec

Total number of grid points                  ...    95062
Total number of batches                      ...     1489
Average number of points per batch           ...       63
Average number of grid points per atom       ...    13580
Average number of shells per batch           ...    54.89 (94.63%)
Average number of basis functions per batch  ...   151.95 (93.80%)
Average number of large shells per batch     ...    49.11 (89.47%)
Average number of large basis fcns per batch ...   135.41 (89.11%)
Maximum spatial batch extension              ...   1.97,  2.50,  4.55 au
Average spatial batch extension              ...   0.13,  0.13,  0.13 au

Time for grid setup =    1.406 sec

------------------------------
INITIAL GUESS: MODEL POTENTIAL
------------------------------
Loading Hartree-Fock densities                     ... done
Calculating cut-offs                               ... done
Setting up the integral package                    ... done
Initializing the effective Hamiltonian             ... done
Starting the Coulomb interaction                   ... done (   0.0 sec)
Reading the grid                                   ... done
Mapping shells                                     ... done
Starting the XC term evaluation                    ... done (   0.1 sec)
Transforming the Hamiltonian                       ... done (   0.0 sec)
Diagonalizing the Hamiltonian                      ... done (   0.0 sec)
Back transforming the eigenvectors                 ... done (   0.0 sec)
Now organizing SCF variables                       ... done
                      ------------------
                      INITIAL GUESS DONE (   1.6 sec)
                      ------------------

--------------------
CPCM SOLVATION MODEL
--------------------
CPCM parameters:
  Epsilon                                         ...      78.3550
  Refrac                                          ...       1.0000
  Rsolv                                           ...       1.3000
  Surface type                                    ...    GEPOL SES
  Epsilon function type                           ...         CPCM
Solvent:                                     ... WATER
SMD-CDS solvent descriptors:
  Soln                                       ...    1.3328
  Soln25                                     ...    1.3323
  Sola                                       ...    0.0000
  Solb                                       ...    0.0000
  Solg                                       ...    0.0000
  Solc                                       ...    0.0000
  Solh                                       ...    0.0000
Radii:
 Radius for C  used is    3.4960 Bohr (=   1.8500 Ang.)
 Radius for H  used is    2.2677 Bohr (=   1.2000 Ang.)
 Radius for O  used is    2.8724 Bohr (=   1.5200 Ang.)
Calculating surface                               ...        done! (  0.0s)
GEPOL surface points                              ...          264
GEPOL Volume                                      ...     386.5640
GEPOL Surface-area                                ...     285.5049
Calculating surface distance matrix               ...        done! (  0.0s)
Performing Cholesky decomposition & store         ...        done! (  0.0s)
Overall time for CPCM initialization              ...                 0.0s
--------------
SCF ITERATIONS
--------------
ITER       Energy         Delta-E        Max-DP      RMS-DP      [F,P]     Damp
               ***  Starting incremental Fock matrix formation  ***
  0   -227.1679574742   0.000000000000 0.02327265  0.00065953  0.3684578 0.7000
  1   -227.2701201005  -0.102162626354 0.02212840  0.00053147  0.2253676 0.7000
                               ***Turning on DIIS***
  2   -227.3291196903  -0.058999589773 0.01279321  0.00032892  0.1281436 0.7000
  3   -227.8699893277  -0.540869637429 0.01878100  0.00055039  0.0827744 0.0000
  4   -227.3989139744   0.471075353310 0.00898228  0.00012812  0.0099576 0.0000
  5   -227.4469243440  -0.048010369538 0.00375937  0.00005912  0.0038066 0.0000
  6   -227.4455068597   0.001417484216 0.00154343  0.00002801  0.0015096 0.0000
  7   -227.4466686068  -0.001161747086 0.00067944  0.00001576  0.0008699 0.0000
  8   -227.4483735154  -0.001704908548 0.00007218  0.00000255  0.0002400 0.0000
  9   -227.4478438470   0.000529668412 0.00002155  0.00000072  0.0000779 0.0000
 10   -227.4479290342  -0.000085187213 0.00001220  0.00000030  0.0000228 0.0000
 11   -227.4479066025   0.000022431696 0.00000301  0.00000008  0.0000070 0.0000
 12   -227.4478975653   0.000009037222 0.00000072  0.00000003  0.0000030 0.0000
                            ***DIIS convergence achieved***

               *****************************************************
               *                     SUCCESS                       *
               *           SCF CONVERGED AFTER  13 CYCLES          *
               *****************************************************


SMD CDS free energy correction energy :                 3.86491     Kcal/mol
Total Energy after SMD CDS correction =              -227.441744620 Eh

----------------
TOTAL SCF ENERGY
----------------

Total Energy       :         -227.44174462 Eh           -6189.00451 eV

Components:
Nuclear Repulsion  :          112.44589228 Eh            3059.80829 eV
Electronic Energy  :         -339.88763690 Eh           -9248.81280 eV
One Electron Energy:         -542.74720596 Eh          -14768.90231 eV
Two Electron Energy:          202.85956906 Eh            5520.08951 eV
CPCM Dielectric    :           -0.13907109 Eh              -3.78432 eV
SMD CDS (Gcds)     :            0.00615912 Eh               0.16760 eV

Virial components:
Potential Energy   :         -454.63639990 Eh          -12371.28539 eV
Kinetic Energy     :          227.19465528 Eh            6182.28087 eV
Virial Ratio       :            2.00108757

CPCM Solvation Model Properties:
Surface-charge          :            0.95999263
Charge-correction       :           -0.00783471 Eh              -0.21319 eV
Free-energy (cav+disp)  :            0.00296693 Eh               0.08073 eV
Corrected G(solv)       :         -227.44661241 Eh           -6189.13697 eV

---------------
SCF CONVERGENCE
---------------

  Last Energy change         ...   -6.1745e-06  Tolerance :   1.0000e-08
  Last MAX-Density change    ...    2.8250e-07  Tolerance :   1.0000e-07
  Last RMS-Density change    ...    8.6553e-09  Tolerance :   5.0000e-09
  Last DIIS Error            ...    9.6028e-07  Tolerance :   5.0000e-07

             **** THE GBW FILE WAS UPDATED (acetate@water.gbw) ****
             **** DENSITY FILE WAS UPDATED (acetate@water.scfp) ****
             **** ENERGY FILE WAS UPDATED (acetate@water.en.tmp) ****
----------------------
UHF SPIN CONTAMINATION
----------------------

Expectation value of <S**2>     :    -0.000000
Ideal value S*(S+1) for S=0.0   :     0.000000
Deviation                       :    -0.000000

             **** THE GBW FILE WAS UPDATED (acetate@water.gbw) ****
             **** DENSITY FILE WAS UPDATED (acetate@water.scfp) ****
----------------
ORBITAL ENERGIES
----------------
                 SPIN UP ORBITALS
  NO   OCC          E(Eh)            E(eV) 
   0   1.0000     -20.489279      -557.5416 
   1   1.0000     -20.486761      -557.4731 
   2   1.0000     -11.329224      -308.2839 
   3   1.0000     -11.204063      -304.8780 
   4   1.0000      -1.373978       -37.3878 
   5   1.0000      -1.266705       -34.4688 
   6   1.0000      -0.969347       -26.3773 
   7   1.0000      -0.711234       -19.3537 
   8   1.0000      -0.618311       -16.8251 
   9   1.0000      -0.616753       -16.7827 
  10   1.0000      -0.594422       -16.1751 
  11   1.0000      -0.536182       -14.5902 
  12   1.0000      -0.507054       -13.7976 
  13   1.0000      -0.411947       -11.2096 
  14   1.0000      -0.408058       -11.1038 
  15   1.0000      -0.406962       -11.0740 
  16   0.0000       0.166184         4.5221 
  17   0.0000       0.209959         5.7133 
  18   0.0000       0.233782         6.3615 
  19   0.0000       0.263682         7.1752 
  20   0.0000       0.304261         8.2794 
  21   0.0000       0.347808         9.4643 
  22   0.0000       0.381829        10.3901 
  23   0.0000       0.412639        11.2285 
  24   0.0000       0.429083        11.6759 
  25   0.0000       0.489004        13.3065 
  26   0.0000       0.551299        15.0016 
  27   0.0000       0.616199        16.7676 
  28   0.0000       0.644802        17.5460 
  29   0.0000       0.646604        17.5950 
  30   0.0000       0.649005        17.6603 
  31   0.0000       0.688999        18.7486 
  32   0.0000       0.745439        20.2844 
  33   0.0000       0.776195        21.1213 
  34   0.0000       0.786908        21.4129 
  35   0.0000       0.798820        21.7370 
  36   0.0000       0.820590        22.3294 
  37   0.0000       0.827786        22.5252 
  38   0.0000       0.871691        23.7199 
  39   0.0000       0.938017        25.5247 
  40   0.0000       0.954443        25.9717 
  41   0.0000       1.045274        28.4434 
  42   0.0000       1.069551        29.1040 
  43   0.0000       1.094455        29.7816 
  44   0.0000       1.177221        32.0338 
  45   0.0000       1.197320        32.5807 
  46   0.0000       1.252081        34.0709 
  47   0.0000       1.264618        34.4120 
  48   0.0000       1.285124        34.9700 
  49   0.0000       1.333342        36.2821 
  50   0.0000       1.387608        37.7587 
  51   0.0000       1.406339        38.2684 
  52   0.0000       1.478193        40.2237 
  53   0.0000       1.504608        40.9425 
  54   0.0000       1.544915        42.0393 
  55   0.0000       1.545578        42.0573 
  56   0.0000       1.600053        43.5396 
  57   0.0000       1.717041        46.7231 
  58   0.0000       1.787027        48.6275 
  59   0.0000       1.808213        49.2040 
  60   0.0000       1.828340        49.7517 
  61   0.0000       1.839798        50.0635 
  62   0.0000       1.950800        53.0840 
  63   0.0000       2.017124        54.8887 
  64   0.0000       2.041541        55.5532 
  65   0.0000       2.234647        60.8078 
  66   0.0000       2.343132        63.7599 
  67   0.0000       2.363535        64.3150 
  68   0.0000       2.367960        64.4355 
  69   0.0000       2.472716        67.2860 
  70   0.0000       2.489220        67.7351 
  71   0.0000       2.537738        69.0554 
  72   0.0000       2.626928        71.4823 
  73   0.0000       2.684678        73.0538 
  74   0.0000       2.724975        74.1503 
  75   0.0000       2.868465        78.0549 
  76   0.0000       2.883823        78.4728 
  77   0.0000       2.891445        78.6802 
  78   0.0000       2.934855        79.8615 
  79   0.0000       3.108089        84.5754 
  80   0.0000       3.111606        84.6711 
  81   0.0000       3.127448        85.1022 
  82   0.0000       3.160200        85.9934 
  83   0.0000       3.216649        87.5295 
  84   0.0000       3.284954        89.3881 
  85   0.0000       3.300789        89.8190 
  86   0.0000       3.313390        90.1619 
  87   0.0000       3.369326        91.6840 
  88   0.0000       3.419686        93.0544 
  89   0.0000       3.444206        93.7216 
  90   0.0000       3.448019        93.8254 
  91   0.0000       3.567875        97.0868 
  92   0.0000       3.590068        97.6907 
  93   0.0000       3.629390        98.7607 
  94   0.0000       3.641166        99.0812 
  95   0.0000       3.644029        99.1591 
  96   0.0000       3.675811       100.0239 
  97   0.0000       3.767101       102.5080 
  98   0.0000       3.805166       103.5438 
  99   0.0000       3.809989       103.6751 
 100   0.0000       3.831252       104.2537 
 101   0.0000       3.934637       107.0669 
 102   0.0000       3.986581       108.4804 
 103   0.0000       4.041576       109.9769 
 104   0.0000       4.104202       111.6810 
 105   0.0000       4.153497       113.0224 
 106   0.0000       4.202503       114.3559 
 107   0.0000       4.250577       115.6641 
 108   0.0000       4.276403       116.3669 
 109   0.0000       4.368264       118.8665 
 110   0.0000       4.395341       119.6033 
 111   0.0000       4.433642       120.6455 
 112   0.0000       4.491403       122.2173 
 113   0.0000       4.502391       122.5163 
 114   0.0000       4.542695       123.6130 
 115   0.0000       4.622176       125.7758 
 116   0.0000       4.655505       126.6827 
 117   0.0000       4.702793       127.9695 
 118   0.0000       4.754721       129.3825 
 119   0.0000       4.847361       131.9034 
 120   0.0000       4.879388       132.7749 
 121   0.0000       5.140053       139.8680 
 122   0.0000       5.203951       141.6067 
 123   0.0000       5.233283       142.4049 
 124   0.0000       5.421965       147.5392 
 125   0.0000       5.495788       149.5480 
 126   0.0000       5.496477       149.5667 
 127   0.0000       5.534168       150.5924 
 128   0.0000       5.564090       151.4066 
 129   0.0000       5.587008       152.0302 
 130   0.0000       5.628612       153.1623 
 131   0.0000       5.645751       153.6287 
 132   0.0000       5.652338       153.8079 
 133   0.0000       5.691209       154.8657 
 134   0.0000       5.700353       155.1145 
 135   0.0000       5.725873       155.8089 
 136   0.0000       5.837044       158.8340 
 137   0.0000       6.035806       164.2426 
 138   0.0000       6.054942       164.7633 
 139   0.0000       6.107454       166.1923 
 140   0.0000       6.210454       168.9951 
 141   0.0000       6.237462       169.7300 
 142   0.0000       6.370727       173.3563 
 143   0.0000       6.619935       180.1376 
 144   0.0000       6.639979       180.6830 
 145   0.0000       6.690831       182.0668 
 146   0.0000       6.702940       182.3963 
 147   0.0000       6.876263       187.1126 
 148   0.0000       6.936396       188.7489 
 149   0.0000       6.980645       189.9530 
 150   0.0000       6.991705       190.2540 
 151   0.0000       7.317834       199.1284 
 152   0.0000       7.366855       200.4623 
 153   0.0000       7.385508       200.9699 
 154   0.0000       7.469391       203.2525 
 155   0.0000       7.608040       207.0253 
 156   0.0000       7.651915       208.2192 
 157   0.0000       7.698005       209.4734 
 158   0.0000       9.224538       251.0124 
 159   0.0000      12.148762       330.5846 
 160   0.0000      12.906162       351.1945 
 161   0.0000      13.990577       380.7030 

                 SPIN DOWN ORBITALS
  NO   OCC          E(Eh)            E(eV) 
   0   1.0000     -20.489279      -557.5416 
   1   1.0000     -20.486761      -557.4731 
   2   1.0000     -11.329224      -308.2839 
   3   1.0000     -11.204063      -304.8780 
   4   1.0000      -1.373978       -37.3878 
   5   1.0000      -1.266705       -34.4688 
   6   1.0000      -0.969347       -26.3773 
   7   1.0000      -0.711234       -19.3537 
   8   1.0000      -0.618311       -16.8251 
   9   1.0000      -0.616753       -16.7827 
  10   1.0000      -0.594422       -16.1751 
  11   1.0000      -0.536182       -14.5902 
  12   1.0000      -0.507054       -13.7976 
  13   1.0000      -0.411947       -11.2096 
  14   1.0000      -0.408058       -11.1038 
  15   1.0000      -0.406962       -11.0740 
  16   0.0000       0.166184         4.5221 
  17   0.0000       0.209959         5.7133 
  18   0.0000       0.233782         6.3615 
  19   0.0000       0.263682         7.1752 
  20   0.0000       0.304261         8.2794 
  21   0.0000       0.347808         9.4643 
  22   0.0000       0.381829        10.3901 
  23   0.0000       0.412639        11.2285 
  24   0.0000       0.429083        11.6759 
  25   0.0000       0.489004        13.3065 
  26   0.0000       0.551299        15.0016 
  27   0.0000       0.616199        16.7676 
  28   0.0000       0.644802        17.5460 
  29   0.0000       0.646604        17.5950 
  30   0.0000       0.649005        17.6603 
  31   0.0000       0.688999        18.7486 
  32   0.0000       0.745439        20.2844 
  33   0.0000       0.776195        21.1213 
  34   0.0000       0.786908        21.4129 
  35   0.0000       0.798820        21.7370 
  36   0.0000       0.820590        22.3294 
  37   0.0000       0.827786        22.5252 
  38   0.0000       0.871691        23.7199 
  39   0.0000       0.938017        25.5247 
  40   0.0000       0.954443        25.9717 
  41   0.0000       1.045274        28.4434 
  42   0.0000       1.069551        29.1040 
  43   0.0000       1.094455        29.7816 
  44   0.0000       1.177221        32.0338 
  45   0.0000       1.197320        32.5807 
  46   0.0000       1.252081        34.0709 
  47   0.0000       1.264618        34.4120 
  48   0.0000       1.285124        34.9700 
  49   0.0000       1.333342        36.2821 
  50   0.0000       1.387608        37.7587 
  51   0.0000       1.406339        38.2684 
  52   0.0000       1.478193        40.2237 
  53   0.0000       1.504608        40.9425 
  54   0.0000       1.544915        42.0393 
  55   0.0000       1.545578        42.0573 
  56   0.0000       1.600053        43.5396 
  57   0.0000       1.717041        46.7231 
  58   0.0000       1.787027        48.6275 
  59   0.0000       1.808213        49.2040 
  60   0.0000       1.828340        49.7517 
  61   0.0000       1.839798        50.0635 
  62   0.0000       1.950800        53.0840 
  63   0.0000       2.017124        54.8887 
  64   0.0000       2.041541        55.5532 
  65   0.0000       2.234647        60.8078 
  66   0.0000       2.343132        63.7599 
  67   0.0000       2.363535        64.3150 
  68   0.0000       2.367960        64.4355 
  69   0.0000       2.472716        67.2860 
  70   0.0000       2.489220        67.7351 
  71   0.0000       2.537738        69.0554 
  72   0.0000       2.626928        71.4823 
  73   0.0000       2.684678        73.0538 
  74   0.0000       2.724975        74.1503 
  75   0.0000       2.868465        78.0549 
  76   0.0000       2.883823        78.4728 
  77   0.0000       2.891445        78.6802 
  78   0.0000       2.934855        79.8615 
  79   0.0000       3.108089        84.5754 
  80   0.0000       3.111606        84.6711 
  81   0.0000       3.127448        85.1022 
  82   0.0000       3.160200        85.9934 
  83   0.0000       3.216649        87.5295 
  84   0.0000       3.284954        89.3881 
  85   0.0000       3.300789        89.8190 
  86   0.0000       3.313390        90.1619 
  87   0.0000       3.369326        91.6840 
  88   0.0000       3.419686        93.0544 
  89   0.0000       3.444206        93.7216 
  90   0.0000       3.448019        93.8254 
  91   0.0000       3.567875        97.0868 
  92   0.0000       3.590068        97.6907 
  93   0.0000       3.629390        98.7607 
  94   0.0000       3.641166        99.0812 
  95   0.0000       3.644029        99.1591 
  96   0.0000       3.675811       100.0239 
  97   0.0000       3.767101       102.5080 
  98   0.0000       3.805166       103.5438 
  99   0.0000       3.809989       103.6751 
 100   0.0000       3.831252       104.2537 
 101   0.0000       3.934637       107.0669 
 102   0.0000       3.986581       108.4804 
 103   0.0000       4.041576       109.9769 
 104   0.0000       4.104202       111.6810 
 105   0.0000       4.153497       113.0224 
 106   0.0000       4.202503       114.3559 
 107   0.0000       4.250577       115.6641 
 108   0.0000       4.276403       116.3669 
 109   0.0000       4.368264       118.8665 
 110   0.0000       4.395341       119.6033 
 111   0.0000       4.433642       120.6455 
 112   0.0000       4.491403       122.2173 
 113   0.0000       4.502391       122.5163 
 114   0.0000       4.542695       123.6130 
 115   0.0000       4.622176       125.7758 
 116   0.0000       4.655505       126.6827 
 117   0.0000       4.702793       127.9695 
 118   0.0000       4.754721       129.3825 
 119   0.0000       4.847361       131.9034 
 120   0.0000       4.879388       132.7749 
 121   0.0000       5.140053       139.8680 
 122   0.0000       5.203951       141.6067 
 123   0.0000       5.233283       142.4049 
 124   0.0000       5.421965       147.5392 
 125   0.0000       5.495788       149.5480 
 126   0.0000       5.496477       149.5667 
 127   0.0000       5.534168       150.5924 
 128   0.0000       5.564090       151.4066 
 129   0.0000       5.587008       152.0302 
 130   0.0000       5.628612       153.1623 
 131   0.0000       5.645751       153.6287 
 132   0.0000       5.652338       153.8079 
 133   0.0000       5.691209       154.8657 
 134   0.0000       5.700353       155.1145 
 135   0.0000       5.725873       155.8089 
 136   0.0000       5.837044       158.8340 
 137   0.0000       6.035806       164.2426 
 138   0.0000       6.054942       164.7633 
 139   0.0000       6.107454       166.1923 
 140   0.0000       6.210454       168.9951 
 141   0.0000       6.237462       169.7300 
 142   0.0000       6.370727       173.3563 
 143   0.0000       6.619935       180.1376 
 144   0.0000       6.639979       180.6830 
 145   0.0000       6.690831       182.0668 
 146   0.0000       6.702940       182.3963 
 147   0.0000       6.876263       187.1126 
 148   0.0000       6.936396       188.7489 
 149   0.0000       6.980645       189.9530 
 150   0.0000       6.991705       190.2540 
 151   0.0000       7.317834       199.1284 
 152   0.0000       7.366855       200.4623 
 153   0.0000       7.385508       200.9699 
 154   0.0000       7.469391       203.2525 
 155   0.0000       7.608040       207.0253 
 156   0.0000       7.651915       208.2192 
 157   0.0000       7.698005       209.4734 
 158   0.0000       9.224538       251.0124 
 159   0.0000      12.148762       330.5846 
 160   0.0000      12.906162       351.1945 
 161   0.0000      13.990577       380.7030 
------------------
MOLECULAR ORBITALS
------------------
                      0         1         2         3         4         5   
                 -20.48928 -20.48676 -11.32922 -11.20406  -1.37398  -1.26670
                   1.00000   1.00000   1.00000   1.00000   1.00000   1.00000
                  --------  --------  --------  --------  --------  --------
  0C   1s        -0.000132 -0.000092 -0.002352  0.978505  0.002973  0.000195
  0C   2s        -0.000252 -0.000176  0.000030  0.001816 -0.044402  0.002784
  0C   3s         0.000005 -0.000010 -0.000266  0.041409 -0.010543  0.000416
  0C   4s         0.000407  0.000855  0.002170  0.007108 -0.004925  0.005319
  0C   1pz       -0.000000 -0.000000  0.000001 -0.000005  0.000003  0.000079
  0C   1px        0.000018 -0.000002  0.000079  0.000077  0.007122  0.005987
  0C   1py        0.000025  0.000014 -0.000175  0.000029 -0.013769  0.003628
  0C   2pz       -0.000008 -0.000006 -0.000003  0.000003  0.000016  0.000124
  0C   2px        0.000088  0.000361  0.000195  0.000230  0.003326  0.010865
  0C   2py       -0.000446 -0.000365 -0.000289 -0.000425 -0.008598  0.005616
  0C   3pz       -0.000002 -0.000011  0.000001 -0.000003  0.000004 -0.000047
  0C   3px        0.000339 -0.000251 -0.000543 -0.000056 -0.001142 -0.002564
  0C   3py        0.000218 -0.000051  0.000943  0.000327 -0.000530 -0.000720
  0C   1dz2       0.000049  0.000069 -0.000032  0.000064  0.000925  0.000331
  0C   1dxz      -0.000002 -0.000001  0.000001  0.000001 -0.000010  0.000003
  0C   1dyz       0.000000  0.000000 -0.000000 -0.000001  0.000002  0.000023
  0C   1dx2y2     0.000022  0.000030 -0.000014  0.000074  0.000632 -0.001415
  0C   1dxy       0.000016  0.000002 -0.000002  0.000130  0.000715  0.000784
  0C   2dz2      -0.000318 -0.000009  0.000002  0.000124 -0.004356  0.001572
  0C   2dxz      -0.000002  0.000008 -0.000002  0.000001  0.000088  0.000066
  0C   2dyz      -0.000001  0.000001 -0.000006 -0.000000 -0.000072 -0.000001
  0C   2dx2y2     0.000038  0.000160 -0.000244  0.000123 -0.002751  0.002246
  0C   2dxy       0.000337  0.000169 -0.000283  0.000122  0.000186 -0.001766
  0C   1f0        0.000001 -0.000001 -0.000000 -0.000015  0.000015 -0.000014
  0C   1f+1       0.000014  0.000017  0.000047  0.000698 -0.000779  0.000044
  0C   1f-1      -0.000004 -0.000009 -0.000146  0.000025 -0.000257 -0.000387
  0C   1f+2      -0.000000  0.000000  0.000001  0.000007  0.000003  0.000007
  0C   1f-2       0.000001  0.000001 -0.000003  0.000006 -0.000026 -0.000016
  0C   1f+3       0.000015  0.000038 -0.000330 -0.000473 -0.000939  0.000325
  0C   1f-3       0.000001  0.000039  0.000003  0.000192 -0.000212  0.001168
  1C   1s        -0.000508 -0.000516 -0.978646 -0.002598  0.020359 -0.000058
  1C   2s        -0.001123 -0.001137 -0.001151  0.000053 -0.282243  0.002864
  1C   3s         0.000067  0.000080 -0.040488  0.000127 -0.062157  0.000629
  1C   4s         0.000705  0.000695 -0.004262 -0.001871 -0.070316 -0.000885
  1C   1pz        0.000001 -0.000001 -0.000001  0.000000  0.000138  0.001560
  1C   1px        0.000109 -0.000060  0.000115  0.000102  0.024493  0.122825
  1C   1py       -0.000002 -0.000088 -0.000223 -0.000230 -0.046468  0.060583
  1C   2pz        0.000025 -0.000018  0.000003 -0.000000  0.000184  0.001440
  1C   2px        0.002167 -0.001273  0.000088  0.000158  0.022617  0.114028
  1C   2py        0.000003 -0.001708 -0.000285 -0.000127 -0.044577  0.056061
  1C   3pz       -0.000013  0.000010  0.000000 -0.000002  0.000014  0.000311
  1C   3px       -0.001161  0.000688 -0.000785 -0.000202  0.006783  0.023874
  1C   3py        0.000056  0.000972  0.001439  0.000665 -0.011594  0.013134
  1C   1dz2       0.000219  0.000224  0.000746  0.000055  0.014744 -0.000125
  1C   1dxz      -0.000008 -0.000004 -0.000017 -0.000001 -0.000378 -0.000119
  1C   1dyz       0.000000 -0.000005 -0.000007 -0.000001 -0.000158  0.000166
  1C   1dx2y2    -0.000368  0.000139 -0.000202 -0.000015 -0.006522 -0.014108
  1C   1dxy       0.000047 -0.000345 -0.000247 -0.000006 -0.008199  0.010856
  1C   2dz2       0.000222  0.000189  0.000222  0.000108  0.018287 -0.000411
  1C   2dxz      -0.000017 -0.000005 -0.000004  0.000000 -0.000469 -0.000117
  1C   2dyz       0.000003 -0.000016 -0.000003 -0.000000 -0.000247  0.000123
  1C   2dx2y2    -0.001266  0.000272  0.000006  0.000143 -0.010436 -0.011324
  1C   2dxy       0.000059 -0.001149 -0.000043  0.000164 -0.010978  0.008611
  1C   1f0       -0.000005  0.000004 -0.000001  0.000001 -0.000021 -0.000070
  1C   1f+1      -0.000184  0.000124 -0.000043  0.000033 -0.000682 -0.002313
  1C   1f-1      -0.000021  0.000150  0.000093 -0.000121  0.001515 -0.001108
  1C   1f+2       0.000004 -0.000000  0.000012  0.000002  0.000180  0.000036
  1C   1f-2       0.000000 -0.000004 -0.000008 -0.000001 -0.000122  0.000042
  1C   1f+3      -0.000069 -0.000077 -0.000832 -0.000300 -0.013077 -0.000085
  1C   1f-3       0.000011  0.000002  0.000166  0.000035  0.002463 -0.000692
  2H   1s         0.000009  0.000048  0.000011  0.000179 -0.004212  0.001960
  2H   2s         0.000068 -0.000396 -0.000227 -0.000987 -0.000281 -0.002159
  2H   3s        -0.000100 -0.000089  0.000236 -0.000808 -0.001099  0.000547
  2H   1pz       -0.000008  0.000010  0.000033  0.000266  0.000265 -0.000138
  2H   1px        0.000006 -0.000011 -0.000006  0.000202  0.000148 -0.000171
  2H   1py       -0.000004  0.000019  0.000023 -0.000023 -0.000278  0.000382
  2H   2pz        0.000083  0.000162  0.000046  0.000344 -0.000679  0.001429
  2H   2px       -0.000143  0.000121  0.000074  0.000265 -0.000812  0.001078
  2H   2py        0.000013 -0.000104  0.000130 -0.000057 -0.000681  0.000185
  2H   1dz2      -0.000029 -0.000013 -0.000031 -0.000134  0.000055 -0.000209
  2H   1dxz       0.000007 -0.000024 -0.000014 -0.000242  0.000048 -0.000049
  2H   1dyz       0.000005  0.000008 -0.000036  0.000036  0.000162 -0.000259
  2H   1dx2y2     0.000005  0.000010 -0.000020 -0.000098  0.000188 -0.000170
  2H   1dxy      -0.000017  0.000002 -0.000022  0.000032  0.000333  0.000015
  3H   1s         0.000013  0.000051  0.000011  0.000180 -0.004177  0.001858
  3H   2s         0.000053 -0.000396 -0.000233 -0.000983 -0.000204 -0.002113
  3H   3s        -0.000107 -0.000103  0.000240 -0.000810 -0.001123  0.000462
  3H   1pz        0.000007 -0.000010 -0.000032 -0.000269 -0.000255  0.000134
  3H   1px        0.000004 -0.000012 -0.000006  0.000196  0.000138 -0.000151
  3H   1py       -0.000002  0.000020  0.000022 -0.000025 -0.000275  0.000367
  3H   2pz       -0.000087 -0.000164 -0.000049 -0.000348  0.000732 -0.001384
  3H   2px       -0.000131  0.000123  0.000072  0.000258 -0.000737  0.001022
  3H   2py        0.000007 -0.000104  0.000124 -0.000060 -0.000764  0.000144
  3H   1dz2      -0.000030 -0.000013 -0.000030 -0.000141  0.000080 -0.000204
  3H   1dxz      -0.000006  0.000025  0.000013  0.000240 -0.000042  0.000042
  3H   1dyz      -0.000005 -0.000009  0.000034 -0.000039 -0.000184  0.000243
  3H   1dx2y2     0.000004  0.000010 -0.000019 -0.000093  0.000185 -0.000178
  3H   1dxy      -0.000015  0.000002 -0.000019  0.000033  0.000354  0.000034
  4H   1s        -0.000021 -0.000032 -0.000002  0.000152 -0.004844 -0.002589
  4H   2s        -0.000478 -0.000122 -0.000096 -0.000881 -0.004428  0.001028
  4H   3s         0.000148 -0.000033  0.000124 -0.000709 -0.001370 -0.002528
  4H   1pz        0.000000 -0.000001  0.000001  0.000003  0.000008  0.000002
  4H   1px       -0.000003  0.000025 -0.000068 -0.000230 -0.000202  0.000102
  4H   1py       -0.000012 -0.000035  0.000015 -0.000261 -0.000661 -0.000609
  4H   2pz        0.000004  0.000006 -0.000002  0.000002  0.000026 -0.000003
  4H   2px       -0.000090 -0.000027 -0.000167 -0.000247 -0.000562  0.002149
  4H   2py       -0.000164  0.000111  0.000084 -0.000304  0.001014  0.000485
  4H   1dz2       0.000021 -0.000030 -0.000005  0.000138  0.000039 -0.000090
  4H   1dxz       0.000000 -0.000000  0.000001  0.000002  0.000008 -0.000009
  4H   1dyz       0.000001  0.000001 -0.000000  0.000002  0.000005  0.000005
  4H   1dx2y2     0.000006 -0.000003 -0.000098  0.000036 -0.000280  0.000571
  4H   1dxy       0.000011  0.000009 -0.000063 -0.000246  0.000083  0.000147
  5O   1s        -0.975221 -0.007068  0.000392  0.000032  0.008760  0.006906
  5O   2s         0.001724 -0.000291  0.000111  0.000047 -0.310699 -0.355080
  5O   3s        -0.043633 -0.000257 -0.000251 -0.000002 -0.080233 -0.091152
  5O   4s        -0.002859 -0.000053 -0.000057  0.000205 -0.148630 -0.215063
  5O   1pz       -0.000018  0.000000 -0.000004 -0.000000 -0.000579 -0.000400
  5O   1px       -0.001614  0.000006 -0.000355 -0.000009 -0.051970 -0.038765
  5O   1py        0.000018  0.000012 -0.000004 -0.000008 -0.002206  0.008370
  5O   2pz        0.000021 -0.000003  0.000003  0.000001 -0.000686 -0.000599
  5O   2px        0.001903 -0.000165  0.000189  0.000094 -0.061751 -0.057342
  5O   2py       -0.000034 -0.000040  0.000075  0.000085 -0.003872  0.011032
  5O   3pz       -0.000001 -0.000002 -0.000005  0.000003  0.000034 -0.000037
  5O   3px       -0.000145 -0.000160 -0.000219  0.000046 -0.000603 -0.005950
  5O   3py       -0.000012 -0.000400 -0.000239  0.000036  0.000207  0.001774
  5O   1dz2       0.000095  0.000019 -0.000033 -0.000009  0.002767  0.002389
  5O   1dxz      -0.000002 -0.000000  0.000001  0.000000 -0.000105 -0.000089
  5O   1dyz      -0.000000  0.000000  0.000000  0.000000 -0.000004  0.000012
  5O   1dx2y2    -0.000054  0.000003  0.000011  0.000007 -0.004513 -0.004075
  5O   1dxy       0.000003  0.000015  0.000003 -0.000009 -0.000212  0.001002
  5O   2dz2      -0.000254 -0.000023 -0.000100  0.000001  0.003588  0.006123
  5O   2dxz       0.000012 -0.000001  0.000005  0.000002 -0.000142 -0.000232
  5O   2dyz      -0.000001 -0.000001 -0.000000 -0.000000  0.000000  0.000017
  5O   2dx2y2     0.000601 -0.000072  0.000272  0.000074 -0.007226 -0.010913
  5O   2dxy      -0.000032 -0.000078 -0.000002  0.000064 -0.000383  0.001804
  5O   1f0       -0.000002 -0.000000 -0.000001 -0.000000  0.000054  0.000051
  5O   1f+1      -0.000065 -0.000012 -0.000030  0.000001  0.001902  0.001872
  5O   1f-1       0.000003 -0.000009 -0.000004  0.000005  0.000051 -0.000196
  5O   1f+2       0.000002  0.000000  0.000002  0.000001 -0.000068 -0.000074
  5O   1f-2      -0.000000  0.000000 -0.000000 -0.000000 -0.000005  0.000019
  5O   1f+3      -0.000068  0.000007 -0.000098 -0.000037  0.002410  0.003112
  5O   1f-3       0.000005 -0.000010  0.000003 -0.000004  0.000203 -0.000959
  6O   1s         0.006715 -0.975222  0.000382  0.000038  0.008599 -0.007159
  6O   2s        -0.000319  0.001720  0.000101  0.000057 -0.303801  0.359835
  6O   3s         0.000360 -0.043636 -0.000250  0.000003 -0.078463  0.092343
  6O   4s        -0.000100 -0.002987  0.000098 -0.000031 -0.146711  0.218469
  6O   1pz       -0.000000  0.000014  0.000003 -0.000000  0.000490 -0.000308
  6O   1px       -0.000030  0.000957  0.000225  0.000010  0.032770 -0.017369
  6O   1py       -0.000017  0.001296  0.000280 -0.000009  0.039108 -0.036456
  6O   2pz        0.000002 -0.000017 -0.000002 -0.000001  0.000595 -0.000460
  6O   2px        0.000168 -0.001105 -0.000203 -0.000097  0.040047 -0.026784
  6O   2py        0.000140 -0.001525 -0.000122  0.000044  0.045627 -0.053065
  6O   3pz        0.000005  0.000003  0.000002  0.000002  0.000019 -0.000035
  6O   3px        0.000424  0.000121  0.000315 -0.000116  0.000598 -0.001777
  6O   3py       -0.000100  0.000151 -0.000010  0.000042  0.000525 -0.006530
  6O   1dz2       0.000019  0.000088 -0.000033 -0.000009  0.002718 -0.002416
  6O   1dxz      -0.000000 -0.000002  0.000001  0.000000 -0.000055  0.000036
  6O   1dyz      -0.000000 -0.000001  0.000000  0.000000 -0.000066  0.000061
  6O   1dx2y2     0.000014  0.000018  0.000001 -0.000011  0.000966 -0.002016
  6O   1dxy       0.000007 -0.000052  0.000011 -0.000004 -0.004316  0.003736
  6O   2dz2      -0.000021 -0.000253 -0.000104  0.000017  0.003368 -0.006236
  6O   2dxz      -0.000000  0.000004  0.000002  0.000001 -0.000073  0.000092
  6O   2dyz      -0.000001  0.000008  0.000004 -0.000001 -0.000100  0.000160
  6O   2dx2y2    -0.000054 -0.000189 -0.000076  0.000081  0.001201 -0.004751
  6O   2dxy      -0.000104  0.000567  0.000273  0.000103 -0.006823  0.010141
  6O   1f0        0.000000  0.000001  0.000001 -0.000000 -0.000043  0.000040
  6O   1f+1       0.000017  0.000039  0.000022 -0.000005 -0.001146  0.000997
  6O   1f-1       0.000004  0.000054  0.000023 -0.000005 -0.001438  0.001659
  6O   1f+2      -0.000000  0.000000  0.000001  0.000000 -0.000012  0.000035
  6O   1f-2      -0.000000 -0.000002 -0.000001 -0.000000  0.000052 -0.000049
  6O   1f+3       0.000013 -0.000065 -0.000096 -0.000029  0.002060 -0.003272
  6O   1f-3       0.000008  0.000023  0.000035  0.000028 -0.001089  0.000323
                      6         7         8         9        10        11   
                  -0.96935  -0.71123  -0.61831  -0.61675  -0.59442  -0.53618
                   1.00000   1.00000   1.00000   1.00000   1.00000   1.00000
                  --------  --------  --------  --------  --------  --------
  0C   1s        -0.014231  0.003448  0.001666 -0.000660  0.000004 -0.000198
  0C   2s         0.422795 -0.109356 -0.057358 -0.005652 -0.000345  0.003029
  0C   3s         0.081900 -0.020289 -0.012531 -0.000886 -0.000087  0.001051
  0C   4s         0.161227 -0.144032 -0.070110 -0.024671 -0.000471 -0.000728
  0C   1pz       -0.000099 -0.000048  0.000361  0.001108 -0.155147 -0.002336
  0C   1px       -0.005793 -0.047884 -0.065421  0.088508  0.001333 -0.181303
  0C   1py        0.015065  0.093512  0.119353  0.050085  0.001188 -0.098540
  0C   2pz       -0.000129  0.000314  0.000203  0.001344 -0.190784 -0.002907
  0C   2px       -0.007016 -0.062443 -0.076605  0.106133  0.001655 -0.228078
  0C   2py        0.018155  0.109328  0.146241  0.063252  0.001459 -0.122913
  0C   3pz        0.000163  0.000860 -0.000464  0.000878 -0.079414 -0.001220
  0C   3px       -0.000297 -0.017853 -0.024356  0.071197  0.000846 -0.103640
  0C   3py       -0.007600 -0.005053  0.073443  0.036498  0.000567 -0.055690
  0C   1dz2      -0.001566 -0.005162 -0.006290  0.004598  0.000314 -0.011090
  0C   1dxz       0.000012 -0.000009  0.000001  0.000184 -0.009167 -0.000479
  0C   1dyz      -0.000015 -0.000006  0.000015  0.000082 -0.002571 -0.000109
  0C   1dx2y2    -0.001550 -0.005654 -0.006118 -0.000847 -0.000086 -0.005372
  0C   1dxy      -0.001696 -0.007691 -0.008954 -0.002768 -0.000157  0.010930
  0C   2dz2       0.000490 -0.005198 -0.007572  0.001803  0.000339 -0.016405
  0C   2dxz      -0.000048  0.000045 -0.000066  0.000130 -0.008499 -0.000688
  0C   2dyz       0.000018  0.000103 -0.000045  0.000050 -0.004597 -0.000143
  0C   2dx2y2    -0.000749 -0.002598 -0.010621 -0.001586 -0.000128 -0.006228
  0C   2dxy      -0.002548 -0.006423 -0.014052 -0.004648 -0.000141  0.014097
  0C   1f0       -0.000126  0.000068  0.000031 -0.000017  0.001305  0.000001
  0C   1f+1       0.007122 -0.002260 -0.000499 -0.001057  0.000005 -0.000696
  0C   1f-1      -0.002031 -0.000967 -0.002688 -0.000844 -0.000009  0.000107
  0C   1f+2       0.000061 -0.000026 -0.000018 -0.000009  0.000871 -0.000023
  0C   1f-2       0.000058 -0.000004 -0.000033 -0.000036  0.001730  0.000009
  0C   1f+3      -0.007234  0.001330 -0.003096  0.000548  0.000000 -0.000210
  0C   1f-3       0.002222 -0.000266 -0.000175  0.003051  0.000022  0.000532
  1C   1s        -0.001617 -0.005454  0.003512 -0.000248  0.000004 -0.000037
  1C   2s         0.132234  0.332196  0.009272 -0.000823 -0.000311  0.003705
  1C   3s         0.029122  0.078070 -0.003328 -0.000426 -0.000096  0.001190
  1C   4s         0.023811  0.093657  0.074951  0.010959  0.000373 -0.007181
  1C   1pz        0.000049 -0.000025  0.000390  0.001983 -0.137573  0.001068
  1C   1px        0.044544  0.001600  0.081002  0.160323  0.001570  0.084372
  1C   1py       -0.089509 -0.005316 -0.165515  0.077181  0.000226  0.044422
  1C   2pz        0.000024 -0.000100  0.000552  0.001955 -0.182122  0.000903
  1C   2px        0.053177  0.011491  0.098792  0.158006  0.002074  0.072755
  1C   2py       -0.107049 -0.026071 -0.202509  0.077306  0.000392  0.038063
  1C   3pz       -0.000021 -0.000015  0.000216 -0.000823 -0.078217 -0.000381
  1C   3px        0.013939  0.045348  0.015183 -0.061243  0.000878 -0.029040
  1C   3py       -0.025270 -0.083814 -0.039693 -0.035308  0.000056 -0.012360
  1C   1dz2      -0.003209 -0.008321  0.001384  0.000182  0.000048 -0.000558
  1C   1dxz      -0.000030  0.000165 -0.000012 -0.000035  0.001346 -0.000130
  1C   1dyz      -0.000016  0.000057  0.000031  0.000037 -0.003838  0.000147
  1C   1dx2y2    -0.004937  0.000558  0.001479 -0.003510 -0.000046 -0.013173
  1C   1dxy      -0.006932  0.000667  0.001907  0.002444  0.000014  0.010736
  1C   2dz2      -0.001174 -0.003899 -0.003979  0.000329  0.000021 -0.000110
  1C   2dxz      -0.000141 -0.000042 -0.000002  0.000161 -0.001402 -0.000162
  1C   2dyz      -0.000059  0.000088 -0.000098 -0.000101 -0.000175  0.000116
  1C   2dx2y2    -0.008498 -0.002220 -0.007326  0.011966  0.000008 -0.011129
  1C   2dxy      -0.013406 -0.008037 -0.007087 -0.007858  0.000020  0.008309
  1C   1f0        0.000004  0.000016 -0.000024 -0.000038  0.006852 -0.000003
  1C   1f+1      -0.000706 -0.000565 -0.002058 -0.001165 -0.000203 -0.000250
  1C   1f-1       0.001518  0.001051  0.004070 -0.000910 -0.000097  0.000044
  1C   1f+2      -0.000002 -0.000089  0.000074  0.000028 -0.001484  0.000023
  1C   1f-2       0.000004  0.000064 -0.000068  0.000040 -0.001362  0.000032
  1C   1f+3       0.002338  0.008878 -0.001039 -0.000367 -0.000008 -0.000599
  1C   1f-3      -0.000244 -0.001463  0.000372 -0.001638 -0.000024 -0.002451
  2H   1s         0.072260 -0.047109 -0.045264  0.032337 -0.086646 -0.076020
  2H   2s         0.080115 -0.051878 -0.065581  0.055690 -0.136536 -0.115074
  2H   3s         0.008524 -0.017264 -0.018488  0.013918 -0.052563 -0.053442
  2H   1pz       -0.005443  0.003715  0.004187 -0.003556  0.004851  0.006398
  2H   1px       -0.004260  0.001843  0.001586 -0.000576  0.006222  0.001169
  2H   1py        0.000875  0.001398  0.002568  0.001446 -0.001225 -0.002661
  2H   2pz       -0.002337  0.002013  0.004924 -0.003894  0.006132  0.009953
  2H   2px       -0.002209 -0.000833  0.000701 -0.003419  0.010420 -0.002630
  2H   2py        0.002364  0.004815  0.005125  0.005180 -0.002467 -0.003607
  2H   1dz2       0.000215 -0.000644 -0.001298  0.000510 -0.000163 -0.001862
  2H   1dxz       0.000873 -0.000384 -0.000745  0.000756 -0.002098 -0.000862
  2H   1dyz      -0.000464 -0.000624 -0.001085 -0.000967  0.000528  0.000741
  2H   1dx2y2     0.000203 -0.000101 -0.000295 -0.000106 -0.001044  0.000016
  2H   1dxy      -0.000582 -0.000804 -0.000907 -0.000386  0.000724  0.000564
  3H   1s         0.072324 -0.046949 -0.045459  0.030115  0.088554 -0.070878
  3H   2s         0.080273 -0.050862 -0.066543  0.052322  0.139544 -0.107104
[...]
  | beta -beta  ...  -0.0961631124 (err=  0.0001976396, NP_bb=   66)
 Sum of total UMP2 truncation errors ...   0.0013811726 Eh
  | Pair screening ...   0.0000000000 Eh
  | PNO truncation ...   0.0013811726 Eh
 Timing for NEV-PNO construction (sec.)
  | Intermediate construction  ..            0.000
  | Amplitude construction     ..            0.063
  | Total time                 ..            0.063
 Making pair pair interaction lists ...      ok
                                                 
  ___         ___     __        ___  __   __     
 |__  | |\ | |__     / _` |  | |__  /__` /__`   
 |    | | \| |___    \__> \__/ |___ .__/ .__/ 
                                                 

Thresholds for map construction and integral transformation:
   TCutMKN   ...     1.0e-03
   TCutDO    ...     1.0e-02
   TCutCMO   ...     1.0e-03
   TCutCPAO  ...     1.0e-03

Thresholds for map construction and integral transformation for strong Triples:
   TCutMKN   ...     1.0e-02
   TCutDO    ...     2.0e-02
   TCutCMO   ...     1.0e-03
   TCutCPAO  ...     1.0e-03

Thresholds for map construction and integral transformation for weak Triples:
   TCutMKN   ...     1.0e-01
   TCutDO    ...     4.0e-02
   TCutCMO   ...     1.0e-03
   TCutCPAO  ...     1.0e-03

--------------------------------
LOCAL RI TRANSFORMATION (IAVPAO)
--------------------------------

Orbital window:       4 to 15
Number of PAOs:     162
Basis functions:    162 (58 shells)
Aux. functions:     792 (232 shells)

Processing maps (0.0 sec)
Average map sizes:
   Aux shells -> MOs              12.0
   Aux shells -> PAOs            162.0
   MOs        -> AO shells        58.0
   PAOs       -> AO shells        58.0

Calculating integrals (0.3 sec, 11.756 MB)
Sorting integrals (0.0 sec, 11.747 MB)
Total time for the integral transformation: 0.3 sec

 ==> UMP guess in NEV-PNO space 

Truncation parameters                       .... 
    PAOOverlapThresh     =        1.000e-08
Pair selection                          .... not used
    TCutPairs            =        1.000e-04
    TCutMKN              =        1.000e-03
    TCutDO               =        1.000e-02
    TCutCMO              =        1.000e-03
    TCutCPAO             =        1.000e-03
    TCutPNO              =        3.330e-07
    TScaleTCutPNO_SS     =        1.000e+00
    TScaleTCutPNO_SD     =        1.000e+00
    TScalePNO_Core       =        1.000e-02
    TScaleTCutPairs_Somo =        3.300e-01
    TScaleTCutPairs_Core =        1.000e+00
    TCutPairs_MP2        =        1.000e-05
    TCutCMO              =        1.000e-03
    TCutCPAO             =        1.000e-03
Spin component scaling in ijab excitation            .... not used

Formation of guess energy and open-shell PNO.

NEV-PNO operators..
  E(ij->ab)

   .... Finished loop over pairs

 PNO Occupation Number Statistics: 
  | Av. % of trace(Dij) retained        ...  99.466728458609
  | sigma^2 in % of trace(Dij) retained ...   3.18e-01
  | Av. % of trace(Di) retained         ...  99.999345626422
  | sigma^2 in % of trace(Di) retained  ...   2.21e-08
 Distributions of % trace(Dij) recovered:
  |       >= 99.9  ...    30 ( 38.5 % of all IJ-pairs)
  |   [90.0, 99.0) ...    20 ( 25.6 % of all IJ-pairs)
  |   [99.0, 99.9) ...    28 ( 35.9 % of all IJ-pairs)
 Distributions of % trace(Di) recovered :
  |       >= 99.9  ...    12 (100.0 % of all I-pairs )

                       ===========================
                        144 OF  144 PAIRS ARE KEPT
                       ===========================

 Initial PAO correlation energy (all pairs)    ...  -0.7721916378 Eh
 Energy constituents in PAO basis (Eh):
  | Vijab(+0) ...  -0.7721916378
 Initial PNO correlation energy                ...  -0.7708027931 Eh
 Energy constituents in PNO basis (Eh):
  | Vijab(+0) ...  -0.7708027931 (err=  0.0013888447)
 Sum of total truncation errors ...   0.0013888447 Eh
  | Pair screening ...   0.0000000000 Eh
  | PNO truncation ...   0.0013888447 Eh

 UMP2 correlation energy (PAO) ...  -0.7721916378
  | alpha-alpha ...  -0.0963429099 (NP_aa=   66)
  | alpha-beta  ...  -0.5795058180 (NP_ab=  144)
  | beta -beta  ...  -0.0963429099 (NP_bb=   66)
 UMP2 correlation energy (PNO) ...  -0.7708027931
  | alpha-alpha ...  -0.0961483603 (err=  0.0001945496, NP_aa=   66)
  | alpha-beta  ...  -0.5785060724 (err=  0.0009997456, NP_ab=  144)
  | beta -beta  ...  -0.0961483603 (err=  0.0001945496, NP_bb=   66)
 Sum of total UMP2 truncation errors ...   0.0013888447 Eh
  | Pair screening ...   0.0000000000 Eh
  | PNO truncation ...   0.0013888447 Eh
 Timing for NEV-PNO construction (sec.)
  | Intermediate construction  ..            0.000
  | Amplitude construction     ..            0.063
  | Total time                 ..            0.063
 Making pair pair interaction lists ...      ok
 Total size for 2-ext PNO integrals ...      1.3 MB
--------------------------------
LOCAL RI TRANSFORMATION (VABPAO)
--------------------------------

Number of PAOs:     162
Basis functions:    162 (58 shells)
Aux. functions:     792 (232 shells)

Processing maps (0.0 sec)
Average map sizes:
   Aux shells -> PAOs            162.0
   PAOs       -> AO shells        58.0

Calculating integrals (0.8 sec, 290.144 MB)
Finished
-----------------------------
LOCAL RI TRANSFORMATION (IJV)
-----------------------------

Orbital window:       4 to 15
Basis functions:    162 (58 shells)
Aux. functions:     792 (232 shells)

Processing maps (0.0 sec)
Average map sizes:
   Aux shells -> MOs(i)           12.0
   Aux shells -> MOs(j)           12.0
   MOs        -> AO shells        58.0

Calculating integrals (0.3 sec, 0.879 MB)
Sorting integrals (0.0 sec, 0.870 MB)
Total time for the integral transformation: 0.3 sec


-------------------------------------
Pair Pair Term precalculation with     
RI-(ij|mn) and (im|jn) transformation  
ON THE FLY                             
-------------------------------------

   IBatch   1 (of   5)              ... done (    3.552 sec)
   IBatch   2 (of   5)              ... done (    3.436 sec)
   IBatch   3 (of   5)              ... done (    4.343 sec)
   IBatch   4 (of   5)              ... done (    5.356 sec)
   IBatch   5 (of   5)              ... done (    4.618 sec)
Total EXT                           ...          21.305 sec

---------------------
RI-PNO TRANSFORMATION
---------------------

Total Number of PNOs                   ...  4773
Total Number of IJ-PNOs                ...  4773
Total Number of IP-PNOs                ...     0
Total Number of PQ-PNOs                ...     0
Total Number of IJ-pairs               ...   144
Total Number of PI-pairs               ...     0
Total Number of PQ-pairs               ...     0
Average number of PNOs per pair        ...    33
Maximal number of PNOs per pair        ...    51
>> Statistics for ij-pairs..
   #pairs with  1 -  5 PNOs   :    0
   #pairs with  6 - 10 PNOs   :    0
   #pairs with 11 - 15 PNOs   :    0
   #pairs with 16 - 20 PNOs   :   14
   #pairs with 21 - 25 PNOs   :   28
   #pairs with 26 - 30 PNOs   :   22
   #pairs with 31 - 35 PNOs   :   16
   #pairs with 36 - 40 PNOs   :   24
   #pairs with 41 - 45 PNOs   :   23
   #pairs with 46 - 50 PNOs   :   11
   #pairs with 51 - 55 PNOs   :    6
Generation of (ij|ab)[P] integrals            ... on
Generation of (ia|bc)[P],(ja|bc)[P] integrals ... on
Storage of 3 and 4 external integrals         ... on
Generation of ALL (ka|bc)[P] integrals        ... on
Keep RI integrals in memory                   ... off

Ibatch:  1 (of  1)
Starting 2-4 index PNO integral generation ... done

Timings:
Total PNO integral transformation time     ...          8.173 sec
Size of the 3-external file                ...        28 MB
Size of the 4-external file                ...       147 MB
Size of the IKJL file                      ...         0 MB
Size of the all 3-external file            ...       171 MB
Size of the 1-external file                ...         0 MB

Size of the PAO/PNO coefficient matrices   ...       5.9 MB

Making pair/pair overlap matrices          ... done (    0.543 sec)
Size of the pair overlap file              ...      43.0 MB
Total # unrestricted pairs ...        276
  # of alpha-alpha pairs   ...         66
  # of alpha-beta pairs    ...        144
  # of beta-beta pairs     ...         66
Constructing the guess amplitudes          ... done (    0.033 sec)

-------------------------
FINAL STARTUP INFORMATION
-------------------------

E(0)                                       ...   -227.447902798
E(SL-UMP2 in NEV-PNO space)                ...     -0.772191638
Initial E(tot)                             ...   -228.220094435
<T|T>                                      ...      0.141340232
Number of unrestricted pairs included      ... 276
Total number of pairs                      ... 276
----------------------------------------------------------
                     OPEN-SHELL COUPLED CLUSTER ITERATIONS
----------------------------------------------------------

Number of PNO amplitudes to be optimized        ...           324595
Number of canonical amplitudes for strong pairs ...          5886720
Untruncated number of canonical amplitudes      ...          5886720

Iter       E(tot)           E(Corr)          Delta-E          Residual     Time
  0   -228.220119531     -0.770827888      0.001363749      0.015119400   11.42
                           *** Turning on DIIS ***
  1   -228.236458699     -0.787167057     -0.016339168      0.008745795   10.19
  2   -228.254730797     -0.805439155     -0.018272098      0.003801979   11.25
  3   -228.259091683     -0.809800040     -0.004360886      0.002202905   10.83
  4   -228.260502378     -0.811210735     -0.001410695      0.000936292    9.96
  5   -228.260774363     -0.811482721     -0.000271986      0.000340832   10.04
  6   -228.260831601     -0.811539958     -0.000057237      0.000125068    9.97
  7   -228.260854173     -0.811562531     -0.000022572      0.000036703    9.98
  8   -228.260854036     -0.811562394      0.000000137      0.000010838   10.59
  9   -228.260853584     -0.811561942      0.000000452      0.000004444   11.08
               --- The CCSD iterations have converged ---

E(0)                                       ...   -227.447902798
E(CORR)(strong-pairs)                      ...     -0.811561942
E(CORR)(weak-pairs)                        ...     -0.001388845
E(CORR)(corrected)                         ...     -0.812950787
E(TOT)                                     ...   -228.260853584
Singles norm <S|S>**1/2                    ...      0.070088856 ( 0.035044428, 0.035044428)  
T1 diagnostic                              ...      0.014306828                              
<S**2>(linearized)                         ...      0.0000000 (ideal value:      0.0000000)

----------------------
LARGEST PNO AMPLITUDES
----------------------
  13a-> 16a  13b-> 16b       0.037188
  12a-> 16a  12b-> 16b       0.037128
  15a-> 16a  15b-> 16b       0.036355
  14a-> 16a  14b-> 16b       0.036237
   8a-> 19a   8b-> 19b       0.035711
  11a-> 19a  11b-> 19b       0.033565
  11a-> 16a  11b-> 16b       0.033339
  10a-> 16a  10b-> 16b       0.033318
   9a-> 16a   9b-> 16b       0.033150
   8a-> 16a   8b-> 16b       0.027097
  15a-> 16a  -1a-> -1a       0.026538
  15b-> 16b  -1b-> -1b       0.026538
  14a-> 16a  -1a-> -1a       0.026494
  14b-> 16b  -1b-> -1b       0.026494
  12a-> 16a  -1a-> -1a       0.026455
  12b-> 16b  -1b-> -1b       0.026455

Total # unrestricted pairs ...          0
  # of alpha-alpha pairs   ...          0
  # of alpha-beta pairs    ...          0
  # of beta-beta pairs     ...          0

-------------------------------------------
DLPNO BASED TRIPLES CORRECTION
-------------------------------------------

Singles multiplier          ...  1.000000
Fragment selection                          .... not used
TCutTNO                     ... 1.000e-09
TCutMP2Pairs                ... 1.000e-05
TCutDOStrong                ... 2.000e-02
TCutMKNStrong               ... 1.000e-02
TCutDOWeak                  ... 4.000e-02
TCutMKNWeak                 ... 1.000e-01
NTCutTNO                    ... 1

Number of Triples that are to be computed         ...      1716

 . . . . . . . . .
10% done  
20% done  
30% done  
          Batch   1   done (     27.798 sec)
 . . . . . . . . .
40% done  
50% done  
60% done  
          Batch   2   done (     27.113 sec)
 . . . . . . . . .
70% done  
80% done  
90% done  
          Batch   3   done (     20.235 sec)

Triples-Correction TCutTNO=   1.000e-09 (NWeakPairs = 0  1  2  3)  -0.031633212678    0.000000000000    0.000000000000    0.000000000000
Triples-Correction  -0.031633212678

Triples timings:
Total time                      ...    85.081 sec

Triples List generation         ...     0.000 sec
TNO generation                  ...     1.209 sec
Pair density generation         ...     0.009 sec
Look up tables                  ...     0.003 sec
Generating 3-index integrals    ...    38.107 sec
Make 4-ind.int. from 3-ind.int  ...     0.268 sec
Projecting amplitudes (D + S)   ...     8.792 sec
Sorting integrals for spin cases...     2.288 sec
Calculate W0/W1                 ...    22.821 sec
T0 Energy contr.(sum over a,b,c)...     2.864 sec

Everything after 3-index in T0  ...    48.427 sec

Energy contribution AAA         ...     2.104 sec
Energy contribution AAB         ...    12.076 sec
Energy contribution ABB         ...    12.026 sec
Energy contribution BBB         ...     1.771 sec
prep                ...     0.050 sec
makeTTNO            ...     8.315 sec
copyij              ...     0.005 sec
copyil              ...     0.069 sec
transposeij         ...     0.004 sec
newMatInDoubleProj  ...     0.075 sec
BlasInDoubleProj    ...     7.529 sec
ProjSingles         ...     0.305 sec
ProjDoubles         ...     8.487 sec
overall Doubles for projection      ... 40920
used Doubles for projection         ... 40920


Number of Triples   (0, 1, 2, 3 weak pairs; overall):   1364       0       0       0  (  1364)
Number of Atoms     (0, 1, 2, 3 weak pairs; overall):    6.9     0.0     0.0     0.0  (     7)
Number of PAOs      (0, 1, 2, 3 weak pairs; overall):  160.2     0.0     0.0     0.0  (   162)
Number of AuxFcns   (0, 1, 2, 3 weak pairs; overall):  591.5     0.0     0.0     0.0  (   792)
Number of TNOs (0, 1, 2, 3 weak pairs         ):   80.0     0.0     0.0     0.0
Aver. Number of NTNO, Atoms, PAOs, AuxFcns / Triples:   1364    80.0     6.9   160.2   591.5

Triples Correction (T)                     ...     -0.031633213
    alpha-alpha-alpha ... -0.000897807 (  2.8%)
    alpha-alpha-beta  ... -0.014918799 ( 47.2%)
    alpha-beta -beta  ... -0.014918799 ( 47.2%)
    beta -beta -beta  ... -0.000897807 (  2.8%)
Final correlation energy                   ...     -0.844583999
E(CCSD)                                    ...   -228.260853584
E(CCSD(T))                                 ...   -228.292486797

----------------------------
STATISTICS FOR PAIR-ENERGIES
----------------------------
Minimum, maximum and average ratios of UMP and CCSD pair-energies ... 0.90, 1.16, 1.03


------------------------------------------------------------------------------- 
                                     TIMINGS                                   
------------------------------------------------------------------------------- 


Total execution time                   ...      229.632 sec

Localization of occupied MO's          ...        0.292 sec (  0.1%)
Fock Matrix Formation                  ...        1.208 sec (  0.5%)
Differential overlap integrals         ...        1.539 sec (  0.7%)
Organizing maps                        ...        0.015 sec (  0.0%)
RI 3-index integral generations        ...        1.751 sec (  0.8%)
RI-PNO integral transformation         ...       30.077 sec ( 13.1%)
Initial Guess                          ...        4.599 sec (  2.0%)
DIIS Solver                            ...        0.279 sec (  0.1%)
State Vector Update                    ...        0.025 sec (  0.0%)
Sigma-vector construction              ...      105.309 sec ( 45.9%)
  <0|H|D>                              ...        0.002 sec (  0.0% of sigma)
  <D|H|D>(0-ext)                       ...        2.538 sec (  2.4% of sigma)
  <D|H|D>(2-ext Fock)                  ...        0.023 sec (  0.0% of sigma)
  <D|H|D>(2-ext)                       ...       16.205 sec ( 15.4% of sigma)
  <D|H|D>(4-ext)                       ...       14.244 sec ( 13.5% of sigma)
  <D|H|D>(4-ext-corr)                  ...       56.489 sec ( 53.6% of sigma)
  CCSD doubles correction              ...        0.519 sec (  0.5% of sigma)
  <S|H|S>                              ...        0.190 sec (  0.2% of sigma)
  <S|H|D>(1-ext)                       ...        0.337 sec (  0.3% of sigma)
  <D|H|S>(1-ext)                       ...        0.012 sec (  0.0% of sigma)
  <S|H|D>(3-ext)                       ...        0.278 sec (  0.3% of sigma)
  Fock-dressing                        ...        7.405 sec (  7.0% of sigma)
  Singles amplitudes                   ...        0.100 sec (  0.1% of sigma)
  (ik|jl)-dressing                     ...        2.612 sec (  2.5% of sigma)
  (ij|ab),(ia|jb)-dressing             ...        3.748 sec (  3.6% of sigma)
  Pair energies                        ...        0.004 sec (  0.0% of sigma)
Total Time for computing (T)           ...       85.132 sec ( 37.1% of ALL)


-------------------------   --------------------
FINAL SINGLE POINT ENERGY      -228.292486796947
-------------------------   --------------------


                            ***************************************
                            *     ORCA property calculations      *
                            ***************************************

                                    ---------------------
                                    Active property flags
                                    ---------------------
   (+) Dipole Moment


------------------------------------------------------------------------------
                       ORCA ELECTRIC PROPERTIES CALCULATION
------------------------------------------------------------------------------

Dipole Moment Calculation                       ... on
Quadrupole Moment Calculation                   ... off
Polarizability Calculation                      ... off
GBWName                                         ... acetate@water.gbw
Electron density file                           ... acetate@water.scfp
The origin for moment calculation is the CENTER OF MASS  = (-0.033286, -0.073370  0.000001)

-------------
DIPOLE MOMENT
-------------
                                X             Y             Z
Electronic contribution:     -1.34179       2.50416       0.00127
Nuclear contribution   :      2.33405      -4.47976      -0.00042
                        -----------------------------------------
Total Dipole Moment    :      0.99226      -1.97561       0.00084
                        -----------------------------------------
Magnitude (a.u.)       :      2.21079
Magnitude (Debye)      :      5.61938



--------------------
Rotational spectrum 
--------------------
 
Rotational constants in cm-1:     0.394495     0.332909     0.186812 
Rotational constants in MHz : 11826.677421  9980.349480  5600.473434 

 Dipole components along the rotational axes: 
x,y,z [a.u.] :     2.207116    -0.127405    -0.000429 
x,y,z [Debye]:     5.610043    -0.323839    -0.001089 

 

Timings for individual modules:

Sum of individual times         ...      247.451 sec (=   4.124 min)
GTO integral calculation        ...        0.682 sec (=   0.011 min)   0.3 %
SCF iterations                  ...       16.652 sec (=   0.278 min)   6.7 %
MDCI module                     ...      230.117 sec (=   3.835 min)  93.0 %
                             ****ORCA TERMINATED NORMALLY****
TOTAL RUN TIME: 0 days 0 hours 4 minutes 8 seconds 256 msec
