
                                 *****************
                                 * O   R   C   A *
                                 *****************

           --- An Ab Initio, DFT and Semiempirical electronic structure package ---

                  #######################################################
                  #                        -***-                        #
                  #          Department of theory and spectroscopy      #
                  #               Directorship: Frank Neese             #
                  #        Max Planck Institute fuer Kohlenforschung    #
                  #                Kaiser Wilhelm Platz 1               #
                  #                 D-45470 Muelheim/Ruhr               #
                  #                      Germany                        #
                  #                                                     #
                  #                  All rights reserved                #
                  #                        -***-                        #
                  #######################################################


                         Program Version 4.2.1 -  RELEASE  -


 With contributions from (in alphabetic order):
   Daniel Aravena         : Magnetic Suceptibility
   Michael Atanasov       : Ab Initio Ligand Field Theory (pilot matlab implementation)
   Alexander A. Auer      : GIAO ZORA, VPT2
   Ute Becker             : Parallelization
   Giovanni Bistoni       : ED, misc. LED, open-shell LED, HFLD
   Martin Brehm           : Molecular dynamics
   Dmytro Bykov           : SCF Hessian
   Vijay G. Chilkuri      : MRCI spin determinant printing, contributions to CSF-ICE
   Dipayan Datta          : RHF DLPNO-CCSD density
   Achintya Kumar Dutta   : EOM-CC, STEOM-CC
   Dmitry Ganyushin       : Spin-Orbit,Spin-Spin,Magnetic field MRCI
   Miquel Garcia          : C-PCM Hessian, Gaussian charge scheme
   Yang Guo               : DLPNO-NEVPT2, CIM, IAO-localization
   Andreas Hansen         : Spin unrestricted coupled pair/coupled cluster methods
   Benjamin Helmich-Paris : CASSCF linear response (MC-RPA)
   Lee Huntington         : MR-EOM, pCC
   Robert Izsak           : Overlap fitted RIJCOSX, COSX-SCS-MP3, EOM
   Christian Kollmar      : KDIIS, OOCD, Brueckner-CCSD(T), CCSD density
   Simone Kossmann        : Meta GGA functionals, TD-DFT gradient, OOMP2, MP2 Hessian
   Martin Krupicka        : AUTO-CI
   Lucas Lang             : DCDCAS
   Dagmar Lenk            : GEPOL surface, SMD
   Dimitrios Liakos       : Extrapolation schemes; Compound Job, initial MDCI parallelization
   Dimitrios Manganas     : Further ROCIS development; embedding schemes
   Dimitrios Pantazis     : SARC Basis sets
   Taras Petrenko         : DFT Hessian,TD-DFT gradient, ASA, ECA, R-Raman, ABS, FL, XAS/XES, NRVS
   Peter Pinski           : DLPNO-MP2, DLPNO-MP2 Gradient
   Christoph Reimann      : Effective Core Potentials
   Marius Retegan         : Local ZFS, SOC
   Christoph Riplinger    : Optimizer, TS searches, QM/MM, DLPNO-CCSD(T), (RO)-DLPNO pert. Triples
   Tobias Risthaus        : Range-separated hybrids, TD-DFT gradient, RPA, STAB
   Michael Roemelt        : Original ROCIS implementation
   Masaaki Saitow         : Open-shell DLPNO-CCSD energy and density
   Barbara Sandhoefer     : DKH picture change effects
   Avijit Sen             : IP-ROCIS
   Kantharuban Sivalingam : CASSCF convergence, NEVPT2, FIC-MRCI
   Bernardo de Souza      : ESD, SOC TD-DFT
   Georgi Stoychev        : AutoAux, RI-MP2 NMR
   Willem Van den Heuvel  : Paramagnetic NMR
   Boris Wezisla          : Elementary symmetry handling
   Frank Wennmohs         : Technical directorship


 We gratefully acknowledge several colleagues who have allowed us to
 interface, adapt or use parts of their codes:
   Stefan Grimme, W. Hujo, H. Kruse,             : VdW corrections, initial TS optimization,
                  C. Bannwarth                     DFT functionals, gCP, sTDA/sTD-DF
   Ed Valeev, F. Pavosevic, A. Kumar             : LibInt (2-el integral package), F12 methods
   Garnet Chan, S. Sharma, J. Yang, R. Olivares  : DMRG
   Ulf Ekstrom                                   : XCFun DFT Library
   Mihaly Kallay                                 : mrcc  (arbitrary order and MRCC methods)
   Andreas Klamt, Michael Diedenhofen            : otool_cosmo (COSMO solvation model)
   Jiri Pittner, Ondrej Demel                    : Mk-CCSD
   Frank Weinhold                                : gennbo (NPA and NBO analysis)
   Christopher J. Cramer and Donald G. Truhlar   : smd solvation model
   Lars Goerigk                                  : TD-DFT with DH, B97 family of functionals
   V. Asgeirsson, H. Jonsson                     : NEB implementation
   FAccTs GmbH                                   : IRC, NEB, NEB-TS, Multilevel, MM, QM/MM, CI optimization
   S Lehtola, MJT Oliveira, MAL Marques          : LibXC Library


 Your calculation uses the libint2 library for the computation of 2-el integrals
 For citations please refer to: http://libint.valeyev.net

 Your ORCA version has been built with support for libXC version: 4.2.3
 For citations please refer to: https://tddft.org/programs/libxc/

 This ORCA versions uses:
   CBLAS   interface :  Fast vector & matrix operations
   LAPACKE interface :  Fast linear algebra routines
   SCALAPACK package :  Parallel linear algebra routines


----- Orbital basis set information -----
Your calculation utilizes the basis: def2-TZVPP
   F. Weigend and R. Ahlrichs, Phys. Chem. Chem. Phys. 7, 3297 (2005).

================================================================================
                                        WARNINGS
                       Please study these warnings very carefully!
================================================================================


WARNING: Geometry Optimization
  ===> : Switching off AutoStart
         For restart on a previous wavefunction, please use MOREAD

WARNING: Post HF methods need fully converged wavefunctions
  ===> : Setting SCFConvForced true
         You can overwrite this default with %scf ConvForced false 


INFO   : the flag for use of LIBINT has been found!

================================================================================
                                       INPUT FILE
================================================================================
NAME = NH3.inp
|  1> ! MP2 def2-TZVPP Opt Freq NoFrozenCore TightOpt TightSCF Grid4 FinalGrid5 PrintBasis PrintMOs NBO
|  2> 
|  3> %pal
|  4>  nprocs 12
|  5> end
|  6> 
|  7> *xyz 0 1
|  8>   N   -2.44351464327251     -2.77553832460543      0.01138649402758
|  9>   H   -1.43193282273064     -2.81119414708628     -0.00706023869611
| 10>   H   -2.76176949903603     -3.60296491246139      0.50024698971910
| 11>   H   -2.76177303496080     -2.85463261584689     -0.94640324505054
| 12> *
| 13> 
| 14>                          ****END OF INPUT****
================================================================================

                       *****************************
                       * Geometry Optimization Run *
                       *****************************

Geometry optimization settings:
Update method            Update   .... BFGS
Choice of coordinates    CoordSys .... Z-matrix Internals
Initial Hessian          InHess   .... Almoef's Model

Convergence Tolerances:
Energy Change            TolE     ....  1.0000e-06 Eh
Max. Gradient            TolMAXG  ....  1.0000e-04 Eh/bohr
RMS Gradient             TolRMSG  ....  3.0000e-05 Eh/bohr
Max. Displacement        TolMAXD  ....  1.0000e-03 bohr
RMS Displacement         TolRMSD  ....  6.0000e-04 bohr
Strict Convergence                ....  False
------------------------------------------------------------------------------
                        ORCA OPTIMIZATION COORDINATE SETUP
------------------------------------------------------------------------------

The optimization will be done in new redundant internal coordinates
Making redundant internal coordinates   ...  (new redundants) done
Evaluating the initial hessian          ...  (Almloef) done
Evaluating the coordinates              ...  done
Calculating the B-matrix                .... done
Calculating the G-matrix                .... done
Diagonalizing the G-matrix              .... done
The first mode is                       ....    1
The number of degrees of freedom        ....    6

    -----------------------------------------------------------------
                    Redundant Internal Coordinates


    -----------------------------------------------------------------
         Definition                    Initial Value    Approx d2E/dq
    -----------------------------------------------------------------
      1. B(H   1,N   0)                  1.0124         0.428944   
      2. B(H   2,N   0)                  1.0124         0.428947   
      3. B(H   3,N   0)                  1.0124         0.428947   
      4. A(H   1,N   0,H   3)          107.1054         0.302412   
      5. A(H   2,N   0,H   3)          107.1076         0.302412   
      6. A(H   1,N   0,H   2)          107.1054         0.302412   
      7. I(H   1,H   3,H   2,N   0)    -60.3229         0.003959   
    -----------------------------------------------------------------

Number of atoms                         .... 4
Number of degrees of freedom            .... 7

         *************************************************************
         *                GEOMETRY OPTIMIZATION CYCLE   1            *
         *************************************************************
---------------------------------
CARTESIAN COORDINATES (ANGSTROEM)
---------------------------------
  N     -2.443515   -2.775538    0.011386
  H     -1.431933   -2.811194   -0.007060
  H     -2.761769   -3.602965    0.500247
  H     -2.761773   -2.854633   -0.946403

----------------------------
CARTESIAN COORDINATES (A.U.)
----------------------------
  NO LB      ZA    FRAG     MASS         X           Y           Z
   0 N     7.0000    0    14.007   -4.617573   -5.245007    0.021517
   1 H     1.0000    0     1.008   -2.705961   -5.312387   -0.013342
   2 H     1.0000    0     1.008   -5.218988   -6.808617    0.945330
   3 H     1.0000    0     1.008   -5.218995   -5.394474   -1.788443

--------------------------------
INTERNAL COORDINATES (ANGSTROEM)
--------------------------------
 N      0   0   0     0.000000000000     0.00000000     0.00000000
 H      1   0   0     1.012378091069     0.00000000     0.00000000
 H      1   2   0     1.012376163170   107.10538168     0.00000000
 H      1   2   3     1.012376162832   107.10538228   245.37154706

---------------------------
INTERNAL COORDINATES (A.U.)
---------------------------
 N      0   0   0     0.000000000000     0.00000000     0.00000000
 H      1   0   0     1.913117336102     0.00000000     0.00000000
 H      1   2   0     1.913113692902   107.10538168     0.00000000
 H      1   2   3     1.913113692262   107.10538228   245.37154706

---------------------
BASIS SET INFORMATION
---------------------
There are 2 groups of distinct atoms

 Group   1 Type N   : 11s6p2d1f contracted to 5s3p2d1f pattern {62111/411/11/1}
 Group   2 Type H   : 5s2p1d contracted to 3s2p1d pattern {311/11/1}

Atom   0N    basis set group =>   1
Atom   1H    basis set group =>   2
Atom   2H    basis set group =>   2
Atom   3H    basis set group =>   2

-------------------------
BASIS SET IN INPUT FORMAT
-------------------------

 # Basis set for element : H 
 NewGTO H 
 S 3 
   1      34.0613410000      0.0254393072
   2       5.1235746000      0.1900859489
   3       1.1646626000      0.8524411301
 S 1 
   1       0.3272304100      1.0000000000
 S 1 
   1       0.1030724100      1.0000000000
 P 1 
   1       1.4070000000      1.0000000000
 P 1 
   1       0.3880000000      1.0000000000
 D 1 
   1       1.0570000000      1.0000000000
  end;

 # Basis set for element : N 
 NewGTO N 
 S 6 
   1   19730.8006470000      0.0005862639
   2    2957.8958745000      0.0045428821
   3     673.2213359500      0.0235584136
   4     190.6824949400      0.0947091933
   5      62.2954418980      0.2971978492
   6      22.6541611820      0.6691624689
 S 2 
   1       8.9791477428      0.6459668363
   2       3.6863002370      0.3870057440
 S 1 
   1       0.8466007680      1.0000000000
 S 1 
   1       0.3364713377      1.0000000000
 S 1 
   1       0.1364765367      1.0000000000
 P 4 
   1      49.2003805100      0.0114488252
   2      11.3467905370      0.0784223379
   3       3.4273972411      0.3081809474
   4       1.1785525134      0.7202719637
 P 1 
   1       0.4164220497      1.0000000000
 P 1 
   1       0.1426082601      1.0000000000
 D 1 
   1       1.6540000000      1.0000000000
 D 1 
   1       0.4690000000      1.0000000000
 F 1 
   1       1.0930000000      1.0000000000
  end;



           ************************************************************
           *        Program running with 12 parallel MPI-processes    *
           *              working on a common directory               *
           ************************************************************
------------------------------------------------------------------------------
                           ORCA GTO INTEGRAL CALCULATION
------------------------------------------------------------------------------

                         BASIS SET STATISTICS AND STARTUP INFO

 # of primitive gaussian shells          ...   44
 # of primitive gaussian functions       ...   94
 # of contracted shells                  ...   29
 # of contracted basis functions         ...   73
 Highest angular momentum                ...    3
 Maximum contraction depth               ...    6
 Integral package used                   ... LIBINT
 Integral threshhold            Thresh   ...  2.500e-11
 Primitive cut-off              TCut     ...  2.500e-12


------------------------------ INTEGRAL EVALUATION ----------------------------


 * One electron integrals 
 Pre-screening matrix                    ... done
 Shell pair data                         ... done (   0.002 sec)



           ************************************************************
           *        Program running with 12 parallel MPI-processes    *
           *              working on a common directory               *
           ************************************************************
-------------------------------------------------------------------------------
                                 ORCA SCF
-------------------------------------------------------------------------------

------------
SCF SETTINGS
------------
Hamiltonian:
 Ab initio Hamiltonian  Method          .... Hartree-Fock(GTOs)


General Settings:
 Integral files         IntName         .... NH3
 Hartree-Fock type      HFTyp           .... RHF
 Total Charge           Charge          ....    0
 Multiplicity           Mult            ....    1
 Number of Electrons    NEL             ....   10
 Basis Dimension        Dim             ....   73
 Nuclear Repulsion      ENuc            ....     11.9515700368 Eh

Convergence Acceleration:
 DIIS                   CNVDIIS         .... on
   Start iteration      DIISMaxIt       ....    12
   Startup error        DIISStart       ....  0.200000
   # of expansion vecs  DIISMaxEq       ....     5
   Bias factor          DIISBfac        ....   1.050
   Max. coefficient     DIISMaxC        ....  10.000
 Newton-Raphson         CNVNR           .... off
 SOSCF                  CNVSOSCF        .... on
   Start iteration      SOSCFMaxIt      ....   150
   Startup grad/error   SOSCFStart      ....  0.003300
 Level Shifting         CNVShift        .... on
   Level shift para.    LevelShift      ....    0.2500
   Turn off err/grad.   ShiftErr        ....    0.0010
 Zerner damping         CNVZerner       .... off
 Static damping         CNVDamp         .... on
   Fraction old density DampFac         ....    0.7000
   Max. Damping (<1)    DampMax         ....    0.9800
   Min. Damping (>=0)   DampMin         ....    0.0000
   Turn off err/grad.   DampErr         ....    0.1000
 Fernandez-Rico         CNVRico         .... off

SCF Procedure:
 Maximum # iterations   MaxIter         ....   125
 SCF integral mode      SCFMode         .... Direct
   Integral package                     .... LIBINT
 Reset frequency        DirectResetFreq ....    20
 Integral Threshold     Thresh          ....  2.500e-11 Eh
 Primitive CutOff       TCut            ....  2.500e-12 Eh

Convergence Tolerance:
 Convergence Check Mode ConvCheckMode   .... Total+1el-Energy
 Convergence forced     ConvForced      .... 1
 Energy Change          TolE            ....  1.000e-08 Eh
 1-El. energy change                    ....  1.000e-05 Eh
 Orbital Gradient       TolG            ....  1.000e-05
 Orbital Rotation angle TolX            ....  1.000e-05
 DIIS Error             TolErr          ....  5.000e-07


Diagonalization of the overlap matrix:
Smallest eigenvalue                        ... 8.912e-04
Time for diagonalization                   ...    0.005 sec
Threshold for overlap eigenvalues          ... 1.000e-08
Number of eigenvalues below threshold      ... 0
Time for construction of square roots      ...    0.010 sec
Total time needed                          ...    0.015 sec

-------------------
DFT GRID GENERATION
-------------------

General Integration Accuracy     IntAcc      ...  4.670
Radial Grid Type                 RadialGrid  ... Gauss-Chebyshev
Angular Grid (max. acc.)         AngularGrid ... Lebedev-302
Angular grid pruning method      GridPruning ... 3 (G Style)
Weight generation scheme         WeightScheme... Becke
Basis function cutoff            BFCut       ...    1.0000e-11
Integration weight cutoff        WCut        ...    1.0000e-14
Grids for H and He will be reduced by one unit

# of grid points (after initial pruning)     ...  16394 (   0.0 sec)
# of grid points (after weights+screening)   ...  16132 (   0.0 sec)
nearest neighbour list constructed           ...    0.0 sec
Grid point re-assignment to atoms done       ...    0.0 sec
Grid point division into batches done        ...    0.2 sec
Reduced shell lists constructed in    0.2 sec

Total number of grid points                  ...    16132
Total number of batches                      ...      254
Average number of points per batch           ...       63
Average number of grid points per atom       ...     4033
Average number of shells per batch           ...    24.22 (83.51%)
Average number of basis functions per batch  ...    61.09 (83.68%)
Average number of large shells per batch     ...    22.26 (91.92%)
Average number of large basis fcns per batch ...    56.52 (92.53%)
Maximum spatial batch extension              ...  12.18, 11.23, 13.13 au
Average spatial batch extension              ...   0.28,  0.27,  0.28 au

Time for grid setup =    0.225 sec

------------------------------
INITIAL GUESS: MODEL POTENTIAL
------------------------------
Loading Hartree-Fock densities                     ... done
Calculating cut-offs                               ... done
Setting up the integral package                    ... done
Initializing the effective Hamiltonian             ... done
Starting the Coulomb interaction                   ... done (   0.0 sec)
Reading the grid                                   ... done
Mapping shells                                     ... done
Starting the XC term evaluation                    ... done (   0.0 sec)
Transforming the Hamiltonian                       ... done (   0.0 sec)
Diagonalizing the Hamiltonian                      ... done (   0.0 sec)
Back transforming the eigenvectors                 ... done (   0.0 sec)
Now organizing SCF variables                       ... done
                      ------------------
                      INITIAL GUESS DONE (   0.6 sec)
                      ------------------
--------------
SCF ITERATIONS
--------------
ITER       Energy         Delta-E        Max-DP      RMS-DP      [F,P]     Damp
               ***  Starting incremental Fock matrix formation  ***
  0    -56.0789546514   0.000000000000 0.04739000  0.00168262  0.3641367 0.7000
  1    -56.1346736649  -0.055719013546 0.03289408  0.00125260  0.2201078 0.7000
                               ***Turning on DIIS***
  2    -56.1647945448  -0.030120879859 0.01906658  0.00072839  0.1420036 0.7000
  3    -56.3624993981  -0.197704853303 0.00832377  0.00031987  0.1073764 0.7000
  4    -56.3266266231   0.035872775021 0.01703882  0.00063700  0.0766245 0.0000
                      *** Initiating the SOSCF procedure ***
                           *** Shutting down DIIS ***
                      *** Re-Reading the Fockian *** 
                      *** Removing any level shift *** 
ITER      Energy       Delta-E        Grad      Rot      Max-DP    RMS-DP
  5    -56.22140540   0.1052212272  0.001862  0.001862  0.003016  0.000137
               *** Restarting incremental Fock matrix formation ***
  6    -56.22104563   0.0003597608  0.000665  0.001165  0.002045  0.000100
  7    -56.22105522  -0.0000095816  0.000374  0.000964  0.001482  0.000075
  8    -56.22105724  -0.0000020200  0.000106  0.000097  0.000093  0.000005
  9    -56.22105730  -0.0000000661  0.000037  0.000021  0.000036  0.000002
 10    -56.22105731  -0.0000000098  0.000007  0.000017  0.000013  0.000001
                 **** Energy Check signals convergence ****
              ***Rediagonalizing the Fockian in SOSCF/NRSCF***

               *****************************************************
               *                     SUCCESS                       *
               *           SCF CONVERGED AFTER  11 CYCLES          *
               *****************************************************


----------------
TOTAL SCF ENERGY
----------------

Total Energy       :          -56.22105731 Eh           -1529.85275 eV

Components:
Nuclear Repulsion  :           11.95157004 Eh             325.21875 eV
Electronic Energy  :          -68.17262735 Eh           -1855.07150 eV
One Electron Energy:          -99.63209041 Eh           -2711.12701 eV
Two Electron Energy:           31.45946306 Eh             856.05551 eV

Virial components:
Potential Energy   :         -112.37022133 Eh           -3057.74918 eV
Kinetic Energy     :           56.14916402 Eh            1527.89643 eV
Virial Ratio       :            2.00128040


---------------
SCF CONVERGENCE
---------------

  Last Energy change         ...   -6.1742e-10  Tolerance :   1.0000e-08
  Last MAX-Density change    ...    5.5626e-06  Tolerance :   1.0000e-07
  Last RMS-Density change    ...    3.0735e-07  Tolerance :   5.0000e-09
  Last Orbital Gradient      ...    2.4944e-06  Tolerance :   1.0000e-05
  Last Orbital Rotation      ...    8.2566e-06  Tolerance :   1.0000e-05

             **** THE GBW FILE WAS UPDATED (NH3.gbw) ****
             **** DENSITY FILE WAS UPDATED (NH3.scfp) ****
             **** ENERGY FILE WAS UPDATED (NH3.en.tmp) ****
             **** THE GBW FILE WAS UPDATED (NH3.gbw) ****
             **** DENSITY FILE WAS UPDATED (NH3.scfp) ****
----------------
ORBITAL ENERGIES
----------------

  NO   OCC          E(Eh)            E(eV) 
   0   2.0000     -15.536866      -422.7796 
   1   2.0000      -1.138944       -30.9922 
   2   2.0000      -0.627006       -17.0617 
   3   2.0000      -0.626999       -17.0615 
   4   2.0000      -0.426763       -11.6128 
   5   0.0000       0.125798         3.4231 
   6   0.0000       0.213427         5.8076 
   7   0.0000       0.213428         5.8077 
   8   0.0000       0.440956        11.9990 
   9   0.0000       0.440960        11.9991 
  10   0.0000       0.488667        13.2973 
  11   0.0000       0.592053        16.1106 
  12   0.0000       0.646419        17.5899 
  13   0.0000       0.672897        18.3105 
  14   0.0000       0.672898        18.3105 
  15   0.0000       0.750454        20.4209 
  16   0.0000       0.750461        20.4211 
  17   0.0000       1.079167        29.3656 
  18   0.0000       1.122015        30.5316 
  19   0.0000       1.197176        32.5768 
  20   0.0000       1.197182        32.5770 
  21   0.0000       1.383494        37.6468 
  22   0.0000       1.383500        37.6469 
  23   0.0000       1.432408        38.9778 
  24   0.0000       1.670251        45.4499 
  25   0.0000       1.670259        45.4501 
  26   0.0000       1.739735        47.3406 
  27   0.0000       1.788470        48.6668 
  28   0.0000       1.788472        48.6668 
  29   0.0000       2.312303        62.9210 
  30   0.0000       2.428353        66.0788 
  31   0.0000       2.428361        66.0791 
  32   0.0000       2.584322        70.3230 
  33   0.0000       2.999493        81.6204 
  34   0.0000       3.183780        86.6351 
  35   0.0000       3.183786        86.6352 
  36   0.0000       3.356700        91.3405 
  37   0.0000       3.517399        95.7133 
  38   0.0000       3.517408        95.7135 
  39   0.0000       3.536000        96.2195 
  40   0.0000       3.612200        98.2930 
  41   0.0000       3.612203        98.2930 
  42   0.0000       3.710031       100.9551 
  43   0.0000       3.802184       103.4627 
  44   0.0000       3.802187       103.4628 
  45   0.0000       3.960687       107.7758 
  46   0.0000       3.960697       107.7761 
  47   0.0000       4.003074       108.9292 
  48   0.0000       4.135807       112.5410 
  49   0.0000       4.196922       114.2041 
  50   0.0000       4.196929       114.2042 
  51   0.0000       4.389783       119.4521 
  52   0.0000       4.389790       119.4522 
  53   0.0000       4.575098       124.4948 
  54   0.0000       4.684873       127.4819 
  55   0.0000       4.684884       127.4822 
  56   0.0000       4.765072       129.6642 
  57   0.0000       5.045181       137.2864 
  58   0.0000       5.184965       141.0901 
  59   0.0000       5.184972       141.0903 
  60   0.0000       5.584640       151.9658 
  61   0.0000       5.584655       151.9662 
  62   0.0000       5.621919       152.9802 
  63   0.0000       5.915497       160.9688 
  64   0.0000       6.157354       167.5501 
  65   0.0000       6.157379       167.5508 
  66   0.0000       6.332268       172.3098 
  67   0.0000       6.332276       172.3100 
  68   0.0000       6.364995       173.2003 
  69   0.0000       6.902198       187.8184 
  70   0.0000       6.972977       189.7443 
  71   0.0000       6.973001       189.7450 
  72   0.0000      33.832836       920.6383 
------------------
MOLECULAR ORBITALS
------------------
                      0         1         2         3         4         5   
                 -15.53687  -1.13894  -0.62701  -0.62700  -0.42676   0.12580
                   2.00000   2.00000   2.00000   2.00000   2.00000   0.00000
                  --------  --------  --------  --------  --------  --------
  0N   1s         0.448968  0.092002  0.000000 -0.000001  0.028588  0.031514
  0N   2s         0.630051  0.214367  0.000000 -0.000001  0.068113  0.079632
  0N   3s         0.021270 -0.313673  0.000000  0.000002 -0.112701 -0.135708
  0N   4s        -0.010973 -0.388903 -0.000000  0.000004 -0.152696 -0.291299
  0N   5s         0.002657 -0.106270  0.000000  0.000003 -0.145819 -3.088599
  0N   1pz       -0.000868  0.023857  0.295173 -0.050860 -0.170974  0.029476
  0N   1px        0.000668 -0.018359  0.000038 -0.313315  0.131564 -0.022683
  0N   1py       -0.001678  0.046119 -0.152674 -0.098407 -0.330520  0.056982
  0N   2pz        0.000933  0.020223  0.232495 -0.040060 -0.154800  0.096383
  0N   2px       -0.000718 -0.015563  0.000030 -0.246785  0.119118 -0.074169
  0N   2py        0.001803  0.039095 -0.120255 -0.077511 -0.299253  0.186323
  0N   3pz       -0.000050  0.001632  0.097081 -0.016728 -0.133953  0.286626
  0N   3px        0.000039 -0.001256  0.000012 -0.103050  0.103077 -0.220577
  0N   3py       -0.000097  0.003154 -0.050214 -0.032367 -0.258953  0.554095
  0N   1dz2       0.000026 -0.000748 -0.010239  0.007951 -0.000838  0.000583
  0N   1dxz       0.000030 -0.000856 -0.004818  0.002798 -0.000959  0.000668
  0N   1dyz      -0.000074  0.002150 -0.008369 -0.001470  0.002408 -0.001678
  0N   1dx2y2     0.000061 -0.001749 -0.005909 -0.011694 -0.001959  0.001365
  0N   1dxy       0.000057 -0.001654  0.002491  0.005410 -0.001853  0.001291
  0N   2dz2      -0.000034 -0.000758 -0.014271  0.008116 -0.003026 -0.007819
  0N   2dxz      -0.000039 -0.000867 -0.002226  0.005190 -0.003464 -0.008946
  0N   2dyz       0.000099  0.002179 -0.011665  0.000544  0.008701  0.022478
  0N   2dx2y2    -0.000080 -0.001772 -0.008237 -0.014834 -0.007078 -0.018283
  0N   2dxy      -0.000076 -0.001676  0.001150  0.010034 -0.006696 -0.017295
  0N   1f0       -0.000167  0.001714  0.000037  0.000052 -0.002016  0.004575
  0N   1f+1      -0.000246  0.001548  0.000519 -0.000153 -0.000479  0.003281
  0N   1f-1      -0.000040  0.000298 -0.001471  0.000257 -0.000202  0.000702
  0N   1f+2      -0.000092  0.001309  0.000305 -0.000789 -0.002037  0.003810
  0N   1f-2       0.000116 -0.000058  0.000465  0.000710 -0.001491  0.000836
  0N   1f+3      -0.000183  0.001932 -0.000402  0.000623 -0.002343  0.005202
  0N   1f-3      -0.000048 -0.000048  0.000496  0.001243  0.000802 -0.000601
  1H   1s         0.000050 -0.087688  0.000020 -0.166003  0.042472  0.000250
  1H   2s         0.001706 -0.089221  0.000031 -0.261869  0.048539  0.329431
  1H   3s        -0.000433 -0.008800  0.000011 -0.091151  0.025856  1.233777
  1H   1pz       -0.000026 -0.000006  0.005070 -0.001386 -0.003823  0.002505
  1H   1px        0.000269  0.012182 -0.000002  0.017701 -0.002415  0.014052
  1H   1py       -0.000051 -0.000011 -0.002622 -0.002680 -0.007390  0.004843
  1H   2pz       -0.000071  0.000846  0.013481 -0.001256 -0.010307 -0.016929
  1H   2px       -0.000799  0.010316 -0.000003  0.025762  0.004362 -0.171262
  1H   2py       -0.000137  0.001635 -0.006973 -0.002432 -0.019924 -0.032727
  1H   1dz2       0.000091  0.001510 -0.000105  0.002609  0.000277 -0.004703
  1H   1dxz       0.000042  0.000023 -0.002319  0.000491  0.001902  0.000717
  1H   1dyz      -0.000003 -0.000048 -0.000085  0.000307 -0.000387  0.000123
  1H   1dx2y2    -0.000155 -0.002548 -0.000060 -0.004953  0.000067  0.007972
  1H   1dxy       0.000081  0.000045  0.001199  0.000949  0.003677  0.001386
  2H   1s         0.000050 -0.087688  0.143754  0.083018  0.042473  0.000250
  2H   2s         0.001706 -0.089221  0.226768  0.130959  0.048540  0.329433
  2H   3s        -0.000433 -0.008800  0.078931  0.045584  0.025857  1.233775
  2H   1pz        0.000100  0.006188 -0.004480 -0.006389 -0.006547  0.010633
  2H   1px       -0.000063 -0.004055  0.006208 -0.001797  0.004727 -0.007254
  2H   1py       -0.000248 -0.009678  0.013832  0.007812 -0.003138 -0.007842
  2H   2pz       -0.000505  0.006424 -0.005454 -0.013258 -0.012122 -0.110668
  2H   2px        0.000339 -0.004306  0.012516 -0.007083  0.009121  0.074455
  2H   2py        0.000540 -0.007071  0.019352  0.010708 -0.017091  0.113571
  2H   1dz2       0.000072  0.000356 -0.001795  0.000604  0.002309 -0.000147
  2H   1dxz       0.000014  0.000893 -0.001062  0.000102 -0.001485 -0.003541
  2H   1dyz       0.000106  0.002039 -0.002773 -0.002878 -0.000942 -0.006727
  2H   1dx2y2     0.000141  0.001388 -0.002280 -0.002141  0.002876 -0.003225
  2H   1dxy      -0.000066 -0.001330  0.002984 -0.000175  0.000820  0.004464
  3H   1s         0.000050 -0.087688 -0.143773  0.082984  0.042473  0.000250
  3H   2s         0.001706 -0.089221 -0.226799  0.130906  0.048540  0.329433
  3H   3s        -0.000433 -0.008800 -0.078942  0.045566  0.025857  1.233775
  3H   1pz       -0.000260 -0.011474 -0.013881  0.010064  0.001222 -0.012544
  3H   1px       -0.000063 -0.004055 -0.006208 -0.001798  0.004727 -0.007254
  3H   1py       -0.000061 -0.000541 -0.004336 -0.000701 -0.007157  0.004148
  3H   2pz        0.000733 -0.009483 -0.018950  0.016396 -0.006945  0.156638
  3H   2px        0.000339 -0.004306 -0.012515 -0.007086  0.009121  0.074456
  3H   2py       -0.000100  0.001158 -0.006729 -0.004635 -0.019769 -0.024703
  3H   1dz2      -0.000168 -0.002466 -0.003580  0.003586 -0.000888  0.007355
  3H   1dxz      -0.000061 -0.001602 -0.003049 -0.000203  0.001527  0.005689
  3H   1dyz      -0.000090 -0.000268 -0.001620 -0.000440 -0.003555 -0.000594
  3H   1dx2y2     0.000002 -0.000242 -0.000823 -0.000420  0.001030  0.001107
  3H   1dxy      -0.000027 -0.000040 -0.000857 -0.000018 -0.000738 -0.000311
                      6         7         8         9        10        11   
                   0.21343   0.21343   0.44096   0.44096   0.48867   0.59205
                   0.00000   0.00000   0.00000   0.00000   0.00000   0.00000
                  --------  --------  --------  --------  --------  --------
  0N   1s         0.000000 -0.000000 -0.000000 -0.000000  0.014257 -0.061200
  0N   2s         0.000000 -0.000001 -0.000001 -0.000000  0.025427 -0.132883
  0N   3s        -0.000000  0.000002  0.000001  0.000000  0.296260  0.152976
  0N   4s         0.000000  0.000001  0.000010  0.000000 -2.145940  0.479852
  0N   5s         0.000000  0.000010  0.000023  0.000000 -1.748054 -6.978797
  0N   1pz        0.160679 -0.027676  0.002740  0.015904 -0.113289 -0.047299
  0N   1px        0.000031 -0.170554  0.016879  0.000002  0.087177  0.036401
  0N   1py       -0.083105 -0.053574  0.005302 -0.008226 -0.219006 -0.091437
  0N   2pz        0.143318 -0.024685 -0.088178 -0.511812 -0.063126  0.198507
  0N   2px        0.000028 -0.152124 -0.543237 -0.000070  0.048565 -0.152760
  0N   2py       -0.074125 -0.047785 -0.170624  0.264726 -0.122033  0.383747
  0N   3pz        1.042610 -0.179577 -0.332083 -1.927445  0.819824  0.527894
  0N   3px        0.000204 -1.106659 -2.045814 -0.000263 -0.630900 -0.406261
  0N   3py       -0.539248 -0.347622 -0.642577  0.996938  1.584853  1.020505
  0N   1dz2       0.002987 -0.002638 -0.018424 -0.022371 -0.002173  0.000961
  0N   1dxz       0.001889 -0.000677 -0.005655 -0.012120 -0.002487  0.001099
  0N   1dyz       0.002441  0.000708  0.004133 -0.018285  0.006247 -0.002762
  0N   1dx2y2     0.001724  0.003569  0.026070 -0.012912 -0.005081  0.002247
  0N   1dxy      -0.000977 -0.001310 -0.010935  0.006268 -0.004808  0.002125
  0N   2dz2      -0.024276  0.006059  0.207210  0.249324 -0.023068 -0.039621
  0N   2dxz       0.007939  0.012201  0.062199  0.137920 -0.026390 -0.045330
  0N   2dyz      -0.019845  0.007698 -0.047702  0.203785  0.066313  0.113898
  0N   2dx2y2    -0.014011 -0.021410 -0.291467  0.143896 -0.053936 -0.092639
  0N   2dxy      -0.004112  0.023583  0.120280 -0.071324 -0.051016 -0.087631
  0N   1f0       -0.001046  0.002909 -0.022764 -0.008314  0.024581  0.017167
  0N   1f+1      -0.002387 -0.001336  0.010155 -0.019991  0.026253  0.016956
  0N   1f-1      -0.001121  0.000840 -0.006008 -0.005387  0.004728  0.003150
  0N   1f+2       0.001673  0.001108 -0.010561  0.012450  0.017280  0.012579
  0N   1f-2      -0.002137 -0.000556  0.006035 -0.017902 -0.005529 -0.002259
  0N   1f+3       0.001849 -0.002367  0.020079  0.015489  0.027500  0.019278
  0N   1f-3       0.001338  0.001591 -0.009615  0.009368  0.001559  0.000323
  1H   1s        -0.000003  0.014221  0.080156  0.000010 -0.018996 -0.076587
  1H   2s         0.000007 -0.039920  1.990095  0.000251  1.191542  0.992372
  1H   3s        -0.000454  2.497897  0.592930  0.000075  0.345324  1.575124
  1H   1pz        0.006018 -0.001904 -0.004305 -0.014896  0.006544  0.002004
  1H   1px       -0.000005  0.028433 -0.059588 -0.000008 -0.022599  0.001583
  1H   1py       -0.003112 -0.003683 -0.008328  0.007704  0.012651  0.003875
  1H   2pz       -0.028109  0.001032  0.008899  0.038060 -0.056655 -0.025987
  1H   2px        0.000020 -0.111959 -0.414367 -0.000052 -0.467168 -0.671259
  1H   2py        0.014540  0.002008  0.017212 -0.019685 -0.109527 -0.050241
  1H   1dz2      -0.000234 -0.000478 -0.024262 -0.011694 -0.019700 -0.017468
  1H   1dxz      -0.000598  0.001583  0.003295  0.001010  0.001243  0.001533
  1H   1dyz      -0.000191 -0.000893  0.001989 -0.009556 -0.000303 -0.001884
  1H   1dx2y2    -0.000135  0.002093  0.039211 -0.006745  0.034551  0.032923
  1H   1dxy       0.000309  0.003060  0.006371 -0.000522  0.002403  0.002964
  2H   1s        -0.012313 -0.007113 -0.040089  0.069411 -0.018996 -0.076586
  2H   2s         0.034566  0.019967 -0.995285  1.723395  1.191529  0.992370
  2H   3s        -2.163011 -1.249349 -0.296528  0.513519  0.345304  1.575117
  2H   1pz       -0.008273 -0.009292  0.009779 -0.036274 -0.002388  0.003595
  2H   1px        0.009281 -0.001028 -0.024001  0.014179  0.000818 -0.002584
  2H   1py        0.021818  0.012393 -0.021197  0.035808  0.026594  0.001394
  2H   2pz        0.038932  0.043565  0.120605 -0.159440 -0.316447 -0.377583
  2H   2px       -0.044318  0.004242 -0.034211  0.129193  0.213848  0.250412
  2H   2py       -0.078574 -0.044407 -0.169409  0.295627  0.295945  0.498515
  2H   1dz2      -0.001696 -0.000340 -0.008165 -0.005823 -0.002953 -0.002443
  2H   1dxz       0.001024  0.000861  0.005971 -0.018104 -0.012617 -0.010665
  2H   1dyz       0.002277  0.001110  0.010677 -0.031652 -0.028491 -0.027571
  2H   1dx2y2    -0.001343 -0.001124  0.014061 -0.011652 -0.015999 -0.013672
  2H   1dxy      -0.001477 -0.001180 -0.018377  0.014335  0.018807  0.018355
  3H   1s         0.012316 -0.007109 -0.040071 -0.069421 -0.018996 -0.076586
  3H   2s        -0.034574  0.019954 -0.994850 -1.723646  1.191529  0.992370
  3H   3s         2.163466 -1.248562 -0.296399 -0.513594  0.345304  1.575117
  3H   1pz       -0.022593  0.015475 -0.022938 -0.050190  0.023085 -0.000939
  3H   1px       -0.009281 -0.001031 -0.023998 -0.014186  0.000818 -0.002584
  3H   1py       -0.005854 -0.000425 -0.004268  0.008915  0.013417  0.003739
  3H   2pz        0.086647 -0.061385 -0.207869 -0.333461  0.424387  0.625043
  3H   2px        0.044317  0.004257 -0.034180 -0.129202  0.213850  0.250414
  3H   2py        0.013621  0.009903  0.000560 -0.040683 -0.087278 -0.020130
  3H   1dz2       0.001086 -0.000258 -0.016831 -0.032576  0.032499  0.030406
  3H   1dxz       0.001798 -0.001459 -0.018443 -0.022166  0.022641  0.021144
  3H   1dyz      -0.002775  0.001176  0.003586  0.000267  0.000490 -0.000719
  3H   1dx2y2     0.000992 -0.001077  0.009056 -0.010513  0.004469  0.005293
  3H   1dxy       0.000017  0.000021 -0.005746  0.006492  0.000569  0.001901
                     12        13        14        15        16        17   
                   0.64642   0.67290   0.67290   0.75045   0.75046   1.07917
                   0.00000   0.00000   0.00000   0.00000   0.00000   0.00000
                  --------  --------  --------  --------  --------  --------
  0N   1s        -0.012058 -0.000001 -0.000000  0.000000 -0.000000 -0.005603
  0N   2s        -0.036915 -0.000004 -0.000000 -0.000000 -0.000001 -0.006761
  0N   3s         0.071791  0.000014  0.000000  0.000000  0.000012 -0.297173
  0N   4s        -0.171971 -0.000048 -0.000000 -0.000000 -0.000063  2.856179
  0N   5s         3.269174  0.000474  0.000000  0.000000  0.000114 -3.079818
  0N   1pz       -0.029319  0.048935  0.283882 -0.136771 -0.023564  0.055000
  0N   1px        0.022523  0.301341  0.000014 -0.000017 -0.145163 -0.042321
  0N   1py       -0.056678  0.094630 -0.146843  0.070743 -0.045592  0.106323
  0N   2pz       -0.093008 -0.040410 -0.234394 -0.411107 -0.070828  0.005127
  0N   2px        0.071649 -0.248772 -0.000011 -0.000052 -0.436382 -0.003946
  0N   2py       -0.179800 -0.078144  0.121245  0.212639 -0.137043  0.009912
  0N   3pz       -0.210121 -0.358966 -2.082191  0.184099  0.031699  0.614823
  0N   3px        0.162082 -2.210171 -0.000100  0.000023  0.195304 -0.473104
  0N   3py       -0.406199 -0.694170  1.077051 -0.095223  0.061333  1.188553
  0N   1dz2      -0.005374  0.009456 -0.009068 -0.008691  0.015583 -0.001643
  0N   1dxz      -0.006146 -0.009659  0.020714  0.029720 -0.012097 -0.001880
  0N   1dyz       0.015448 -0.013124 -0.007414 -0.007108 -0.018280  0.004722
  0N   1dx2y2    -0.012564  0.002205 -0.005236 -0.005019 -0.001104 -0.003841
  0N   1dxy      -0.011881 -0.018670 -0.010716 -0.015377 -0.023377 -0.003633
  0N   2dz2       0.012353  0.183475  0.286718 -0.006680 -0.127591  0.008984
  0N   2dxz       0.014137  0.095424  0.075539 -0.188473  0.051462  0.010265
  0N   2dyz      -0.035571 -0.006870  0.234374 -0.005436  0.108003 -0.025803
  0N   2dx2y2     0.028969 -0.308105  0.165520 -0.003841  0.068077  0.020973
  0N   2dxy       0.027329  0.184476 -0.039064  0.097509  0.099432  0.019843
  0N   1f0       -0.015258 -0.006697 -0.002122  0.002901  0.006471 -0.011239
  0N   1f+1      -0.023038  0.003724 -0.002649  0.011075 -0.001651 -0.025758
  0N   1f-1      -0.003681 -0.003157 -0.009913 -0.012374 -0.000612 -0.003685
  0N   1f+2      -0.008234  0.001537  0.005238 -0.000907  0.010756 -0.002812
  0N   1f-2       0.011263 -0.002358 -0.002373  0.009917 -0.008617  0.018509
  0N   1f+3      -0.016720  0.002082  0.002052 -0.008580 -0.012090 -0.011856
  0N   1f-3      -0.004709 -0.009800  0.005466  0.001861 -0.008907 -0.008352
  1H   1s        -0.045714 -0.083765 -0.000004  0.000001  0.011016  0.016691
  1H   2s        -1.263531  0.642634  0.000027  0.000050  0.423331  0.241193
  1H   3s        -0.254707  2.269239  0.000097 -0.000081 -0.691593  0.379929
  1H   1pz        0.005913  0.001012 -0.020682 -0.032331  0.016172  0.025723
  1H   1px        0.023820 -0.004856 -0.000000 -0.000001 -0.009613 -0.003438
  1H   1py        0.011431  0.001954  0.010699  0.016729  0.031254  0.049727
  1H   2pz       -0.110935 -0.047414  0.432184  0.581270 -0.278140 -0.352906
  1H   2px        0.016345 -0.876427 -0.000036  0.000017  0.129222  0.564119
  1H   2py       -0.214455 -0.091618 -0.223568 -0.300763 -0.537522 -0.682223
  1H   1dz2       0.002246 -0.018834 -0.007112 -0.009611  0.006796  0.013837
  1H   1dxz       0.005774  0.007972 -0.027223 -0.046237  0.012998  0.010812
  1H   1dyz       0.009002 -0.006798 -0.005814 -0.007859 -0.013805  0.008742
  1H   1dx2y2    -0.016636  0.042247 -0.004104 -0.005549  0.007779 -0.036345
  1H   1dxy       0.011162  0.015409  0.014083  0.023922  0.025113  0.020902
  2H   1s        -0.045731  0.041879 -0.072535  0.009544 -0.005511  0.016690
  2H   2s        -1.263315 -0.321581  0.556666  0.366588 -0.211731  0.241171
  2H   3s        -0.254266 -1.134774  1.965170 -0.598982  0.345842  0.379933
  2H   1pz        0.020345 -0.011095 -0.007638  0.004746 -0.026987  0.034044
  2H   1px       -0.014003 -0.016758 -0.009003 -0.026454 -0.019048 -0.025245
  2H   1py       -0.011088 -0.003135  0.004186  0.024635 -0.015347  0.036743
  2H   2pz       -0.146212  0.498861 -0.302821 -0.089323  0.487466 -0.204110
  2H   2px        0.108389  0.173670  0.493757  0.476983  0.341649  0.174023
  2H   2py       -0.159556 -0.305351  0.554736 -0.398521  0.250299 -0.914500
  2H   1dz2       0.009550 -0.021084 -0.007473 -0.005068 -0.037645  0.018258
  2H   1dxz      -0.009650 -0.000634 -0.017608 -0.008133 -0.012641 -0.007653
  2H   1dyz       0.012468  0.027955 -0.028576 -0.003277  0.022831  0.026176
  2H   1dx2y2     0.010532  0.013259  0.000494  0.029574  0.004308  0.027955
  2H   1dxy      -0.008355 -0.000091  0.030700  0.023863  0.018127 -0.016858
  3H   1s        -0.045731  0.041872  0.072539 -0.009546 -0.005509  0.016690
  3H   2s        -1.263315 -0.321534 -0.556693 -0.366637 -0.211645  0.241171
  3H   3s        -0.254265 -1.134606 -1.965267  0.599063  0.345701  0.379933
  3H   1pz       -0.020805  0.003852 -0.007830 -0.017364  0.003071  0.010318
  3H   1px       -0.014003 -0.016759  0.009001  0.026449 -0.019054 -0.025245
  3H   1py        0.010198 -0.010867  0.003815 -0.018115 -0.030889  0.049016
  3H   2pz       -0.045744 -0.537411 -0.627777  0.273636 -0.077437 -0.628458
  3H   2px        0.108389  0.173710 -0.493744 -0.476903  0.341760  0.174022
  3H   2py       -0.211527  0.230732 -0.073354  0.303297  0.542411 -0.694990
  3H   1dz2      -0.016253 -0.030498 -0.023052  0.014383 -0.021167 -0.037493
  3H   1dxz      -0.001244  0.000295 -0.035231 -0.024171  0.022105 -0.009337
  3H   1dyz      -0.008624  0.020257  0.003626  0.010904  0.036301 -0.019399
  3H   1dx2y2    -0.004365  0.007824 -0.018116 -0.024190  0.013830 -0.004233
  3H   1dxy      -0.012704 -0.000570 -0.003368 -0.007150  0.000158 -0.015987
                     18        19        20        21        22        23   
                   1.12201   1.19718   1.19718   1.38349   1.38350   1.43241
                   0.00000   0.00000   0.00000   0.00000   0.00000   0.00000
                  --------  --------  --------  --------  --------  --------
  0N   1s        -0.000000 -0.000000 -0.000000  0.000001  0.000000 -0.036683
  0N   2s        -0.000000 -0.000000 -0.000001  0.000002  0.000000 -0.084247
  0N   3s         0.000000 -0.000000 -0.000014  0.000027  0.000000 -0.913682
  0N   4s         0.000000  0.000000  0.000095 -0.000224 -0.000000  9.197866
  0N   5s         0.000000  0.000000  0.000126 -0.000106 -0.000000  5.766731
  0N   1pz       -0.000004  0.099024  0.017061 -0.018290 -0.106151 -0.108974
  0N   1px        0.000000  0.000013  0.105113 -0.112671 -0.000011  0.083850
  0N   1py        0.000002 -0.051219  0.033011 -0.035383  0.054906 -0.210665
  0N   2pz        0.000037  0.919628  0.158450 -0.499415 -2.898314 -1.256635
  0N   2px       -0.000000  0.000120  0.976250 -3.076374 -0.000299  0.966914
  0N   2py       -0.000019 -0.475664  0.306585 -0.966141  1.499142 -2.429280
  0N   3pz       -0.000071  1.497504  0.257999 -0.083600 -0.485265 -0.837915
  0N   3px        0.000000  0.000195  1.589517 -0.515042 -0.000050  0.644754
  0N   3py        0.000037 -0.774562  0.499203 -0.161727  0.251001 -1.619825
  0N   1dz2       0.000001 -0.008661 -0.007747  0.009841  0.009094  0.003851
  0N   1dxz       0.000001 -0.005623 -0.001922  0.001275  0.008488  0.004406
  0N   1dyz       0.000000 -0.007079  0.002137 -0.003736  0.007432 -0.011070
  0N   1dx2y2     0.000000 -0.004999  0.010397 -0.011759  0.005249  0.009003
  0N   1dxy      -0.000000  0.002908 -0.003717  0.002466 -0.004390  0.008518
  0N   2dz2      -0.000011 -0.123314 -0.142681  0.185185  0.276763  0.025741
  0N   2dxz      -0.000010 -0.129034 -0.013277  0.088572  0.085190  0.029413
  0N   2dyz      -0.000009 -0.100783  0.058729 -0.013734  0.226227 -0.073950
  0N   2dx2y2    -0.000007 -0.071166  0.164028 -0.301396  0.159751  0.060118
  0N   2dxy       0.000005  0.066743 -0.025704  0.171242 -0.044046  0.056859
  0N   1f0       -0.014057  0.001875  0.002891 -0.014669 -0.005934 -0.073473
  0N   1f+1       0.006920  0.010748  0.000593  0.005224 -0.018644 -0.075678
  0N   1f-1       0.011662 -0.020494 -0.002769 -0.001393  0.011391 -0.013824
  0N   1f+2       0.016051  0.002429  0.013148 -0.015089  0.005213 -0.052682
  0N   1f-2       0.006197  0.009623 -0.011280  0.011266 -0.016694  0.013285
  0N   1f+3      -0.005361 -0.008327 -0.012271  0.019763  0.014444 -0.082341
  0N   1f-3       0.008367  0.005701 -0.016503  0.006240  0.001203 -0.003108
  1H   1s         0.000000  0.000005  0.041985  0.087616  0.000008 -0.002413
  1H   2s         0.000000 -0.000183 -1.522706  3.016200  0.000287 -4.463981
  1H   3s        -0.000000 -0.000056 -0.468396  0.918890  0.000087 -0.966362
  1H   1pz        0.055800  0.056974  0.030848 -0.002120  0.001851 -0.014560
  1H   1px        0.000000  0.000005  0.037431  0.045786  0.000004  0.011480
  1H   1py       -0.028864 -0.029463  0.059651 -0.004098 -0.000958 -0.028147
  1H   2pz       -0.746291 -0.837369 -0.456262  0.076264  0.133994  0.257520
  1H   2px       -0.000002  0.000032  0.286627 -2.831575 -0.000269  2.520603
  1H   2py        0.386046  0.433025 -0.882276  0.147448 -0.069296  0.497841
  1H   1dz2      -0.005909  0.001634  0.012887 -0.086568 -0.024124  0.069993
  1H   1dxz       0.006024  0.017985  0.006835 -0.005863 -0.039161 -0.011234
  1H   1dyz      -0.004831  0.001336  0.007447  0.003375 -0.019714  0.019945
  1H   1dx2y2    -0.003412  0.000939 -0.032866  0.145171 -0.013910 -0.149470
  1H   1dxy      -0.003116 -0.009301  0.013219 -0.011341  0.020256 -0.021718
  2H   1s        -0.000001  0.036357 -0.020996 -0.043817  0.075873 -0.002418
  2H   2s        -0.000006 -1.318494  0.761404 -1.508197  2.611949 -4.464175
  2H   3s         0.000017 -0.405610  0.234220 -0.459496  0.795726 -0.966431
  2H   1pz       -0.036236  0.072160  0.001041 -0.009131  0.018209 -0.014423
  2H   1px       -0.051297 -0.012032  0.067422  0.008017 -0.010482  0.011110
  2H   1py       -0.001678  0.010457 -0.004063  0.019628 -0.033876 -0.028365
  2H   2pz        0.484668 -0.695530 -0.226110  0.742447 -1.111738  1.640469
  2H   2px        0.686063 -0.062099 -0.852942 -0.326157  0.811161 -1.104404
  2H   2py        0.022413 -0.732119  0.393777 -1.170986  2.035916 -1.660576
  2H   1dz2       0.001894  0.017044  0.003741 -0.025346 -0.044474  0.006247
  2H   1dxz       0.000579 -0.000515  0.006180  0.007615 -0.049919  0.040490
  2H   1dyz       0.006088  0.017452 -0.019485  0.063169 -0.095297  0.128977
  2H   1dx2y2    -0.001650  0.015610 -0.015955  0.064348 -0.061938  0.048364
  2H   1dxy       0.008499 -0.020167 -0.002426 -0.026196  0.070312 -0.087098
  3H   1s         0.000001 -0.036362 -0.020987 -0.043803 -0.075881 -0.002418
  3H   2s         0.000006  1.318677  0.761087 -1.507700 -2.612235 -4.464175
  3H   3s        -0.000017  0.405666  0.234123 -0.459344 -0.795813 -0.966431
  3H   1pz       -0.019568  0.033158 -0.003926  0.021288  0.038174 -0.014817
  3H   1px        0.051297  0.012049  0.067419  0.008015  0.010484  0.011110
  3H   1py        0.030545 -0.064937 -0.001482  0.003887  0.004713 -0.028161
  3H   2pz        0.261752  0.195767  0.451995 -1.384280 -2.304291 -2.303186
  3H   2px       -0.686061  0.061892 -0.852956 -0.326008 -0.811231 -1.104414
  3H   2py       -0.408526  0.990707  0.042740 -0.070582 -0.269000  0.379423
  3H   1dz2       0.004019  0.023253  0.025117 -0.088718 -0.113554 -0.133246
  3H   1dxz      -0.006602  0.016161 -0.005554 -0.025765 -0.086236 -0.094484
  3H   1dyz      -0.001255  0.015484 -0.002010  0.011354 -0.033868  0.014947
  3H   1dx2y2     0.005064  0.007651 -0.003612  0.027753 -0.029284 -0.032174
  3H   1dxy      -0.005384  0.012074  0.003639 -0.008921  0.000115 -0.017279
                     24        25        26        27        28        29   
                   1.67025   1.67026   1.73973   1.78847   1.78847   2.31230
                   0.00000   0.00000   0.00000   0.00000   0.00000   0.00000
                  --------  --------  --------  --------  --------  --------
  0N   1s        -0.000000  0.000001 -0.031145 -0.000000  0.000002 -0.084622
  0N   2s        -0.000000  0.000002 -0.082143 -0.000000  0.000005 -0.283388
  0N   3s        -0.000000  0.000010 -0.529548 -0.000000  0.000068  2.833835
  0N   4s         0.000000 -0.000183  6.379444  0.000000 -0.000635 -9.231811
  0N   5s         0.000000 -0.000073  4.126163  0.000000 -0.000445 -0.881800
  0N   1pz       -0.158526  0.027319 -0.045442  0.000034 -0.000004  0.185475
  0N   1px       -0.000020  0.168276  0.034975  0.000000 -0.000045 -0.142694
  0N   1py        0.081996  0.052858 -0.087848 -0.000018 -0.000007  0.358554
  0N   2pz       -3.727882  0.642360 -0.614559 -0.773458  0.133344  0.515050
  0N   2px       -0.000466  3.956977  0.473039 -0.000092  0.820963 -0.396472
  0N   2py        1.928200  1.242862 -1.188042  0.400063  0.257988  0.995675
  0N   3pz       -1.681096  0.289670 -0.241744  0.421456 -0.072590  0.415309
  0N   3px       -0.000210  1.784379  0.186044  0.000050 -0.447393 -0.319579
  0N   3py        0.869526  0.560464 -0.467330 -0.217994 -0.140443  0.802859
  0N   1dz2       0.005807 -0.009484 -0.002995  0.006284  0.009195 -0.010709
  0N   1dxz       0.010263  0.000578 -0.003430 -0.018354 -0.007845 -0.012256
  0N   1dyz       0.004746  0.005184  0.008614  0.005139 -0.011406  0.030791
  0N   1dx2y2     0.003351  0.009089 -0.007008  0.003629  0.000225 -0.025047
  0N   1dxy      -0.005309  0.001115 -0.006631  0.009496 -0.015160 -0.023693
  0N   2dz2       1.725048 -1.431127  0.407970 -0.187656 -1.044001 -0.125178
  0N   2dxz       0.950324 -0.431527  0.467006  1.712833  0.569104 -0.143259
  0N   2dyz       1.409987  0.327753 -1.173058 -0.153598  1.013498  0.359903
  0N   2dx2y2     0.995634  2.015422  0.954279 -0.108442  0.373194 -0.292762
  0N   2dxy      -0.491461 -0.834459  0.902798 -0.886178  1.099723 -0.276944
  0N   1f0       -0.038894  0.108028 -0.082561 -0.016883  0.042561  0.161749
  0N   1f+1      -0.089274 -0.049472 -0.099658 -0.050834 -0.015882  0.199609
  0N   1f-1      -0.039991  0.030916 -0.017152  0.024664  0.005439  0.034088
  0N   1f+2       0.061816  0.042074 -0.053791  0.016698  0.039112  0.103770
  0N   1f-2      -0.079945 -0.021475  0.031902 -0.045519 -0.028524 -0.067582
  0N   1f+3       0.069165 -0.088664 -0.091776  0.039383 -0.053462  0.179564
  0N   1f-3       0.049150  0.057707 -0.011610  0.006210 -0.011097  0.025171
  1H   1s        -0.000024  0.209840  0.056047 -0.000003  0.031159 -0.483946
  1H   2s         0.000720 -6.235316 -3.393514  0.000141 -1.281153  3.536275
  1H   3s         0.000074 -0.637432 -0.566629 -0.000021  0.192687 -0.117569
  1H   1pz        0.003637 -0.010119  0.013280  0.051962  0.018021 -0.007074
  1H   1px       -0.000019  0.165571  0.058504 -0.000006  0.055559 -0.204175
  1H   1py       -0.001879 -0.019561  0.025672 -0.026884  0.034823 -0.013676
  1H   2pz        0.015685  0.073373 -0.278874 -0.957150 -0.276058  0.011753
  1H   2px       -0.000358  3.102980  1.674915 -0.000092  0.821597 -1.302856
  1H   2py       -0.008135  0.141851 -0.539102  0.495195 -0.533405  0.022715
  1H   1dz2      -0.025508  0.126446  0.068406  0.002740  0.026811 -0.076901
  1H   1dxz       0.009510 -0.009308  0.027933  0.096615  0.038611 -0.013483
  1H   1dyz      -0.020838 -0.011383 -0.018887  0.002242  0.003725 -0.031899
  1H   1dx2y2    -0.014695 -0.202905 -0.091742  0.001590 -0.051712  0.178362
  1H   1dxy      -0.004917 -0.017999  0.053999 -0.049988  0.074615 -0.026064
  2H   1s        -0.181716 -0.104942  0.056047 -0.026988 -0.015609 -0.483910
  2H   2s         5.399592  3.118405 -3.393325  1.109696  0.641265  3.536136
  2H   3s         0.552003  0.318794 -0.566609 -0.166796 -0.096290 -0.117531
  2H   1pz       -0.059558 -0.037119  0.048227 -0.029309 -0.055899 -0.113685
  2H   1px        0.040471  0.019515 -0.033125  0.055935 -0.022855  0.075311
  2H   1py        0.125462  0.072331 -0.028884  0.018348  0.008802  0.152723
  2H   2pz       -1.450035 -0.849223  0.463932 -0.340233  0.521179 -0.646328
  2H   2px        0.968061  0.542413 -0.272094 -0.448056  0.757391  0.422191
  2H   2py        2.049322  1.183008 -1.698217  0.866526  0.533783  1.049750
  2H   1dz2      -0.021279  0.008024  0.045426 -0.017998 -0.077081 -0.040699
  2H   1dxz      -0.081347 -0.039321  0.023714  0.033824 -0.009611 -0.013180
  2H   1dyz      -0.152695 -0.067389  0.058787 -0.045736  0.027738 -0.143664
  2H   1dx2y2    -0.080812 -0.060277  0.099364 -0.082005 -0.014044 -0.089597
  2H   1dxy       0.081884  0.075551 -0.034510 -0.022987  0.067104  0.095416
  3H   1s         0.181740 -0.104900  0.056047  0.026992 -0.015603 -0.483910
  3H   2s        -5.400311  3.117158 -3.393325 -1.109837  0.641021  3.536136
  3H   3s        -0.552077  0.318667 -0.566609  0.166817 -0.096254 -0.117531
  3H   1pz       -0.136830  0.080450 -0.051440 -0.031919  0.039476  0.190336
  3H   1px       -0.040476  0.019506 -0.033125 -0.055930 -0.022867  0.075312
  3H   1py       -0.023885  0.011492  0.022672  0.013329 -0.040535 -0.004543
  3H   2pz       -2.510775  1.455644 -1.654105 -0.903857  0.134320  1.230230
  3H   2px       -0.968196  0.542195 -0.272099  0.447887  0.757489  0.422195
  3H   2py       -0.000621 -0.009568 -0.602586 -0.223151  0.733748  0.079033
  3H   1dz2      -0.171347  0.089784 -0.105305 -0.084649 -0.014634  0.169003
  3H   1dxz      -0.113855  0.084357 -0.041869  0.038291  0.060330  0.085492
  3H   1dyz      -0.004752 -0.000522 -0.064430 -0.038194  0.078793  0.027759
  3H   1dx2y2    -0.030387 -0.013057  0.012339  0.022735  0.022025  0.031475
  3H   1dxy       0.019078  0.011565 -0.000585 -0.014332  0.030926  0.044375
                     30        31        32        33        34        35   
                   2.42835   2.42836   2.58432   2.99949   3.18378   3.18379
                   0.00000   0.00000   0.00000   0.00000   0.00000   0.00000
                  --------  --------  --------  --------  --------  --------
  0N   1s         0.000000  0.000005 -0.045473 -0.067152  0.000000  0.000002
  0N   2s         0.000000  0.000016 -0.172755 -0.248242  0.000000  0.000006
  0N   3s        -0.000000 -0.000108  0.720525  3.429166 -0.000000 -0.000077
  0N   4s         0.000000  0.000160  2.172623-13.365852  0.000000  0.000295
  0N   5s        -0.000000 -0.000187  4.903597 -1.709194  0.000000  0.000032
  0N   1pz        0.704646  0.121391  0.325565 -0.410560 -0.753899 -0.129892
  0N   1px        0.000091  0.747967 -0.250492  0.315904 -0.000102 -0.800266
  0N   1py       -0.364468  0.234880  0.629370 -0.793679  0.389942 -0.251338
  0N   2pz       -2.988057 -0.514815 -1.030496  1.828166  3.722424  0.641343
  0N   2px       -0.000388 -3.171701  0.792829 -1.406661  0.000505  3.951321
  0N   2py        1.545530 -0.996116 -1.992116  3.534141 -1.925362  1.240984
  0N   3pz        0.135077  0.023276 -0.431846  0.227722  0.420394  0.072430
  0N   3px        0.000018  0.143381  0.332314 -0.175231  0.000057  0.446240
  0N   3py       -0.069867  0.045037 -0.834828  0.440224 -0.217442  0.140150
  0N   1dz2       0.061138  0.063567  0.013838 -0.003162 -0.032668  0.023347
  0N   1dxz       0.053132  0.009700  0.015833 -0.003616  0.058389 -0.030134
  0N   1dyz       0.049969 -0.022849 -0.039775  0.009088 -0.026711 -0.037909
  0N   1dx2y2     0.035285 -0.077775  0.032349 -0.007390 -0.018860  0.013252
  0N   1dxy      -0.027481  0.018767  0.030608 -0.006991 -0.030213 -0.058236
  0N   2dz2       0.351308  0.206569  0.026700 -0.201651 -0.763159 -0.855899
  0N   2dxz       0.065029  0.124835  0.030558 -0.230694 -0.757673 -0.093925
  0N   2dyz       0.287160  0.007486 -0.076745  0.579615 -0.623724  0.339784
  0N   2dx2y2     0.202769 -0.368534  0.062415 -0.471391 -0.440426  1.001701
  0N   2dxy      -0.033601  0.241343  0.059073 -0.445969  0.391902 -0.181793
  0N   1f0       -0.045336 -0.121698 -0.119374  0.038086 -0.030626 -0.076469
  0N   1f+1      -0.115774  0.052247 -0.167909  0.062119 -0.094184  0.027911
  0N   1f-1      -0.005832 -0.028288 -0.027440  0.009701  0.051623 -0.008555
  0N   1f+2       0.062216 -0.069262 -0.068958  0.018839  0.028626 -0.074345
  0N   1f-2      -0.103674  0.043662  0.073821 -0.033482 -0.084336  0.054886
  0N   1f+3       0.089697  0.117885 -0.131427  0.041488  0.072970  0.099449
  0N   1f-3       0.042611 -0.032187 -0.030024  0.014326  0.008786  0.026051
  1H   1s        -0.000095 -0.791117  0.572483  0.191943 -0.000040 -0.320052
  1H   2s         0.000423  3.526030 -2.950276  4.475984 -0.000451 -3.596957
  1H   3s        -0.000093 -0.775987 -0.534612  0.154557 -0.000029 -0.230435
  1H   1pz       -0.012591  0.010220  0.009813  0.028632  0.159790 -0.008772
  1H   1px       -0.000028 -0.233735  0.104943 -0.131171  0.000012  0.096406
  1H   1py        0.006516  0.019752  0.018970  0.055350 -0.082660 -0.016908
  1H   2pz        0.206694  0.041031  0.149554 -0.074897 -0.199482 -0.086559
  1H   2px       -0.000159 -1.331910  0.969082 -2.322098  0.000258  2.064117
  1H   2py       -0.106908  0.079375  0.289116 -0.144798  0.103163 -0.167384
  1H   1dz2      -0.102821 -0.138843 -0.006596 -0.133572 -0.285059  0.036078
  1H   1dxz      -0.081837 -0.009995 -0.016268 -0.009603 -0.113453  0.055036
  1H   1dyz      -0.084036  0.023934  0.098049 -0.016327 -0.233014  0.108818
  1H   1dx2y2    -0.059330  0.206637 -0.127401  0.254471 -0.164609 -0.216438
  1H   1dxy       0.042330 -0.019344 -0.031449 -0.018561  0.058704  0.106358
  2H   1s        -0.685067  0.395627  0.572539  0.191943 -0.277129  0.160046
  2H   2s         3.053378 -1.763334 -2.950535  4.476267 -3.114650  1.798732
  2H   3s        -0.671994  0.388111 -0.534582  0.154559 -0.199532  0.115236
  2H   1pz       -0.094733  0.045260  0.067033 -0.026894  0.083802  0.071403
  2H   1px        0.052600 -0.043747 -0.045055  0.014350  0.053406  0.138775
  2H   1py        0.172192 -0.099880 -0.070349  0.141993 -0.073905  0.048217
  2H   2pz       -0.470036  0.426451  0.701085 -1.285390  0.740013 -0.576928
  2H   2px        0.442985 -0.036398 -0.476470  0.850890 -0.610526  0.140831
  2H   2py        0.965723 -0.550541 -0.571621  1.744470 -1.520993  0.871471
  2H   1dz2      -0.102885 -0.101893 -0.000046 -0.045245 -0.075341 -0.328837
  2H   1dxz      -0.102690 -0.006433 -0.045296 -0.059424 -0.148559 -0.063603
  2H   1dyz      -0.143467  0.068405  0.126697 -0.204154  0.101166 -0.164022
  2H   1dx2y2    -0.078322  0.139309 -0.023332 -0.134327  0.196325  0.110452
  2H   1dxy       0.082624 -0.059007 -0.092166  0.134183 -0.154855 -0.038831
  3H   1s         0.685162  0.395463  0.572539  0.191943  0.277169  0.159977
  3H   2s        -3.053801 -1.762601 -2.950535  4.476267  3.115101  1.797951
  3H   3s         0.672088  0.387950 -0.534582  0.154559  0.199561  0.115186
  3H   1pz       -0.195302 -0.107624 -0.096149  0.131431  0.108740 -0.001931
  3H   1px       -0.052611 -0.043735 -0.045055  0.014350 -0.053371  0.138788
  3H   1py       -0.022180 -0.020766  0.014063  0.060094 -0.025673  0.086144
  3H   2pz       -1.059954 -0.695489 -0.871631  2.166494  1.669239  1.044206
  3H   2px       -0.442997 -0.036295 -0.476474  0.850899  0.610567  0.140682
  3H   2py       -0.174360  0.029996  0.241923 -0.041142  0.274863  0.032595
  3H   1dz2      -0.162321 -0.136282 -0.090028  0.244213  0.195970  0.069949
  3H   1dxz      -0.126782 -0.044415 -0.049052  0.143854  0.040554  0.005046
  3H   1dyz      -0.073292  0.040279  0.053140  0.032466 -0.002532  0.162010
  3H   1dx2y2    -0.074748  0.119450 -0.075283  0.032792 -0.126605  0.340752
  3H   1dxy       0.036063 -0.039353 -0.090224  0.029032  0.210707 -0.074399
                     36        37        38        39        40        41   
                   3.35670   3.51740   3.51741   3.53600   3.61220   3.61220
                   0.00000   0.00000   0.00000   0.00000   0.00000   0.00000
                  --------  --------  --------  --------  --------  --------
  0N   1s         0.005874 -0.000000 -0.000001  0.000000 -0.000000 -0.000000
  0N   2s         0.015402 -0.000000 -0.000005  0.000000 -0.000000 -0.000001
  0N   3s         0.230586  0.000000  0.000090 -0.000000  0.000000  0.000012
  0N   4s        -2.020275 -0.000000 -0.000463 -0.000000 -0.000000 -0.000107
  0N   5s        -2.221816 -0.000000 -0.000210 -0.000000 -0.000000 -0.000073
  0N   1pz       -0.096942  0.115185  0.019834 -0.000021 -0.351386 -0.060519
  0N   1px        0.074612  0.000016  0.122269  0.000000 -0.000071 -0.372943
  0N   1py       -0.187405 -0.059577  0.038378  0.000011  0.181739 -0.117156
  0N   2pz        0.366651 -0.584424 -0.100617  0.000127  1.973643  0.339905
  0N   2px       -0.282204 -0.000081 -0.620342 -0.000000  0.000398  2.094675
  0N   2py        0.708796  0.302283 -0.194696 -0.000066 -1.020782  0.658011
  0N   3pz        0.345027 -0.233761 -0.040243  0.000102  0.156562  0.026975
  0N   3px       -0.265526 -0.000032 -0.248111 -0.000000  0.000032  0.166178
  0N   3py        0.666993  0.120909 -0.077871 -0.000053 -0.080975  0.052220
  0N   1dz2       0.018603 -0.058877  0.006211  0.000036 -0.170985 -0.209133
  0N   1dxz       0.021294  0.050904 -0.038696 -0.000001 -0.196086 -0.013454
  0N   1dyz      -0.053485 -0.048134 -0.036956  0.000030 -0.139725  0.091350
  0N   1dx2y2     0.043506 -0.033987  0.041593  0.000021 -0.098653  0.232999
  0N   1dxy       0.041165 -0.026344 -0.074790  0.000001  0.101426 -0.026097
  0N   2dz2       0.012334  0.142634  0.211972 -0.000029 -0.405857 -0.173553
  0N   2dxz       0.014101  0.220396 -0.005102 -0.000104  0.023295 -0.172513
  0N   2dyz      -0.035429  0.116562 -0.108981 -0.000024 -0.331757 -0.065489
  0N   2dx2y2     0.028799  0.082308 -0.212906 -0.000017 -0.234229  0.393593
  0N   2dxy       0.027260 -0.114009 -0.009797  0.000054 -0.012131 -0.333482
  0N   1f0        0.130744 -0.003114  0.006750  0.116880 -0.015604 -0.045655
  0N   1f+1      -0.019087 -0.050394 -0.015915 -0.057513 -0.029346  0.022841
  0N   1f-1       0.007571  0.146765  0.025997 -0.097000 -0.038547 -0.016674
  0N   1f+2       0.150631 -0.031223 -0.077828 -0.133451  0.030222 -0.005713
  0N   1f-2       0.154990 -0.045116  0.070295 -0.051503 -0.026283 -0.001669
  0N   1f+3       0.154536  0.039041  0.060699  0.044551  0.022740  0.027541
  0N   1f-3      -0.079862 -0.050042  0.124393 -0.069558  0.027811 -0.042514
  1H   1s        -0.244253 -0.000000 -0.000157 -0.000000 -0.000087 -0.462460
  1H   2s         1.548266  0.000100  0.778224  0.000000 -0.000264 -1.404780
  1H   3s         0.269816  0.000010  0.075591  0.000000 -0.000084 -0.447700
  1H   1pz        0.058933  0.149557 -0.176208 -0.218852 -0.074836 -0.035705
  1H   1px       -0.106341 -0.000013 -0.101054 -0.000001 -0.000111 -0.590846
  1H   1py        0.113926 -0.077419 -0.340592  0.113209  0.038695 -0.069061
  1H   2pz       -0.126551 -0.029373  0.142212  0.204092 -0.138673  0.020954
  1H   2px       -0.514311 -0.000041 -0.321307  0.000000  0.000285  1.518532
  1H   2py       -0.244646  0.015239  0.274909 -0.105574  0.071743  0.040452
  1H   1dz2      -0.213584  0.175544 -0.320914 -0.296437  0.182719  0.264383
  1H   1dxz      -0.068574  0.127858  0.068155  0.185402  0.224194 -0.020778
  1H   1dyz       0.345884  0.143597  0.491953 -0.242324  0.149300 -0.136234
  1H   1dx2y2    -0.119791  0.101356 -0.140785 -0.171147  0.105416 -0.265153
  1H   1dxy      -0.132563 -0.066117  0.131799 -0.095907 -0.115981 -0.040069
  2H   1s        -0.244268 -0.000143  0.000067  0.000043 -0.400469  0.231293
  2H   2s         1.548205  0.673805 -0.388879 -0.000242 -1.216645  0.702707
  2H   3s         0.269803  0.065443 -0.037762 -0.000007 -0.387677  0.223939
  2H   1pz        0.027887 -0.208146  0.232464  0.142190 -0.327588  0.133093
  2H   1px       -0.025016  0.254572  0.011896  0.201027  0.167845 -0.176410
  2H   1py        0.162338 -0.130004  0.080288  0.006602  0.364116 -0.212926
  2H   2pz       -0.437663  0.020243 -0.033879 -0.132554  0.649067 -0.478879
  2H   2px        0.301261 -0.047243 -0.003990 -0.187548 -0.520680  0.153531
  2H   2py        0.240909  0.383221 -0.222259 -0.006238 -1.022064  0.585514
  2H   1dz2      -0.056473  0.219024  0.141240  0.161528  0.150311  0.251970
  2H   1dxz      -0.260582 -0.423920  0.353669  0.058400  0.281840 -0.023076
  2H   1dyz       0.185561  0.159681 -0.060492  0.246743  0.164425 -0.114743
  2H   1dx2y2    -0.269036 -0.212948 -0.033882 -0.115678  0.091038 -0.245507
  2H   1dxy      -0.154846 -0.110552  0.093550  0.339950 -0.126155  0.025726
  3H   1s        -0.244268  0.000143  0.000067 -0.000043  0.400555  0.231143
  3H   2s         1.548205 -0.673904 -0.388706  0.000242  1.216909  0.702251
  3H   3s         0.269803 -0.065453 -0.037745  0.000007  0.387761  0.223794
  3H   1pz        0.116383 -0.014178 -0.068786  0.076770 -0.486558 -0.250503
  3H   1px       -0.025016 -0.254570  0.011960 -0.201027 -0.167913 -0.176348
  3H   1py        0.116560  0.245060  0.236060 -0.119868  0.056976 -0.014424
  3H   2pz        0.449506 -0.301121 -0.161750 -0.071500  1.209499  0.754126
  3H   2px        0.301263  0.047241 -0.004002  0.187547  0.520742  0.153338
  3H   2py       -0.218011 -0.237988 -0.156013  0.111792  0.060780 -0.052560
  3H   1dz2       0.003592  0.007428  0.069068  0.134684  0.186793  0.235483
  3H   1dxz       0.024184 -0.154746 -0.127958 -0.243715  0.265826  0.034233
  3H   1dyz       0.234663  0.025386 -0.119498 -0.004603  0.111026 -0.128204
  3H   1dx2y2    -0.234356  0.343658 -0.075640  0.286695  0.103445 -0.255023
  3H   1dxy      -0.302151  0.409960  0.342604 -0.244088 -0.157138 -0.003913
                     42        43        44        45        46        47   
                   3.71003   3.80218   3.80219   3.96069   3.96070   4.00307
                   0.00000   0.00000   0.00000   0.00000   0.00000   0.00000
                  --------  --------  --------  --------  --------  --------
  0N   1s        -0.000000  0.000001 -0.000000  0.000000  0.000002  0.007663
  0N   2s        -0.000000  0.000002 -0.000000  0.000000  0.000000 -0.003914
  0N   3s         0.000000 -0.000044  0.000000 -0.000000 -0.000021  0.052654
  0N   4s        -0.000000  0.000246 -0.000000  0.000000  0.000393  1.241479
  0N   5s        -0.000000  0.000054 -0.000000  0.000000  0.000072 -0.713916
  0N   1pz       -0.000025  0.016615 -0.096404 -0.054060 -0.009309  0.020074
  0N   1px        0.000000  0.102315 -0.000011 -0.000007 -0.057388 -0.015441
  0N   1py        0.000013  0.032144  0.049864  0.027962 -0.018013  0.038807
  0N   2pz        0.000165 -0.099476  0.577208  0.236087  0.040633 -0.014321
  0N   2px       -0.000000 -0.612566  0.000064  0.000031  0.250591  0.011020
  0N   2py       -0.000085 -0.192451 -0.298557 -0.122113  0.078622 -0.027684
  0N   3pz        0.000040 -0.123055  0.714114 -0.201322 -0.034685  0.232010
  0N   3px       -0.000000 -0.757960  0.000079 -0.000026 -0.213721 -0.178481
  0N   3py       -0.000021 -0.238067 -0.369371  0.104131 -0.067113  0.448513
  0N   1dz2      -0.000016 -0.033113  0.052395 -0.066952 -0.047692  0.041609
  0N   1dxz      -0.000019 -0.017618  0.013168 -0.025006 -0.020154  0.047615
  0N   1dyz      -0.000013  0.000893  0.042828 -0.054725  0.005845 -0.119616
  0N   1dx2y2    -0.000009  0.056107  0.030243 -0.038642  0.074357  0.097292
  0N   1dxy       0.000010 -0.034061 -0.006807  0.012929 -0.038967  0.092048
  0N   2dz2      -0.000047  0.212639 -0.462636  0.132831 -0.177804 -0.000452
  0N   2dxz       0.000024  0.190242  0.004299 -0.362885  0.158606 -0.000575
  0N   2dyz      -0.000038  0.061780 -0.378174  0.108627  0.226608  0.001344
  0N   2dx2y2    -0.000027 -0.455940 -0.267044  0.076699 -0.012941 -0.001120
  0N   2dxy      -0.000013  0.367764 -0.002273  0.187763  0.306505 -0.001112
  0N   1f0        0.128115  0.119909 -0.033431  0.040033  0.097401 -0.076538
  0N   1f+1      -0.063070 -0.077337 -0.001431  0.130173 -0.033252 -0.133345
  0N   1f-1      -0.106283  0.076339 -0.296349 -0.092019  0.006516 -0.020439
  0N   1f+2      -0.146289 -0.093772  0.116321 -0.031501  0.109341 -0.034709
  0N   1f-2      -0.056480  0.101242 -0.001299  0.116560 -0.082934  0.077182
  0N   1f+3       0.048855  0.017198  0.001112 -0.100851 -0.138756 -0.082919
  0N   1f-3      -0.076259  0.274935  0.136546 -0.002652 -0.055167 -0.033518
  1H   1s         0.000000  0.122487 -0.000012 -0.000003 -0.023579 -0.131604
  1H   2s         0.000000  0.854946 -0.000087 -0.000035 -0.290838 -0.003935
  1H   3s         0.000000  0.313792 -0.000032 -0.000003 -0.021830  0.046991
  1H   1pz       -0.459447 -0.231491  0.360944 -0.539642  0.203645  0.287668
  1H   1px       -0.000001 -0.074076  0.000008 -0.000019 -0.142632 -0.184016
  1H   1py        0.237666 -0.447600 -0.186654  0.279210  0.393518  0.556110
  1H   2pz        0.364447  0.159506 -0.418538  0.533706 -0.209880 -0.244096
  1H   2px        0.000001 -0.269928  0.000026  0.000051  0.413576  0.377076
  1H   2py       -0.188523  0.308454  0.216464 -0.276141 -0.405572 -0.471877
  1H   1dz2       0.257305  0.120164  0.211224  0.014911 -0.090314  0.163119
  1H   1dxz       0.011911  0.105798 -0.042669 -0.332773  0.205918  0.092899
  1H   1dyz       0.210336 -0.250166  0.172702  0.012222  0.212478 -0.110213
  1H   1dx2y2     0.148555  0.146147  0.121942  0.008596 -0.144424 -0.126484
  1H   1dxy      -0.006161  0.204535  0.022046  0.172200  0.397975  0.179586
  2H   1s        -0.000036 -0.061255 -0.106082 -0.020415  0.011775 -0.131609
  2H   2s        -0.000112 -0.427682 -0.740512 -0.251782  0.145265 -0.003947
  2H   3s        -0.000054 -0.156936 -0.271781 -0.018900  0.010886  0.047013
  2H   1pz        0.298306 -0.022983  0.428768  0.007200 -0.408792  0.306747
  2H   1px        0.422392 -0.418454 -0.061200 -0.387792 -0.348961 -0.233777
  2H   1py        0.013846  0.114318  0.219658  0.323001 -0.205191  0.526516
  2H   2pz       -0.236603  0.192990 -0.209175  0.102658  0.340945 -0.147917
  2H   2px       -0.335115  0.369999 -0.128562  0.312424  0.386143  0.124713
  2H   2py       -0.011045 -0.201847 -0.374643 -0.516464  0.316646 -0.622190
  2H   1dz2      -0.239226 -0.195164 -0.005134  0.152646 -0.292418  0.126444
  2H   1dxz      -0.093998 -0.111914 -0.065739 -0.368660  0.122508  0.068787
  2H   1dyz      -0.127767 -0.010294  0.244461  0.142582  0.118838  0.043123
  2H   1dx2y2     0.149349 -0.027603 -0.263417  0.230383 -0.034181  0.270114
  2H   1dxy      -0.167208 -0.234729 -0.054393  0.093669  0.241975 -0.011272
  3H   1s         0.000036 -0.061233  0.106094  0.020418  0.011770 -0.131609
  3H   2s         0.000112 -0.427531  0.740599  0.251817  0.145204 -0.003947
  3H   3s         0.000054 -0.156881  0.271813  0.018902  0.010882  0.047013
  3H   1pz        0.161063  0.106598  0.068442 -0.259450  0.068793  0.252491
  3H   1px       -0.422391 -0.418441  0.061286  0.387706 -0.349053 -0.233778
  3H   1py       -0.251471  0.047197 -0.476879 -0.192616 -0.452160  0.554582
  3H   2pz       -0.127697 -0.276217  0.184968  0.480858  0.061322 -0.422350
  3H   2px        0.335114  0.370024  0.128486 -0.312329  0.386218  0.124712
  3H   2py        0.199493  0.040966  0.387185  0.214739  0.461179 -0.480230
  3H   1dz2      -0.018016  0.024190  0.047714  0.249234 -0.077641 -0.190951
  3H   1dxz       0.082160 -0.126915  0.006436 -0.289432  0.126777 -0.048947
  3H   1dyz      -0.082518  0.168968 -0.209684  0.186022  0.294414 -0.216335
  3H   1dx2y2    -0.297868  0.099094  0.287983  0.001672  0.089855  0.086865
  3H   1dxy       0.173330 -0.226951  0.085130  0.246828  0.239743  0.049629
                     48        49        50        51        52        53   
                   4.13581   4.19692   4.19693   4.38978   4.38979   4.57510
                   0.00000   0.00000   0.00000   0.00000   0.00000   0.00000
                  --------  --------  --------  --------  --------  --------
  0N   1s        -0.013029 -0.000000  0.000001  0.000000  0.000000 -0.000000
  0N   2s         0.011439 -0.000000  0.000001  0.000000  0.000002 -0.000000
  0N   3s        -0.295735  0.000000 -0.000018 -0.000000 -0.000055  0.000000
  0N   4s        -1.555976 -0.000000  0.000192  0.000000  0.000151 -0.000000
  0N   5s        -1.795125 -0.000000  0.000140  0.000000  0.000035 -0.000000
  0N   1pz        0.005930 -0.208250  0.035886 -0.097510 -0.016797  0.000029
  0N   1px       -0.004548 -0.000026  0.221054 -0.000014 -0.103516 -0.000000
  0N   1py        0.011464  0.107714  0.069433  0.050435 -0.032504 -0.000015
  0N   2pz        0.456503  1.602439 -0.276157  0.399064  0.068719 -0.000117
  0N   2px       -0.351413  0.000201 -1.700933  0.000058  0.423538  0.000000
  0N   2py        0.882495 -0.828841 -0.534320 -0.206408  0.132979  0.000061
  0N   3pz        0.281190 -0.063322  0.010889 -0.012282 -0.002125 -0.000003
  0N   3px       -0.216375 -0.000008  0.067237 -0.000002 -0.013050  0.000000
  0N   3py        0.543586  0.032753  0.021068  0.006352 -0.004112  0.000002
  0N   1dz2      -0.058885  0.120846 -0.196485  0.114075 -0.149272 -0.000020
  0N   1dxz      -0.067375  0.212270  0.011665 -0.306423  0.134720  0.000025
  0N   1dyz       0.169263  0.098756  0.107103  0.093292  0.191620 -0.000016
  0N   1dx2y2    -0.137664  0.069736  0.188725  0.065869 -0.012817 -0.000012
  0N   1dxy      -0.130247 -0.109807  0.022494  0.158553  0.260337 -0.000013
  0N   2dz2       0.121433 -0.886246  1.233274 -0.365967  0.511597  0.000061
  0N   2dxz       0.138918 -1.242253  0.004886  1.032539 -0.446422 -0.000075
  0N   2dyz      -0.348966 -0.724289 -0.603885 -0.299300 -0.643325  0.000050
  0N   2dx2y2     0.283764 -0.511450 -1.281422 -0.211322  0.024933  0.000035
  0N   2dxy       0.268551  0.642596  0.009780 -0.534265 -0.862675  0.000039
  0N   1f0        0.153000  0.009538 -0.034176  0.057567  0.158161 -0.081942
  0N   1f+1       0.012002  0.000567  0.022007  0.137036 -0.070987  0.040325
  0N   1f-1       0.012662  0.084031 -0.021682  0.042286  0.042545  0.067973
  0N   1f+2       0.163572 -0.033062  0.026477 -0.087410  0.070688  0.093567
  0N   1f-2       0.141481  0.000513 -0.028664  0.122715 -0.039525  0.036112
  0N   1f+3       0.179054 -0.000440 -0.004727 -0.106172 -0.137283 -0.031237
  0N   1f-3      -0.074391 -0.038769 -0.077988 -0.066658  0.070847  0.048777
  1H   1s        -0.015329 -0.000048  0.415002  0.000009  0.064759 -0.000000
  1H   2s         0.901229 -0.000251  2.164632 -0.000050 -0.373644 -0.000000
  1H   3s         0.389489  0.000013 -0.113931 -0.000008 -0.063116  0.000000
  1H   1pz        0.116132 -0.274738  0.211011 -0.380368 -0.089271  0.335867
  1H   1px        0.473992  0.000044 -0.382556 -0.000012 -0.086641  0.000001
  1H   1py        0.224504  0.142058  0.407995  0.196730 -0.172701 -0.173739
  1H   2pz       -0.230197  0.671048 -0.148551 -0.124804  0.336791 -0.536830
  1H   2px       -0.829687  0.000123 -1.051729  0.000049  0.368438 -0.000001
  1H   2py       -0.445012 -0.347082 -0.287369  0.064670  0.651034  0.277695
  1H   1dz2      -0.191737  0.297415 -0.157992 -0.223029 -0.168513  0.146147
  1H   1dxz       0.127537 -0.534666  0.108778  0.148862 -0.324837  0.583514
  1H   1dyz       0.040112  0.243097  0.085473 -0.182254  0.334157  0.119472
  1H   1dx2y2     0.275302  0.171682  0.152749 -0.128777 -0.181146  0.084381
  1H   1dxy       0.246554  0.276546  0.210440 -0.077111 -0.627914 -0.301843
  2H   1s        -0.015375 -0.359382 -0.207547  0.056064 -0.032397  0.000001
  2H   2s         0.901058 -1.874517 -1.082679 -0.323571  0.186774  0.000112
  2H   3s         0.389510  0.098633  0.056941 -0.054669  0.031567 -0.000005
  2H   1pz        0.402661 -0.175012  0.104900 -0.269333 -0.129674 -0.218045
  2H   1px       -0.277119 -0.049187  0.263249 -0.070539 -0.363089 -0.308692
  2H   1py       -0.222784 -0.508756 -0.284285 -0.048407  0.014749 -0.010063
  2H   2pz       -0.742243  0.860272 -0.006292  0.527565 -0.398233  0.348519
  2H   2px        0.512662 -0.127150 -0.785827 -0.462918  0.134859  0.493540
  2H   2py        0.354229 -0.542724 -0.336747  0.130433 -0.079691  0.016134
  2H   1dz2       0.122116 -0.119630 -0.026176 -0.372598  0.080833 -0.465797
  2H   1dxz      -0.261796  0.202121  0.150287  0.001154 -0.048607 -0.198242
  2H   1dyz      -0.270542  0.345943 -0.287557  0.202545 -0.336818  0.215882
  2H   1dx2y2     0.007221 -0.020938  0.008344 -0.464966  0.366122  0.247859
  2H   1dxy       0.185696  0.208407 -0.571317 -0.374554 -0.086993  0.331741
  3H   1s        -0.015375  0.359430 -0.207464 -0.056072 -0.032382 -0.000001
  3H   2s         0.901058  1.874767 -1.082245  0.323620  0.186688 -0.000112
  3H   3s         0.389510 -0.098646  0.056918  0.054678  0.031552  0.000005
  3H   1pz       -0.414488  0.314180 -0.292566 -0.116090  0.086997 -0.117775
  3H   1px       -0.277121  0.049126  0.263259  0.070441 -0.363107  0.308691
  3H   1py        0.199916  0.436820 -0.078542  0.247767 -0.097382  0.183778
  3H   2pz        0.717982  0.940088 -0.270989  0.198415  0.165005  0.188209
  3H   2px        0.512665  0.127336 -0.785798  0.462956  0.134737 -0.493539
  3H   2py       -0.401125 -0.388499 -0.199800 -0.506048 -0.370939 -0.293776
  3H   1dz2       0.216911  0.270534  0.230114 -0.102488  0.063995  0.319693
  3H   1dxz       0.302828 -0.053180 -0.553142  0.306358 -0.042999 -0.385300
  3H   1dyz      -0.193048 -0.222523 -0.078157 -0.591014 -0.350447 -0.335318
  3H   1dx2y2     0.061954  0.108057  0.156298  0.190762  0.356334 -0.332215
  3H   1dxy      -0.106377 -0.285337 -0.207514  0.215451 -0.089994 -0.029883
[...]
   4. BD ( 1) N  1- H  3   61.5  249.4    60.5  248.6   1.2     --     --    --
   5. BD ( 1) N  1- H  4  161.2  195.6   161.0  192.4   1.1     --     --    --


 NATURAL BOND ORBITALS (Summary):

           NBO                 Occupancy
 ========================================
 Molecular unit  1  (H3N)
 ------ Lewis ---------------------------
    1. CR ( 1) N  1             1.99940
    2. LP ( 1) N  1             1.96194
    3. BD ( 1) N  1- H  2       1.96849
    4. BD ( 1) N  1- H  3       1.96849
    5. BD ( 1) N  1- H  4       1.96849
 ------ non-Lewis -----------------------
    6. BD*( 1) N  1- H  2       0.01692
    7. BD*( 1) N  1- H  3       0.01692
    8. BD*( 1) N  1- H  4       0.01692
    9. RY ( 1) N  1             0.01793
   10. RY ( 2) N  1             0.00762
   11. RY ( 3) N  1             0.00762
   12. RY ( 4) N  1             0.00628
   13. RY ( 5) N  1             0.00604
   14. RY ( 6) N  1             0.00604
   15. RY ( 7) N  1             0.00220
   16. RY ( 8) N  1             0.00220
   17. RY ( 9) N  1             0.00208
   18. RY (10) N  1             0.00059
   19. RY (11) N  1             0.00041
   20. RY (12) N  1             0.00041
   21. RY (13) N  1             0.00039
   22. RY (14) N  1             0.00039
   23. RY (15) N  1             0.00039
   24. RY (16) N  1             0.00038
   25. RY (17) N  1             0.00033
   26. RY (18) N  1             0.00032
   27. RY (19) N  1             0.00032
   28. RY (20) N  1             0.00028
   29. RY (21) N  1             0.00027
   30. RY (22) N  1             0.00027
   31. RY (23) N  1             0.00019
   32. RY (24) N  1             0.00014
   33. RY (25) N  1             0.00014
   34. RY (26) N  1             0.00010
   35. RY ( 1) H  2             0.00226
   36. RY ( 2) H  2             0.00159
   37. RY ( 3) H  2             0.00103
   38. RY ( 4) H  2             0.00051
   39. RY ( 5) H  2             0.00026
   40. RY ( 6) H  2             0.00016
   41. RY ( 7) H  2             0.00012
   42. RY ( 8) H  2             0.00011
   43. RY ( 9) H  2             0.00009
   44. RY (10) H  2             0.00009
   45. RY (11) H  2             0.00006
   46. RY (12) H  2             0.00005
   47. RY (13) H  2             0.00003
   48. RY ( 1) H  3             0.00226
   49. RY ( 2) H  3             0.00159
   50. RY ( 3) H  3             0.00103
   51. RY ( 4) H  3             0.00051
   52. RY ( 5) H  3             0.00026
   53. RY ( 6) H  3             0.00016
   54. RY ( 7) H  3             0.00012
   55. RY ( 8) H  3             0.00011
   56. RY ( 9) H  3             0.00009
   57. RY (10) H  3             0.00009
   58. RY (11) H  3             0.00006
   59. RY (12) H  3             0.00005
   60. RY (13) H  3             0.00003
   61. RY ( 1) H  4             0.00226
   62. RY ( 2) H  4             0.00159
   63. RY ( 3) H  4             0.00103
   64. RY ( 4) H  4             0.00051
   65. RY ( 5) H  4             0.00026
   66. RY ( 6) H  4             0.00016
   67. RY ( 7) H  4             0.00012
   68. RY ( 8) H  4             0.00011
   69. RY ( 9) H  4             0.00009
   70. RY (10) H  4             0.00009
   71. RY (11) H  4             0.00006
   72. RY (12) H  4             0.00005
   73. RY (13) H  4             0.00003
          -------------------------------
                 Total Lewis    9.86681  ( 98.6681%)
           Valence non-Lewis    0.05076  (  0.5076%)
           Rydberg non-Lewis    0.08244  (  0.8244%)
          -------------------------------
               Total unit  1   10.00000  (100.0000%)
              Charge unit  1    0.00000

 $CHOOSE
   LONE 1 1 END
   BOND S 1 2 S 1 3 S 1 4 END
 $END

 NBO analysis completed in 0.08 CPU seconds (0 wall seconds)
 Maximum scratch memory used by NBO was 449485 words (3.43 MB)
Stopping NBO...Storing NBOs: NH3.pmp2re.nbo

                                *** returned from   NBO  program ***


----------------------------------
MP2 DERIVATIVE INTEGRAL GENERATION
----------------------------------


Input Wavefunction Amplitudes       ... NH3.mp2tsaa.tmp
Input Correlated Electron Density   ... NH3.pmp2re
Input Energy Weighted Density       ... NH3.wmp2.tmp
Input SCF Electron Density          ... NH3.scfp

One-Electron Terms    ...
                        ... One-Electron Terms done
Prescreening matrices              ... done

Batch handling in the gradient evaluation:
Memory available                      ...  256.0 MB
Memory per occupied orbital in Q2     ...    0.2 MB
Memory per occupied orbital in Q3     ...    0.0 MB
Total memory requirement per |i>      ...    0.2 MB
Max. Number of orbitals possible      ...   1110
Number of orbitals treated per batch  ...      5
Number of batches to be done          ...      1
Batch   0: i=    0 ...     4

---------------------------------------
MP2 TOTAL ENERGY:      -56.474889559 Eh
---------------------------------------

-----------------------------------
NORM OF THE MP2 GRADIENT:  0.000003
-----------------------------------

-------------------------   --------------------
FINAL SINGLE POINT ENERGY       -56.474889558814
-------------------------   --------------------

                                *** OPTIMIZATION RUN DONE ***

                            ***************************************
                            *     ORCA property calculations      *
                            ***************************************

                                    ---------------------
                                    Active property flags
                                    ---------------------
   (+) Dipole Moment


------------------------------------------------------------------------------
                       ORCA ELECTRIC PROPERTIES CALCULATION
------------------------------------------------------------------------------

Dipole Moment Calculation                       ... on
Quadrupole Moment Calculation                   ... off
Polarizability Calculation                      ... off
GBWName                                         ... NH3.gbw
Electron density file                           ... NH3.scfp
The origin for moment calculation is the CENTER OF MASS  = (-4.578376, -5.343437 -0.029399)

-------------
DIPOLE MOMENT
-------------
                                X             Y             Z
Electronic contribution:     -0.07262       0.18246       0.09438
Nuclear contribution   :      0.29517      -0.74154      -0.38359
                        -----------------------------------------
Total Dipole Moment    :      0.22254      -0.55908      -0.28920
                        -----------------------------------------
Magnitude (a.u.)       :      0.66763
Magnitude (Debye)      :      1.69699



--------------------
Rotational spectrum 
--------------------
 
Rotational constants in cm-1:    10.017121    10.017036     6.392156 
Rotational constants in MHz : 300305.734602 300303.192496 191632.021240 

 Dipole components along the rotational axes: 
x,y,z [a.u.] :    -0.000004     0.000000    -0.667634 
x,y,z [Debye]:    -0.000011     0.000000    -1.696991 

 

                         *** MP2 UNRELAXED DENSITY ***

------------------------------------------------------------------------------
                       ORCA ELECTRIC PROPERTIES CALCULATION
------------------------------------------------------------------------------

Dipole Moment Calculation                       ... on
Quadrupole Moment Calculation                   ... off
Polarizability Calculation                      ... off
GBWName                                         ... NH3.gbw
Electron density file                           ... NH3.pmp2ur
The origin for moment calculation is the CENTER OF MASS  = (-4.578376, -5.343437 -0.029399)

-------------
DIPOLE MOMENT
-------------
                                X             Y             Z
Electronic contribution:     -0.07516       0.18883       0.09768
Nuclear contribution   :      0.29517      -0.74154      -0.38359
                        -----------------------------------------
Total Dipole Moment    :      0.22001      -0.55271      -0.28591
                        -----------------------------------------
Magnitude (a.u.)       :      0.66002
Magnitude (Debye)      :      1.67765



--------------------
Rotational spectrum 
--------------------
 
Rotational constants in cm-1:    10.017121    10.017036     6.392156 
Rotational constants in MHz : 300305.734602 300303.192496 191632.021240 

 Dipole components along the rotational axes: 
x,y,z [a.u.] :    -0.000004     0.000000    -0.660024 
x,y,z [Debye]:    -0.000011     0.000000    -1.677647 

 

                           *** MP2 RELAXED DENSITY ***

------------------------------------------------------------------------------
                       ORCA ELECTRIC PROPERTIES CALCULATION
------------------------------------------------------------------------------

Dipole Moment Calculation                       ... on
Quadrupole Moment Calculation                   ... off
Polarizability Calculation                      ... off
GBWName                                         ... NH3.gbw
Electron density file                           ... NH3.pmp2re
The origin for moment calculation is the CENTER OF MASS  = (-4.578376, -5.343437 -0.029399)

-------------
DIPOLE MOMENT
-------------
                                X             Y             Z
Electronic contribution:     -0.07981       0.20050       0.10372
Nuclear contribution   :      0.29517      -0.74154      -0.38359
                        -----------------------------------------
Total Dipole Moment    :      0.21536      -0.54103      -0.27987
                        -----------------------------------------
Magnitude (a.u.)       :      0.64608
Magnitude (Debye)      :      1.64222



--------------------
Rotational spectrum 
--------------------
 
Rotational constants in cm-1:    10.017121    10.017036     6.392156 
Rotational constants in MHz : 300305.734602 300303.192496 191632.021240 

 Dipole components along the rotational axes: 
x,y,z [a.u.] :    -0.000004     0.000000    -0.646084 
x,y,z [Debye]:    -0.000011     0.000000    -1.642215 

 
------------------------------------------------------------------------------
                         ORCA MP2 H E S S I A N CALCULATION
------------------------------------------------------------------------------

Calculating analytic MP2 second derivatives ... (>NH3.last_mp2) done

-----------------------
VIBRATIONAL FREQUENCIES
-----------------------

Scaling factor for frequencies =  1.000000000  (already applied!)

   0:         0.00 cm**-1
   1:         0.00 cm**-1
   2:         0.00 cm**-1
   3:         0.00 cm**-1
   4:         0.00 cm**-1
   5:         0.00 cm**-1
   6:      1061.71 cm**-1
   7:      1685.70 cm**-1
   8:      1685.72 cm**-1
   9:      3519.69 cm**-1
  10:      3665.10 cm**-1
  11:      3665.11 cm**-1


------------
NORMAL MODES
------------

These modes are the Cartesian displacements weighted by the diagonal matrix
M(i,i)=1/sqrt(m[i]) where m[i] is the mass of the displaced atom
Thus, these vectors are normalized but *not* orthogonal

                  0          1          2          3          4          5    
      0       0.000000   0.000000   0.000000   0.000000   0.000000   0.000000
      1       0.000000   0.000000   0.000000   0.000000   0.000000   0.000000
      2       0.000000   0.000000   0.000000   0.000000   0.000000   0.000000
      3       0.000000   0.000000   0.000000   0.000000   0.000000   0.000000
      4       0.000000   0.000000   0.000000   0.000000   0.000000   0.000000
      5       0.000000   0.000000   0.000000   0.000000   0.000000   0.000000
      6       0.000000   0.000000   0.000000   0.000000   0.000000   0.000000
      7       0.000000   0.000000   0.000000   0.000000   0.000000   0.000000
      8       0.000000   0.000000   0.000000   0.000000   0.000000   0.000000
      9       0.000000   0.000000   0.000000   0.000000   0.000000   0.000000
     10       0.000000   0.000000   0.000000   0.000000   0.000000   0.000000
     11       0.000000   0.000000   0.000000   0.000000   0.000000   0.000000
                  6          7          8          9         10         11    
      0      -0.038458   0.016452   0.060899   0.012657  -0.002575   0.074463
      1       0.096616   0.034845   0.011104  -0.031812  -0.037096   0.022127
      2       0.049980  -0.054696   0.025391  -0.016453   0.069732   0.014520
      3      -0.018038   0.012643   0.046805  -0.576622   0.028112  -0.812556
      4      -0.509117  -0.271192   0.336926  -0.015337  -0.012030   0.026935
      5      -0.263377   0.686914  -0.049194  -0.007929   0.020944   0.014869
      6       0.276211   0.305772  -0.561722   0.200378   0.235681  -0.103069
      7      -0.333916  -0.125844  -0.054439   0.447343   0.586546  -0.311379
      8      -0.375631  -0.088166  -0.477582  -0.304372  -0.341110   0.197294
      9       0.276228  -0.547034  -0.331325   0.200363  -0.228012  -0.119096
     10      -0.499520  -0.087160  -0.436785   0.010052  -0.059042  -0.023023
     11      -0.055506   0.161302   0.173944   0.540935  -0.648820  -0.413934


-----------
IR SPECTRUM
-----------

 Mode    freq (cm**-1)   T**2         TX         TY         TZ
-------------------------------------------------------------------
   6:      1061.71  153.775274  (  4.133459 -10.383522  -5.373292)
   7:      1685.70   15.634973  ( -0.975400  -2.060326   3.230886)
   8:      1685.72   15.637800  ( -3.599273  -0.653569  -1.501959)
   9:      3519.69    0.598437  (  0.257604  -0.647980  -0.334961)
  10:      3665.10    5.614751  (  0.076519   1.113450  -2.090245)
  11:      3665.11    5.616075  ( -2.232584  -0.664364  -0.436191)

The first frequency considered to be a vibration is 6
The total number of vibrations considered is 6


--------------------------
THERMOCHEMISTRY AT 298.15K
--------------------------

Temperature         ... 298.15 K
Pressure            ... 1.00 atm
Total Mass          ... 17.03 AMU

Throughout the following assumptions are being made:
  (1) The electronic state is orbitally nondegenerate
  (2) There are no thermally accessible electronically excited states
  (3) Hindered rotations indicated by low frequency modes are not
      treated as such but are treated as vibrations and this may
      cause some error
  (4) All equations used are the standard statistical mechanics
      equations for an ideal gas
  (5) All vibrations are strictly harmonic

freq.    1061.71  E(vib)   ...       0.02 
freq.    1685.70  E(vib)   ...       0.00 
freq.    1685.72  E(vib)   ...       0.00 
freq.    3519.69  E(vib)   ...       0.00 
freq.    3665.10  E(vib)   ...       0.00 
freq.    3665.11  E(vib)   ...       0.00 

------------
INNER ENERGY
------------

The inner energy is: U= E(el) + E(ZPE) + E(vib) + E(rot) + E(trans)
    E(el)   - is the total energy from the electronic structure calculation
              = E(kin-el) + E(nuc-el) + E(el-el) + E(nuc-nuc)
    E(ZPE)  - the the zero temperature vibrational energy from the frequency calculation
    E(vib)  - the the finite temperature correction to E(ZPE) due to population
              of excited vibrational states
    E(rot)  - is the rotational thermal energy
    E(trans)- is the translational thermal energy

Summary of contributions to the inner energy U:
Electronic energy                ...    -56.47488956 Eh
Zero point energy                ...      0.03481733 Eh      21.85 kcal/mol
Thermal vibrational correction   ...      0.00003349 Eh       0.02 kcal/mol
Thermal rotational correction    ...      0.00141627 Eh       0.89 kcal/mol
Thermal translational correction ...      0.00141627 Eh       0.89 kcal/mol
-----------------------------------------------------------------------
Total thermal energy                    -56.43720620 Eh


Summary of corrections to the electronic energy:
(perhaps to be used in another calculation)
Total thermal correction                  0.00286604 Eh       1.80 kcal/mol
Non-thermal (ZPE) correction              0.03481733 Eh      21.85 kcal/mol
-----------------------------------------------------------------------
Total correction                          0.03768336 Eh      23.65 kcal/mol


--------
ENTHALPY
--------

The enthalpy is H = U + kB*T
                kB is Boltzmann's constant
Total free energy                 ...    -56.43720620 Eh 
Thermal Enthalpy correction       ...      0.00094421 Eh       0.59 kcal/mol
-----------------------------------------------------------------------
Total Enthalpy                    ...    -56.43626199 Eh


Note: Rotational entropy computed according to Herzberg 
Infrared and Raman Spectra, Chapter V,1, Van Nostrand Reinhold, 1945 
Point Group:  Cs, Symmetry Number:   1  
Rotational constants in cm-1:    10.017121    10.017036     6.392156 

Vibrational entropy computed according to the QRRHO of S. Grimme
Chem.Eur.J. 2012 18 9955


-------
ENTROPY
-------

The entropy contributions are T*S = T*(S(el)+S(vib)+S(rot)+S(trans))
     S(el)   - electronic entropy
     S(vib)  - vibrational entropy
     S(rot)  - rotational entropy
     S(trans)- translational entropy
The entropies will be listed as mutliplied by the temperature to get
units of energy

Electronic entropy                ...      0.00000000 Eh      0.00 kcal/mol
Vibrational entropy               ...      0.00003970 Eh      0.02 kcal/mol
Rotational entropy                ...      0.00645938 Eh      4.05 kcal/mol
Translational entropy             ...      0.01636425 Eh     10.27 kcal/mol
-----------------------------------------------------------------------
Final entropy term                ...      0.02286333 Eh     14.35 kcal/mol

In case the symmetry of your molecule has not been determined correctly
or in case you have a reason to use a different symmetry number we print 
out the resulting rotational entropy values for sn=1,12 :
 --------------------------------------------------------
|  sn= 1 | S(rot)=       0.00645938 Eh      4.05 kcal/mol|
|  sn= 2 | S(rot)=       0.00580492 Eh      3.64 kcal/mol|
|  sn= 3 | S(rot)=       0.00542209 Eh      3.40 kcal/mol|
|  sn= 4 | S(rot)=       0.00515047 Eh      3.23 kcal/mol|
|  sn= 5 | S(rot)=       0.00493978 Eh      3.10 kcal/mol|
|  sn= 6 | S(rot)=       0.00476764 Eh      2.99 kcal/mol|
|  sn= 7 | S(rot)=       0.00462209 Eh      2.90 kcal/mol|
|  sn= 8 | S(rot)=       0.00449601 Eh      2.82 kcal/mol|
|  sn= 9 | S(rot)=       0.00438480 Eh      2.75 kcal/mol|
|  sn=10 | S(rot)=       0.00428532 Eh      2.69 kcal/mol|
|  sn=11 | S(rot)=       0.00419533 Eh      2.63 kcal/mol|
|  sn=12 | S(rot)=       0.00411318 Eh      2.58 kcal/mol|
 --------------------------------------------------------


-------------------
GIBBS FREE ENERGY
-------------------

The Gibbs free energy is G = H - T*S

Total enthalpy                    ...    -56.43626199 Eh 
Total entropy correction          ...     -0.02286333 Eh    -14.35 kcal/mol
-----------------------------------------------------------------------
Final Gibbs free energy         ...    -56.45912532 Eh

For completeness - the Gibbs free energy minus the electronic energy
G-E(el)                           ...      0.01576424 Eh      9.89 kcal/mol


Timings for individual modules:

Sum of individual times         ...       87.875 sec (=   1.465 min)
GTO integral calculation        ...        6.499 sec (=   0.108 min)   7.4 %
SCF iterations                  ...       19.432 sec (=   0.324 min)  22.1 %
MP2 module                      ...       24.861 sec (=   0.414 min)  28.3 %
Geometry relaxation             ...        0.081 sec (=   0.001 min)   0.1 %
Analytical frequency calculation...       37.002 sec (=   0.617 min)  42.1 %
                             ****ORCA TERMINATED NORMALLY****
TOTAL RUN TIME: 0 days 0 hours 1 minutes 28 seconds 811 msec
