
                                 *****************
                                 * O   R   C   A *
                                 *****************

           --- An Ab Initio, DFT and Semiempirical electronic structure package ---

                  #######################################################
                  #                        -***-                        #
                  #          Department of theory and spectroscopy      #
                  #               Directorship: Frank Neese             #
                  #        Max Planck Institute fuer Kohlenforschung    #
                  #                Kaiser Wilhelm Platz 1               #
                  #                 D-45470 Muelheim/Ruhr               #
                  #                      Germany                        #
                  #                                                     #
                  #                  All rights reserved                #
                  #                        -***-                        #
                  #######################################################


                         Program Version 4.2.1 -  RELEASE  -


 With contributions from (in alphabetic order):
   Daniel Aravena         : Magnetic Suceptibility
   Michael Atanasov       : Ab Initio Ligand Field Theory (pilot matlab implementation)
   Alexander A. Auer      : GIAO ZORA, VPT2
   Ute Becker             : Parallelization
   Giovanni Bistoni       : ED, misc. LED, open-shell LED, HFLD
   Martin Brehm           : Molecular dynamics
   Dmytro Bykov           : SCF Hessian
   Vijay G. Chilkuri      : MRCI spin determinant printing, contributions to CSF-ICE
   Dipayan Datta          : RHF DLPNO-CCSD density
   Achintya Kumar Dutta   : EOM-CC, STEOM-CC
   Dmitry Ganyushin       : Spin-Orbit,Spin-Spin,Magnetic field MRCI
   Miquel Garcia          : C-PCM Hessian, Gaussian charge scheme
   Yang Guo               : DLPNO-NEVPT2, CIM, IAO-localization
   Andreas Hansen         : Spin unrestricted coupled pair/coupled cluster methods
   Benjamin Helmich-Paris : CASSCF linear response (MC-RPA)
   Lee Huntington         : MR-EOM, pCC
   Robert Izsak           : Overlap fitted RIJCOSX, COSX-SCS-MP3, EOM
   Christian Kollmar      : KDIIS, OOCD, Brueckner-CCSD(T), CCSD density
   Simone Kossmann        : Meta GGA functionals, TD-DFT gradient, OOMP2, MP2 Hessian
   Martin Krupicka        : AUTO-CI
   Lucas Lang             : DCDCAS
   Dagmar Lenk            : GEPOL surface, SMD
   Dimitrios Liakos       : Extrapolation schemes; Compound Job, initial MDCI parallelization
   Dimitrios Manganas     : Further ROCIS development; embedding schemes
   Dimitrios Pantazis     : SARC Basis sets
   Taras Petrenko         : DFT Hessian,TD-DFT gradient, ASA, ECA, R-Raman, ABS, FL, XAS/XES, NRVS
   Peter Pinski           : DLPNO-MP2, DLPNO-MP2 Gradient
   Christoph Reimann      : Effective Core Potentials
   Marius Retegan         : Local ZFS, SOC
   Christoph Riplinger    : Optimizer, TS searches, QM/MM, DLPNO-CCSD(T), (RO)-DLPNO pert. Triples
   Tobias Risthaus        : Range-separated hybrids, TD-DFT gradient, RPA, STAB
   Michael Roemelt        : Original ROCIS implementation
   Masaaki Saitow         : Open-shell DLPNO-CCSD energy and density
   Barbara Sandhoefer     : DKH picture change effects
   Avijit Sen             : IP-ROCIS
   Kantharuban Sivalingam : CASSCF convergence, NEVPT2, FIC-MRCI
   Bernardo de Souza      : ESD, SOC TD-DFT
   Georgi Stoychev        : AutoAux, RI-MP2 NMR
   Willem Van den Heuvel  : Paramagnetic NMR
   Boris Wezisla          : Elementary symmetry handling
   Frank Wennmohs         : Technical directorship


 We gratefully acknowledge several colleagues who have allowed us to
 interface, adapt or use parts of their codes:
   Stefan Grimme, W. Hujo, H. Kruse,             : VdW corrections, initial TS optimization,
                  C. Bannwarth                     DFT functionals, gCP, sTDA/sTD-DF
   Ed Valeev, F. Pavosevic, A. Kumar             : LibInt (2-el integral package), F12 methods
   Garnet Chan, S. Sharma, J. Yang, R. Olivares  : DMRG
   Ulf Ekstrom                                   : XCFun DFT Library
   Mihaly Kallay                                 : mrcc  (arbitrary order and MRCC methods)
   Andreas Klamt, Michael Diedenhofen            : otool_cosmo (COSMO solvation model)
   Jiri Pittner, Ondrej Demel                    : Mk-CCSD
   Frank Weinhold                                : gennbo (NPA and NBO analysis)
   Christopher J. Cramer and Donald G. Truhlar   : smd solvation model
   Lars Goerigk                                  : TD-DFT with DH, B97 family of functionals
   V. Asgeirsson, H. Jonsson                     : NEB implementation
   FAccTs GmbH                                   : IRC, NEB, NEB-TS, Multilevel, MM, QM/MM, CI optimization
   S Lehtola, MJT Oliveira, MAL Marques          : LibXC Library


 Your calculation uses the libint2 library for the computation of 2-el integrals
 For citations please refer to: http://libint.valeyev.net

 Your ORCA version has been built with support for libXC version: 4.2.3
 For citations please refer to: https://tddft.org/programs/libxc/

 This ORCA versions uses:
   CBLAS   interface :  Fast vector & matrix operations
   LAPACKE interface :  Fast linear algebra routines
   SCALAPACK package :  Parallel linear algebra routines


----- Orbital basis set information -----
Your calculation utilizes the basis: def2-TZVPP
   F. Weigend and R. Ahlrichs, Phys. Chem. Chem. Phys. 7, 3297 (2005).

================================================================================
                                        WARNINGS
                       Please study these warnings very carefully!
================================================================================


WARNING: Geometry Optimization
  ===> : Switching off AutoStart
         For restart on a previous wavefunction, please use MOREAD

WARNING: Post HF methods need fully converged wavefunctions
  ===> : Setting SCFConvForced true
         You can overwrite this default with %scf ConvForced false 


INFO   : the flag for use of LIBINT has been found!

================================================================================
                                       INPUT FILE
================================================================================
NAME = NH3‡.inp
|  1> ! MP2 def2-TZVPP OptTS Freq IRC NoFrozenCore TightOpt TightSCF Grid4 FinalGrid5 PrintBasis PrintMOs NBO
|  2> 
|  3> %geom
|  4>  ts_mode
|  5>   {D 1 2 3 0}
|  6>  end
|  7>  ts_active_atoms
|  8>   {0 1 2 3}
|  9>  end
| 10>  inhess read
| 11>  inhessname "freq.hess"
| 12> end
| 13> 
| 14> %irc
| 15>  maxiter 1000
| 16>  de_init_displ 0.25
| 17>  TolMAXG 1e-3
| 18>  TolRMSG 2e-4
| 19> end
| 20> 
| 21> %pal
| 22>  nprocs 12
| 23> end
| 24> 
| 25> *xyz 0 1
| 26>   N   -0.00000000037229     -0.00000000000100     -0.00000000681327
| 27>   H   0.99619299212740     -0.00000000000225      0.00000000227116
| 28>   H   -0.49809649587977      0.86272843877316      0.00000000227104
| 29>   H   -0.49809649587530     -0.86272843876994      0.00000000227104
| 30> *
| 31> 
| 32>                          ****END OF INPUT****
================================================================================

                       *****************************
                       * Geometry Optimization Run *
                       *****************************

Geometry optimization settings:
Update method            Update   .... Bofill
Choice of coordinates    CoordSys .... Z-matrix Internals
Initial Hessian          InHess   .... Read

Convergence Tolerances:
Energy Change            TolE     ....  1.0000e-06 Eh
Max. Gradient            TolMAXG  ....  1.0000e-04 Eh/bohr
RMS Gradient             TolRMSG  ....  3.0000e-05 Eh/bohr
Max. Displacement        TolMAXD  ....  1.0000e-03 bohr
RMS Displacement         TolRMSD  ....  6.0000e-04 bohr
Strict Convergence                ....  False
------------------------------------------------------------------------------
                        ORCA OPTIMIZATION COORDINATE SETUP
------------------------------------------------------------------------------

The optimization will be done in new redundant internal coordinates
Making redundant internal coordinates   ...  (new redundants) done
Following TS mode number                ...    internal coordinate number:  7
TS-active-atoms for coordinate setup... 0 1 2 3 
Evaluating the initial hessian          ... (Reading Exact Hessian)...  
InHessName: freq.hess	The file <freq.hess> is opened as a .hess file
done
done
Diagonalizing the Hessian               .... done
Dimension of the hessian                .... 8
Lowest eigenvalues of the non projected Hessian:
 -0.018883952  0.000000000  0.000000000  0.102924689  0.102927577
done
Evaluating the coordinates              ...  done
Calculating the B-matrix                .... done
Calculating the G-matrix                .... done
Diagonalizing the G-matrix              .... done
The first mode is                       ....    2
The number of degrees of freedom        ....    6

    -----------------------------------------------------------------
                    Redundant Internal Coordinates


    -----------------------------------------------------------------
         Definition                    Initial Value    d2E/dq (diagonal element)
    -----------------------------------------------------------------
      1. B(H   1,N   0)                  0.9962         0.524364   
      2. B(H   2,N   0)                  0.9962         0.524361   
      3. B(H   3,N   0)                  0.9962         0.524361   
      4. A(H   1,N   0,H   3)          120.0000         0.069127   
      5. A(H   2,N   0,H   3)          120.0000         0.069129   
      6. A(H   1,N   0,H   2)          120.0000         0.069127   
      7. D(N   0,H   3,H   2,H   1)     -0.0000        -0.005810   
      8. I(H   1,H   3,H   2,N   0)     -0.0000        -0.013074   
    -----------------------------------------------------------------

Number of atoms                         .... 4
Number of degrees of freedom            .... 8

         *************************************************************
         *                GEOMETRY OPTIMIZATION CYCLE   1            *
         *************************************************************
---------------------------------
CARTESIAN COORDINATES (ANGSTROEM)
---------------------------------
  N     -0.000000   -0.000000   -0.000000
  H      0.996193   -0.000000    0.000000
  H     -0.498096    0.862728    0.000000
  H     -0.498096   -0.862728    0.000000

----------------------------
CARTESIAN COORDINATES (A.U.)
----------------------------
  NO LB      ZA    FRAG     MASS         X           Y           Z
   0 N     7.0000    0    14.007   -0.000000   -0.000000   -0.000000
   1 H     1.0000    0     1.008    1.882532   -0.000000    0.000000
   2 H     1.0000    0     1.008   -0.941266    1.630320    0.000000
   3 H     1.0000    0     1.008   -0.941266   -1.630320    0.000000

--------------------------------
INTERNAL COORDINATES (ANGSTROEM)
--------------------------------
 N      0   0   0     0.000000000000     0.00000000     0.00000000
 H      1   0   0     0.996192992500     0.00000000     0.00000000
 H      1   2   0     0.996192992299   119.99999996     0.00000000
 H      1   2   3     0.996192992293   119.99999996   180.00000171

---------------------------
INTERNAL COORDINATES (A.U.)
---------------------------
 N      0   0   0     0.000000000000     0.00000000     0.00000000
 H      1   0   0     1.882531932356     0.00000000     0.00000000
 H      1   2   0     1.882531931977   119.99999996     0.00000000
 H      1   2   3     1.882531931965   119.99999996   180.00000171

---------------------
BASIS SET INFORMATION
---------------------
There are 2 groups of distinct atoms

 Group   1 Type N   : 11s6p2d1f contracted to 5s3p2d1f pattern {62111/411/11/1}
 Group   2 Type H   : 5s2p1d contracted to 3s2p1d pattern {311/11/1}

Atom   0N    basis set group =>   1
Atom   1H    basis set group =>   2
Atom   2H    basis set group =>   2
Atom   3H    basis set group =>   2

-------------------------
BASIS SET IN INPUT FORMAT
-------------------------

 # Basis set for element : H 
 NewGTO H 
 S 3 
   1      34.0613410000      0.0254393072
   2       5.1235746000      0.1900859489
   3       1.1646626000      0.8524411301
 S 1 
   1       0.3272304100      1.0000000000
 S 1 
   1       0.1030724100      1.0000000000
 P 1 
   1       1.4070000000      1.0000000000
 P 1 
   1       0.3880000000      1.0000000000
 D 1 
   1       1.0570000000      1.0000000000
  end;

 # Basis set for element : N 
 NewGTO N 
 S 6 
   1   19730.8006470000      0.0005862639
   2    2957.8958745000      0.0045428821
   3     673.2213359500      0.0235584136
   4     190.6824949400      0.0947091933
   5      62.2954418980      0.2971978492
   6      22.6541611820      0.6691624689
 S 2 
   1       8.9791477428      0.6459668363
   2       3.6863002370      0.3870057440
 S 1 
   1       0.8466007680      1.0000000000
 S 1 
   1       0.3364713377      1.0000000000
 S 1 
   1       0.1364765367      1.0000000000
 P 4 
   1      49.2003805100      0.0114488252
   2      11.3467905370      0.0784223379
   3       3.4273972411      0.3081809474
   4       1.1785525134      0.7202719637
 P 1 
   1       0.4164220497      1.0000000000
 P 1 
   1       0.1426082601      1.0000000000
 D 1 
   1       1.6540000000      1.0000000000
 D 1 
   1       0.4690000000      1.0000000000
 F 1 
   1       1.0930000000      1.0000000000
  end;



           ************************************************************
           *        Program running with 12 parallel MPI-processes    *
           *              working on a common directory               *
           ************************************************************
------------------------------------------------------------------------------
                           ORCA GTO INTEGRAL CALCULATION
------------------------------------------------------------------------------

                         BASIS SET STATISTICS AND STARTUP INFO

 # of primitive gaussian shells          ...   44
 # of primitive gaussian functions       ...   94
 # of contracted shells                  ...   29
 # of contracted basis functions         ...   73
 Highest angular momentum                ...    3
 Maximum contraction depth               ...    6
 Integral package used                   ... LIBINT
 Integral threshhold            Thresh   ...  2.500e-11
 Primitive cut-off              TCut     ...  2.500e-12


------------------------------ INTEGRAL EVALUATION ----------------------------


 * One electron integrals 
 Pre-screening matrix                    ... done
 Shell pair data                         ... done (   0.000 sec)



           ************************************************************
           *        Program running with 12 parallel MPI-processes    *
           *              working on a common directory               *
           ************************************************************
-------------------------------------------------------------------------------
                                 ORCA SCF
-------------------------------------------------------------------------------

------------
SCF SETTINGS
------------
Hamiltonian:
 Ab initio Hamiltonian  Method          .... Hartree-Fock(GTOs)


General Settings:
 Integral files         IntName         .... NH3‡
 Hartree-Fock type      HFTyp           .... RHF
 Total Charge           Charge          ....    0
 Multiplicity           Mult            ....    1
 Number of Electrons    NEL             ....   10
 Basis Dimension        Dim             ....   73
 Nuclear Repulsion      ENuc            ....     12.0752537686 Eh

Convergence Acceleration:
 DIIS                   CNVDIIS         .... on
   Start iteration      DIISMaxIt       ....    12
   Startup error        DIISStart       ....  0.200000
   # of expansion vecs  DIISMaxEq       ....     5
   Bias factor          DIISBfac        ....   1.050
   Max. coefficient     DIISMaxC        ....  10.000
 Newton-Raphson         CNVNR           .... off
 SOSCF                  CNVSOSCF        .... on
   Start iteration      SOSCFMaxIt      ....   150
   Startup grad/error   SOSCFStart      ....  0.003300
 Level Shifting         CNVShift        .... on
   Level shift para.    LevelShift      ....    0.2500
   Turn off err/grad.   ShiftErr        ....    0.0010
 Zerner damping         CNVZerner       .... off
 Static damping         CNVDamp         .... on
   Fraction old density DampFac         ....    0.7000
   Max. Damping (<1)    DampMax         ....    0.9800
   Min. Damping (>=0)   DampMin         ....    0.0000
   Turn off err/grad.   DampErr         ....    0.1000
 Fernandez-Rico         CNVRico         .... off

SCF Procedure:
 Maximum # iterations   MaxIter         ....   125
 SCF integral mode      SCFMode         .... Direct
   Integral package                     .... LIBINT
 Reset frequency        DirectResetFreq ....    20
 Integral Threshold     Thresh          ....  2.500e-11 Eh
 Primitive CutOff       TCut            ....  2.500e-12 Eh

Convergence Tolerance:
 Convergence Check Mode ConvCheckMode   .... Total+1el-Energy
 Convergence forced     ConvForced      .... 1
 Energy Change          TolE            ....  1.000e-08 Eh
 1-El. energy change                    ....  1.000e-05 Eh
 Orbital Gradient       TolG            ....  1.000e-05
 Orbital Rotation angle TolX            ....  1.000e-05
 DIIS Error             TolErr          ....  5.000e-07


Diagonalization of the overlap matrix:
Smallest eigenvalue                        ... 8.210e-04
Time for diagonalization                   ...    0.006 sec
Threshold for overlap eigenvalues          ... 1.000e-08
Number of eigenvalues below threshold      ... 0
Time for construction of square roots      ...    0.007 sec
Total time needed                          ...    0.013 sec

-------------------
DFT GRID GENERATION
-------------------

General Integration Accuracy     IntAcc      ...  4.670
Radial Grid Type                 RadialGrid  ... Gauss-Chebyshev
Angular Grid (max. acc.)         AngularGrid ... Lebedev-302
Angular grid pruning method      GridPruning ... 3 (G Style)
Weight generation scheme         WeightScheme... Becke
Basis function cutoff            BFCut       ...    1.0000e-11
Integration weight cutoff        WCut        ...    1.0000e-14
Grids for H and He will be reduced by one unit

# of grid points (after initial pruning)     ...  16394 (   0.0 sec)
# of grid points (after weights+screening)   ...  16135 (   0.0 sec)
nearest neighbour list constructed           ...    0.0 sec
Grid point re-assignment to atoms done       ...    0.0 sec
Grid point division into batches done        ...    0.1 sec
Reduced shell lists constructed in    0.1 sec

Total number of grid points                  ...    16135
Total number of batches                      ...      254
Average number of points per batch           ...       63
Average number of grid points per atom       ...     4034
Average number of shells per batch           ...    27.22 (93.85%)
Average number of basis functions per batch  ...    69.30 (94.94%)
Average number of large shells per batch     ...    26.43 (97.12%)
Average number of large basis fcns per batch ...    68.00 (98.12%)
Maximum spatial batch extension              ...   2.67,  2.57, 15.64 au
Average spatial batch extension              ...   0.11,  0.12,  0.22 au

Time for grid setup =    0.196 sec

------------------------------
INITIAL GUESS: MODEL POTENTIAL
------------------------------
Loading Hartree-Fock densities                     ... done
Calculating cut-offs                               ... done
Setting up the integral package                    ... done
Initializing the effective Hamiltonian             ... done
Starting the Coulomb interaction                   ... done (   0.0 sec)
Reading the grid                                   ... done
Mapping shells                                     ... done
Starting the XC term evaluation                    ... done (   0.0 sec)
Transforming the Hamiltonian                       ... done (   0.0 sec)
Diagonalizing the Hamiltonian                      ... done (   0.0 sec)
Back transforming the eigenvectors                 ... done (   0.0 sec)
Now organizing SCF variables                       ... done
                      ------------------
                      INITIAL GUESS DONE (   0.4 sec)
                      ------------------
--------------
SCF ITERATIONS
--------------
ITER       Energy         Delta-E        Max-DP      RMS-DP      [F,P]     Damp
               ***  Starting incremental Fock matrix formation  ***
  0    -56.0642433613   0.000000000000 0.05372377  0.00171172  0.3818523 0.7000
  1    -56.1227257246  -0.058482363314 0.03933116  0.00125507  0.2319256 0.7000
                               ***Turning on DIIS***
  2    -56.1543834043  -0.031657679689 0.02247963  0.00072939  0.1416863 0.7000
  3    -56.3597461670  -0.205362762708 0.00866676  0.00032042  0.1075093 0.7000
  4    -56.3222805432   0.037465623815 0.01739304  0.00062891  0.0768108 0.0000
  5    -56.2115944108   0.110686132341 0.00198579  0.00006776  0.0034195 0.0000
                      *** Initiating the SOSCF procedure ***
                           *** Shutting down DIIS ***
                      *** Re-Reading the Fockian *** 
                      *** Removing any level shift *** 
ITER      Energy       Delta-E        Grad      Rot      Max-DP    RMS-DP
  6    -56.21296870  -0.0013742856  0.000709  0.000709  0.000843  0.000039
               *** Restarting incremental Fock matrix formation ***
  7    -56.21328275  -0.0003140556  0.000236  0.000263  0.000450  0.000015
  8    -56.21328320  -0.0000004492  0.000078  0.000158  0.000269  0.000010
  9    -56.21328329  -0.0000000906  0.000029  0.000025  0.000034  0.000001
 10    -56.21328329  -0.0000000032  0.000006  0.000005  0.000008  0.000000
                 **** Energy Check signals convergence ****
              ***Rediagonalizing the Fockian in SOSCF/NRSCF***

               *****************************************************
               *                     SUCCESS                       *
               *           SCF CONVERGED AFTER  11 CYCLES          *
               *****************************************************


----------------
TOTAL SCF ENERGY
----------------

Total Energy       :          -56.21328330 Eh           -1529.64120 eV

Components:
Nuclear Repulsion  :           12.07525377 Eh             328.58436 eV
Electronic Energy  :          -68.28853706 Eh           -1858.22556 eV
One Electron Energy:          -99.91771345 Eh           -2718.89921 eV
Two Electron Energy:           31.62917639 Eh             860.67365 eV

Virial components:
Potential Energy   :         -112.36268343 Eh           -3057.54406 eV
Kinetic Energy     :           56.14940014 Eh            1527.90285 eV
Virial Ratio       :            2.00113774


---------------
SCF CONVERGENCE
---------------

  Last Energy change         ...   -4.1162e-10  Tolerance :   1.0000e-08
  Last MAX-Density change    ...    2.5563e-06  Tolerance :   1.0000e-07
  Last RMS-Density change    ...    9.6004e-08  Tolerance :   5.0000e-09
  Last Orbital Gradient      ...    1.2632e-06  Tolerance :   1.0000e-05
  Last Orbital Rotation      ...    1.5268e-06  Tolerance :   1.0000e-05

             **** THE GBW FILE WAS UPDATED (NH3‡.gbw) ****
             **** DENSITY FILE WAS UPDATED (NH3‡.scfp) ****
             **** ENERGY FILE WAS UPDATED (NH3‡.en.tmp) ****
             **** THE GBW FILE WAS UPDATED (NH3‡.gbw) ****
             **** DENSITY FILE WAS UPDATED (NH3‡.scfp) ****
----------------
ORBITAL ENERGIES
----------------

  NO   OCC          E(Eh)            E(eV) 
   0   2.0000     -15.519371      -422.3035 
   1   2.0000      -1.122977       -30.5577 
   2   2.0000      -0.649039       -17.6612 
   3   2.0000      -0.649039       -17.6612 
   4   2.0000      -0.389252       -10.5921 
   5   0.0000       0.134615         3.6630 
   6   0.0000       0.211106         5.7445 
   7   0.0000       0.211106         5.7445 
   8   0.0000       0.447886        12.1876 
   9   0.0000       0.447886        12.1876 
  10   0.0000       0.510703        13.8969 
  11   0.0000       0.563244        15.3267 
  12   0.0000       0.612134        16.6570 
  13   0.0000       0.690122        18.7792 
  14   0.0000       0.690122        18.7792 
  15   0.0000       0.827799        22.5255 
  16   0.0000       0.827799        22.5255 
  17   0.0000       1.090193        29.6657 
  18   0.0000       1.177007        32.0280 
  19   0.0000       1.177007        32.0280 
  20   0.0000       1.220640        33.2153 
  21   0.0000       1.261152        34.3177 
  22   0.0000       1.558211        42.4011 
  23   0.0000       1.558211        42.4011 
  24   0.0000       1.635282        44.4983 
  25   0.0000       1.635282        44.4983 
  26   0.0000       1.650335        44.9079 
  27   0.0000       1.650335        44.9079 
  28   0.0000       1.804277        49.0969 
  29   0.0000       2.250386        61.2361 
  30   0.0000       2.481196        67.5168 
  31   0.0000       2.702018        73.5256 
  32   0.0000       2.702018        73.5256 
  33   0.0000       2.834843        77.1400 
  34   0.0000       3.255255        88.5800 
  35   0.0000       3.255255        88.5800 
  36   0.0000       3.333147        90.6995 
  37   0.0000       3.333147        90.6995 
  38   0.0000       3.547607        96.5353 
  39   0.0000       3.589349        97.6711 
  40   0.0000       3.598402        97.9175 
  41   0.0000       3.598402        97.9175 
  42   0.0000       3.745409       101.9178 
  43   0.0000       3.881868       105.6310 
  44   0.0000       3.948799       107.4523 
  45   0.0000       3.948799       107.4523 
  46   0.0000       4.103070       111.6502 
  47   0.0000       4.103070       111.6502 
  48   0.0000       4.310010       117.2813 
  49   0.0000       4.311939       117.3338 
  50   0.0000       4.378676       119.1498 
  51   0.0000       4.440059       120.8201 
  52   0.0000       4.440059       120.8201 
  53   0.0000       4.520649       123.0131 
  54   0.0000       4.520649       123.0131 
  55   0.0000       4.626708       125.8991 
  56   0.0000       4.626708       125.8991 
  57   0.0000       4.841338       131.7395 
  58   0.0000       5.149150       140.1155 
  59   0.0000       5.149150       140.1155 
  60   0.0000       5.588703       152.0763 
  61   0.0000       5.588703       152.0763 
  62   0.0000       5.884818       160.1340 
  63   0.0000       6.072357       165.2372 
  64   0.0000       6.077766       165.3844 
  65   0.0000       6.077766       165.3844 
  66   0.0000       6.192606       168.5094 
  67   0.0000       6.192606       168.5094 
  68   0.0000       6.718703       182.8252 
  69   0.0000       6.718703       182.8252 
  70   0.0000       7.209585       196.1828 
  71   0.0000       7.271416       197.8653 
  72   0.0000      34.064475       926.9415 
------------------
MOLECULAR ORBITALS
------------------
                      0         1         2         3         4         5   
                 -15.51937  -1.12298  -0.64904  -0.64904  -0.38925   0.13461
                   2.00000   2.00000   2.00000   2.00000   2.00000   0.00000
                  --------  --------  --------  --------  --------  --------
  0N   1s        -0.448890 -0.093635  0.000000  0.000000  0.000000  0.035585
  0N   2s        -0.629999 -0.218121  0.000000  0.000000  0.000000  0.089482
  0N   3s        -0.021387  0.317118 -0.000000 -0.000000 -0.000000 -0.190726
  0N   4s         0.010819  0.399822 -0.000000  0.000000 -0.000000 -0.080676
  0N   5s        -0.003479  0.127657  0.000000  0.000000 -0.000000 -2.745018
  0N   1pz       -0.000000  0.000000  0.000000  0.000000  0.418547 -0.000000
  0N   1px       -0.000000 -0.000000 -0.000410  0.333101  0.000000 -0.000000
  0N   1py       -0.000000  0.000000  0.333101  0.000410  0.000000 -0.000000
  0N   2pz        0.000000  0.000000  0.000000  0.000000  0.375651 -0.000000
  0N   2px       -0.000000  0.000000 -0.000324  0.263541  0.000000 -0.000000
  0N   2py        0.000000 -0.000000  0.263541  0.000324  0.000000 -0.000000
  0N   3pz       -0.000000  0.000000 -0.000000  0.000000  0.358058 -0.000000
  0N   3px        0.000000  0.000000 -0.000136  0.110130  0.000000  0.000000
  0N   3py        0.000000  0.000000  0.110130  0.000136  0.000000 -0.000000
  0N   1dz2       0.000249 -0.006880  0.000000  0.000000  0.000000 -0.006570
  0N   1dxz      -0.000000  0.000000 -0.000000  0.000000  0.000000  0.000000
  0N   1dyz       0.000000  0.000000  0.000000  0.000000 -0.000000 -0.000000
  0N   1dx2y2     0.000000  0.000000 -0.000014  0.011746 -0.000000 -0.000000
  0N   1dxy       0.000000  0.000000 -0.011746 -0.000014 -0.000000  0.000000
  0N   2dz2      -0.000498 -0.010785 -0.000000 -0.000000  0.000000  0.052527
  0N   2dxz       0.000000  0.000000 -0.000000  0.000000  0.000000 -0.000000
  0N   2dyz       0.000000  0.000000  0.000000  0.000000 -0.000000 -0.000000
  0N   2dx2y2    -0.000000 -0.000000 -0.000015  0.012515  0.000000 -0.000000
  0N   2dxy      -0.000000  0.000000 -0.012515 -0.000015  0.000000 -0.000000
  0N   1f0        0.000000 -0.000000  0.000000 -0.000000 -0.005562  0.000000
  0N   1f+1      -0.000000  0.000000  0.000005 -0.003709 -0.000000  0.000000
  0N   1f-1      -0.000000 -0.000000 -0.003709 -0.000005 -0.000000  0.000000
  0N   1f+2       0.000000  0.000000 -0.000000  0.000000  0.000000  0.000000
  0N   1f-2      -0.000000 -0.000000 -0.000000 -0.000000  0.000000 -0.000000
  0N   1f+3       0.000473 -0.002713 -0.000000  0.000000 -0.000000 -0.002163
  0N   1f-3      -0.000000  0.000000 -0.000000 -0.000000  0.000000 -0.000000
  1H   1s         0.000030  0.087855 -0.000210  0.170672  0.000000  0.016416
  1H   2s        -0.001462  0.082040 -0.000305  0.247627  0.000000  0.135052
  1H   3s         0.000565  0.005977 -0.000091  0.074182  0.000000  1.188115
  1H   1pz       -0.000000 -0.000000  0.000000 -0.000000  0.010782 -0.000000
  1H   1px       -0.000294 -0.012243  0.000022 -0.017988 -0.000000  0.017630
  1H   1py        0.000000  0.000000  0.005772  0.000007  0.000000  0.000000
  1H   2pz        0.000000  0.000000  0.000000 -0.000000  0.026231 -0.000000
  1H   2px        0.000728 -0.007844  0.000026 -0.020918  0.000000 -0.099334
  1H   2py        0.000000 -0.000000  0.012006  0.000015 -0.000000  0.000000
  1H   1dz2       0.000000 -0.000948  0.000004 -0.003010 -0.000000 -0.003099
  1H   1dxz       0.000000  0.000000 -0.000000  0.000000 -0.005117  0.000000
  1H   1dyz       0.000000 -0.000000 -0.000000 -0.000000 -0.000000 -0.000000
  1H   1dx2y2     0.000120  0.002422 -0.000005  0.003929  0.000000  0.000993
  1H   1dxy      -0.000000  0.000000 -0.002389 -0.000003  0.000000 -0.000000
  2H   1s         0.000030  0.087855  0.147912 -0.085154  0.000000  0.016416
  2H   2s        -0.001462  0.082040  0.214604 -0.123550  0.000000  0.135052
  2H   3s         0.000565  0.005977  0.064289 -0.037012  0.000000  1.188115
  2H   1pz       -0.000000 -0.000000 -0.000000  0.000000  0.010782 -0.000000
  2H   1px        0.000147  0.006121  0.010288 -0.000156  0.000000 -0.008815
  2H   1py       -0.000255 -0.010602 -0.012061  0.010273 -0.000000  0.015268
  2H   2pz        0.000000  0.000000 -0.000000  0.000000  0.026231 -0.000000
  2H   2px       -0.000364  0.003922  0.014252  0.003792 -0.000000  0.049667
  2H   2py        0.000631 -0.006793 -0.012705  0.014241  0.000000 -0.086026
  2H   1dz2       0.000000 -0.000948 -0.002609  0.001502 -0.000000 -0.003099
  2H   1dxz      -0.000000 -0.000000 -0.000000  0.000000  0.002558 -0.000000
  2H   1dyz       0.000000  0.000000  0.000000 -0.000000 -0.004431  0.000000
  2H   1dx2y2    -0.000060 -0.001211 -0.000670  0.002773 -0.000000 -0.000497
  2H   1dxy      -0.000104 -0.002097 -0.003545  0.000662 -0.000000 -0.000860
  3H   1s         0.000030  0.087855 -0.147702 -0.085518  0.000000  0.016416
  3H   2s        -0.001462  0.082040 -0.214299 -0.124078  0.000000  0.135052
  3H   3s         0.000565  0.005977 -0.064198 -0.037170  0.000000  1.188115
  3H   1pz       -0.000000 -0.000000  0.000000  0.000000  0.010782 -0.000000
  3H   1px        0.000147  0.006121 -0.010288 -0.000181  0.000000 -0.008815
  3H   1py        0.000255  0.010602 -0.012035 -0.010303  0.000000 -0.015268
  3H   2pz        0.000000  0.000000  0.000000  0.000000  0.026231 -0.000000
  3H   2px       -0.000364  0.003922 -0.014261  0.003757 -0.000000  0.049667
  3H   2py       -0.000631  0.006793 -0.012670 -0.014272 -0.000000  0.086026
  3H   1dz2       0.000000 -0.000948  0.002605  0.001508 -0.000000 -0.003099
  3H   1dxz      -0.000000 -0.000000  0.000000  0.000000  0.002558 -0.000000
  3H   1dyz      -0.000000 -0.000000  0.000000  0.000000  0.004431 -0.000000
  3H   1dx2y2    -0.000060 -0.001211  0.000663  0.002775 -0.000000 -0.000497
  3H   1dxy       0.000104  0.002097 -0.003543 -0.000671  0.000000  0.000860
                      6         7         8         9        10        11   
                   0.21111   0.21111   0.44789   0.44789   0.51070   0.56324
                   0.00000   0.00000   0.00000   0.00000   0.00000   0.00000
                  --------  --------  --------  --------  --------  --------
  0N   1s         0.000000  0.000000  0.000000  0.000000 -0.000000  0.009065
  0N   2s         0.000000  0.000000  0.000000  0.000000 -0.000000  0.030292
  0N   3s        -0.000000  0.000000  0.000000 -0.000000 -0.000000  0.043911
  0N   4s        -0.000000 -0.000000 -0.000000  0.000000  0.000000 -0.683891
  0N   5s        -0.000000 -0.000000 -0.000000 -0.000000  0.000000 -4.041497
  0N   1pz       -0.000000  0.000000 -0.000000 -0.000000 -0.263709 -0.000000
  0N   1px       -0.000719 -0.167433 -0.033530 -0.000116  0.000000  0.000000
  0N   1py        0.167433 -0.000719 -0.000116  0.033530 -0.000000 -0.000000
  0N   2pz       -0.000000  0.000000  0.000000  0.000000 -0.780091 -0.000000
  0N   2px       -0.000979 -0.227901  0.664315  0.002296  0.000000 -0.000000
  0N   2py        0.227901 -0.000979  0.002296 -0.664315 -0.000000  0.000000
  0N   3pz       -0.000000  0.000000  0.000000 -0.000000  1.386635  0.000000
  0N   3px       -0.006114 -1.422760  2.399718  0.008294  0.000000 -0.000000
  0N   3py        1.422760 -0.006114  0.008294 -2.399718  0.000000  0.000000
  0N   1dz2      -0.000000 -0.000000 -0.000000 -0.000000  0.000000 -0.023707
  0N   1dxz       0.000000  0.000000 -0.000000 -0.000000 -0.000000  0.000000
  0N   1dyz      -0.000000  0.000000 -0.000000  0.000000  0.000000  0.000000
  0N   1dx2y2     0.000005  0.001097 -0.035172 -0.000122 -0.000000  0.000000
  0N   1dxy       0.001097 -0.000005  0.000122 -0.035172 -0.000000 -0.000000
  0N   2dz2       0.000000  0.000000  0.000000 -0.000000 -0.000000  0.218413
  0N   2dxz      -0.000000 -0.000000  0.000000  0.000000  0.000000 -0.000000
  0N   2dyz       0.000000 -0.000000  0.000000 -0.000000 -0.000000 -0.000000
  0N   2dx2y2     0.000004  0.000925  0.436409  0.001508  0.000000 -0.000000
  0N   2dxy       0.000925 -0.000004 -0.001508  0.436409  0.000000 -0.000000
  0N   1f0        0.000000 -0.000000 -0.000000 -0.000000  0.004870  0.000000
  0N   1f+1       0.000010  0.002344 -0.034016 -0.000118 -0.000000  0.000000
  0N   1f-1      -0.002344  0.000010 -0.000118  0.034016  0.000000 -0.000000
  0N   1f+2       0.000000  0.000000  0.000000  0.000000  0.000000 -0.000000
  0N   1f-2       0.000000 -0.000000 -0.000000  0.000000 -0.000000  0.000000
  0N   1f+3      -0.000000  0.000000  0.000000 -0.000000 -0.000000  0.055382
  0N   1f-3      -0.000000  0.000000  0.000000 -0.000000  0.000000  0.000000
  1H   1s        -0.000013 -0.002959 -0.072370 -0.000250 -0.000000  0.053368
  1H   2s         0.000366  0.085268 -2.133957 -0.007376 -0.000000  1.654580
  1H   3s         0.011220  2.611103 -0.851241 -0.002942 -0.000000  0.393985
  1H   1pz        0.000000  0.000000  0.000000  0.000000  0.014934 -0.000000
  1H   1px        0.000126  0.029276  0.060596  0.000209  0.000000 -0.035874
  1H   1py        0.015409 -0.000066  0.000081 -0.023398  0.000000 -0.000000
  1H   2pz       -0.000000 -0.000000  0.000000  0.000000 -0.104921 -0.000000
  1H   2px       -0.000697 -0.162318  0.481982  0.001666  0.000000 -0.274870
  1H   2py       -0.096760  0.000416  0.000347 -0.100527 -0.000000  0.000000
  1H   1dz2      -0.000020 -0.004708  0.012821  0.000044  0.000000 -0.030943
  1H   1dxz      -0.000000 -0.000000 -0.000000 -0.000000 -0.006214  0.000000
  1H   1dyz      -0.000000  0.000000 -0.000000  0.000000  0.000000  0.000000
  1H   1dx2y2     0.000024  0.005651 -0.046848 -0.000162 -0.000000  0.024141
  1H   1dxy       0.005187 -0.000022 -0.000094  0.027286  0.000000 -0.000000
  2H   1s         0.002569  0.001469  0.035968  0.062799 -0.000000  0.053368
  2H   2s        -0.074027 -0.042317  1.060591  1.851749 -0.000000  1.654580
  2H   3s        -2.266891 -1.295835  0.423072  0.738667 -0.000000  0.393985
  2H   1pz       -0.000000 -0.000000 -0.000000 -0.000000  0.014934 -0.000000
  2H   1px        0.019331 -0.004321  0.032642  0.016220 -0.000000  0.017937
  2H   1py       -0.018188 -0.019271 -0.015930 -0.051352  0.000000 -0.031068
  2H   2pz        0.000000  0.000000 -0.000000 -0.000000 -0.104921 -0.000000
  2H   2px       -0.112047  0.032473  0.195320  0.165852 -0.000000  0.137435
  2H   2py        0.098031  0.111765 -0.163838 -0.387189  0.000000 -0.238044
  2H   1dz2       0.004087  0.002336 -0.006372 -0.011125  0.000000 -0.030943
  2H   1dxz      -0.000000 -0.000000 -0.000000  0.000000  0.003107 -0.000000
  2H   1dyz       0.000000  0.000000 -0.000000  0.000000 -0.005381  0.000000
  2H   1dx2y2     0.000224  0.005302  0.008864 -0.032071  0.000000 -0.012071
  2H   1dxy       0.005536  0.000177 -0.032003 -0.028425  0.000000 -0.020907
  3H   1s        -0.002556  0.001491  0.036402 -0.062549 -0.000000  0.053368
  3H   2s         0.073661 -0.042951  1.073366 -1.844373 -0.000000  1.654580
  3H   3s         2.255671 -1.315268  0.428168 -0.735725 -0.000000  0.393985
  3H   1pz        0.000000 -0.000000 -0.000000  0.000000  0.014934 -0.000000
  3H   1px       -0.019367 -0.004155  0.032753 -0.015994 -0.000000  0.017937
  3H   1py       -0.018022  0.019427  0.016284 -0.051241 -0.000000  0.031068
  3H   2pz       -0.000000  0.000000 -0.000000  0.000000 -0.104921 -0.000000
  3H   2px        0.112322  0.031508  0.196462 -0.164498 -0.000000  0.137435
  3H   2py        0.097066 -0.112603  0.166511 -0.386047 -0.000000  0.238044
  3H   1dz2      -0.004067  0.002371 -0.006449  0.011081  0.000000 -0.030943
  3H   1dxz       0.000000 -0.000000 -0.000000 -0.000000  0.003107 -0.000000
  3H   1dyz       0.000000 -0.000000  0.000000  0.000000  0.005381 -0.000000
  3H   1dx2y2    -0.000178  0.005304  0.008642  0.032131  0.000000 -0.012071
  3H   1dxy       0.005534 -0.000225  0.032199 -0.028203 -0.000000  0.020907
                     12        13        14        15        16        17   
                   0.61213   0.69012   0.69012   0.82780   0.82780   1.09019
                   0.00000   0.00000   0.00000   0.00000   0.00000   0.00000
                  --------  --------  --------  --------  --------  --------
  0N   1s        -0.064697 -0.000000 -0.000000  0.000000  0.000000  0.000000
  0N   2s        -0.142547 -0.000000 -0.000000  0.000000  0.000000  0.000000
  0N   3s         0.162663  0.000000  0.000000  0.000000  0.000000  0.000000
  0N   4s         0.317549 -0.000000 -0.000000 -0.000000 -0.000000 -0.000000
  0N   5s        -6.055847 -0.000000 -0.000000  0.000000  0.000000  0.000000
  0N   1pz        0.000000  0.000000 -0.000000  0.000000 -0.000000 -0.000000
  0N   1px       -0.000000  0.072012  0.337806  0.000000 -0.000000  0.000000
  0N   1py        0.000000 -0.337806  0.072012 -0.000000 -0.000000  0.000000
  0N   2pz       -0.000000  0.000000 -0.000000  0.000000 -0.000000  0.000000
  0N   2px       -0.000000 -0.040066 -0.187949  0.000000 -0.000000 -0.000000
  0N   2py        0.000000  0.187949 -0.040066 -0.000000 -0.000000 -0.000000
  0N   3pz       -0.000000 -0.000000 -0.000000 -0.000000 -0.000000 -0.000000
  0N   3px        0.000000 -0.547821 -2.569805  0.000000 -0.000000  0.000000
  0N   3py       -0.000000  2.569805 -0.547821 -0.000000 -0.000000  0.000000
  0N   1dz2      -0.010730  0.000000  0.000000  0.000000  0.000000 -0.000000
  0N   1dxz       0.000000  0.000000  0.000000 -0.000111  0.028339 -0.000000
  0N   1dyz       0.000000 -0.000000  0.000000  0.028339  0.000111 -0.000000
  0N   1dx2y2    -0.000000 -0.002833 -0.013291  0.000000 -0.000000  0.000000
  0N   1dxy      -0.000000 -0.013291  0.002833  0.000000  0.000000 -0.000000
  0N   2dz2       0.355082  0.000000  0.000000  0.000000  0.000000 -0.000000
  0N   2dxz      -0.000000 -0.000000 -0.000000  0.000039 -0.010080 -0.000000
  0N   2dyz       0.000000  0.000000 -0.000000 -0.010080 -0.000039 -0.000000
  0N   2dx2y2     0.000000 -0.056168 -0.263483 -0.000000  0.000000 -0.000000
  0N   2dxy       0.000000 -0.263483  0.056168 -0.000000 -0.000000  0.000000
  0N   1f0        0.000000  0.000000  0.000000 -0.000000  0.000000 -0.000000
  0N   1f+1       0.000000  0.002986  0.014008  0.000000 -0.000000  0.000000
  0N   1f-1       0.000000 -0.014008  0.002986 -0.000000 -0.000000  0.000000
  0N   1f+2      -0.000000 -0.000000 -0.000000  0.000117 -0.029788 -0.000000
  0N   1f-2       0.000000 -0.000000  0.000000  0.029788  0.000117 -0.000000
  0N   1f+3       0.024221  0.000000  0.000000  0.000000  0.000000 -0.000000
  0N   1f-3       0.000000 -0.000000  0.000000  0.000000  0.000000  0.029455
  1H   1s        -0.076541 -0.018712 -0.087778  0.000000 -0.000000  0.000000
  1H   2s         0.683005  0.125286  0.587711 -0.000000  0.000000  0.000000
  1H   3s         1.483637  0.525362  2.464451  0.000000 -0.000000 -0.000000
  1H   1pz       -0.000000 -0.000000 -0.000000  0.000254 -0.064974  0.000000
  1H   1px        0.005272  0.001671  0.007838 -0.000000  0.000000  0.000000
  1H   1py        0.000000  0.028197 -0.006011 -0.000000 -0.000000 -0.054751
  1H   2pz       -0.000000 -0.000000 -0.000000 -0.003606  0.920815  0.000000
  1H   2px       -0.672529 -0.186054 -0.872770  0.000000 -0.000000 -0.000000
  1H   2py        0.000000 -0.375684  0.080087  0.000000  0.000000  0.791390
  1H   1dz2      -0.026095 -0.004498 -0.021099  0.000000 -0.000000  0.000000
  1H   1dxz       0.000000 -0.000000 -0.000000  0.000114 -0.029114 -0.000000
  1H   1dyz       0.000000 -0.000000  0.000000  0.017408  0.000068 -0.000000
  1H   1dx2y2     0.023806  0.007820  0.036684 -0.000000  0.000000  0.000000
  1H   1dxy       0.000000  0.016467 -0.003510 -0.000000 -0.000000 -0.003889
  2H   1s        -0.076541  0.085374  0.027684 -0.000000  0.000000  0.000000
  2H   2s         0.683005 -0.571615 -0.185354  0.000000 -0.000000  0.000000
  2H   3s         1.483637 -2.396959 -0.777248 -0.000000  0.000000 -0.000000
  2H   1pz       -0.000000  0.000000  0.000000 -0.056397  0.032267  0.000000
  2H   1px       -0.002636  0.011513 -0.022515 -0.000000 -0.000000  0.047416
  2H   1py        0.004566 -0.002156 -0.015853 -0.000000 -0.000000  0.027376
  2H   2pz       -0.000000  0.000000  0.000000  0.799252 -0.457284 -0.000000
  2H   2px        0.336264 -0.527045  0.178813  0.000000  0.000000 -0.685364
  2H   2py       -0.582427  0.675899  0.421078  0.000000  0.000000 -0.395695
  2H   1dz2      -0.026095  0.020521  0.006654 -0.000000  0.000000 -0.000000
  2H   1dxz      -0.000000 -0.000000  0.000000  0.020122  0.005857  0.000000
  2H   1dyz       0.000000  0.000000  0.000000 -0.017562  0.020076  0.000000
  2H   1dx2y2    -0.011903  0.013342  0.019655  0.000000  0.000000 -0.003368
  2H   1dxy      -0.020616  0.033496  0.002012 -0.000000 -0.000000  0.001944
  3H   1s        -0.076541 -0.066662  0.060094  0.000000  0.000000 -0.000000
  3H   2s         0.683005  0.446329 -0.402356 -0.000000 -0.000000 -0.000000
  3H   3s         1.483637  1.871596 -1.687203  0.000000  0.000000  0.000000
  3H   1pz       -0.000000 -0.000000  0.000000  0.056142  0.032708 -0.000000
  3H   1px       -0.002636 -0.019694 -0.015862  0.000000 -0.000000 -0.047416
  3H   1py       -0.004566  0.004497  0.015354 -0.000000  0.000000  0.027376
  3H   2pz       -0.000000 -0.000000  0.000000 -0.795646 -0.463530  0.000000
  3H   2px        0.336264  0.554148 -0.051672 -0.000000  0.000000  0.685364
  3H   2py        0.582427  0.445414 -0.660115  0.000000 -0.000000 -0.395695
  3H   1dz2      -0.026095 -0.016023  0.014445  0.000000  0.000000  0.000000
  3H   1dxz      -0.000000  0.000000  0.000000 -0.020167  0.005699 -0.000000
  3H   1dyz      -0.000000 -0.000000 -0.000000 -0.017404 -0.020213  0.000000
  3H   1dx2y2    -0.011903 -0.004167  0.023387 -0.000000  0.000000  0.003368
  3H   1dxy       0.020616  0.029764 -0.015497 -0.000000  0.000000  0.001944
                     18        19        20        21        22        23   
                   1.17701   1.17701   1.22064   1.26115   1.55821   1.55821
                   0.00000   0.00000   0.00000   0.00000   0.00000   0.00000
                  --------  --------  --------  --------  --------  --------
  0N   1s        -0.000000 -0.000000 -0.000000  0.031139 -0.000000 -0.000000
  0N   2s        -0.000000 -0.000000 -0.000000  0.066709 -0.000000 -0.000000
  0N   3s        -0.000000 -0.000000 -0.000000  1.007247  0.000000  0.000000
  0N   4s         0.000000  0.000000  0.000001-10.225259 -0.000000  0.000000
  0N   5s         0.000000  0.000000  0.000000 -1.909350 -0.000000 -0.000000
  0N   1pz       -0.000000  0.000000 -0.154275 -0.000000 -0.000000 -0.000000
  0N   1px        0.000148  0.102394  0.000000  0.000000 -0.001675 -0.328024
  0N   1py       -0.102394  0.000148  0.000000 -0.000000  0.328024 -0.001675
  0N   2pz       -0.000000 -0.000000 -0.646823 -0.000000 -0.000000 -0.000000
  0N   2px       -0.000840 -0.579643  0.000000 -0.000000 -0.026549 -5.198060
  0N   2py        0.579643 -0.000840 -0.000000  0.000000  5.198060 -0.026549
  0N   3pz       -0.000000  0.000000 -0.952607 -0.000000  0.000000 -0.000000
  0N   3px        0.003158  2.178152  0.000000  0.000000 -0.015095 -2.955467
  0N   3py       -2.178152  0.003158  0.000000 -0.000000  2.955467 -0.015095
  0N   1dz2      -0.000000 -0.000000 -0.000000  0.026333  0.000000  0.000000
  0N   1dxz       0.000000  0.000000 -0.000000 -0.000000 -0.000000 -0.000000
  0N   1dyz      -0.000000  0.000000 -0.000000 -0.000000  0.000000 -0.000000
  0N   1dx2y2     0.000030  0.020739  0.000000  0.000000 -0.000088 -0.017187
  0N   1dxy       0.020739 -0.000030 -0.000000 -0.000000 -0.017187  0.000088
  0N   2dz2      -0.000000 -0.000000 -0.000000  0.588444  0.000000  0.000000
  0N   2dxz      -0.000000 -0.000000  0.000000 -0.000000  0.000000  0.000000
  0N   2dyz       0.000000 -0.000000 -0.000000  0.000000 -0.000000  0.000000
  0N   2dx2y2    -0.000417 -0.287718  0.000000  0.000000 -0.006000 -1.174688
  0N   2dxy      -0.287718  0.000417  0.000000 -0.000000 -1.174688  0.006000
  0N   1f0        0.000000 -0.000000  0.035357  0.000000 -0.000000  0.000000
  0N   1f+1      -0.000001 -0.000870 -0.000000  0.000000  0.000487  0.095404
  0N   1f-1       0.000870 -0.000001  0.000000  0.000000 -0.095404  0.000487
  0N   1f+2      -0.000000 -0.000000  0.000000 -0.000000  0.000000  0.000000
  0N   1f-2      -0.000000  0.000000 -0.000000 -0.000000  0.000000 -0.000000
  0N   1f+3      -0.000000 -0.000000 -0.000000  0.148993  0.000000  0.000000
  0N   1f-3       0.000000 -0.000000 -0.000000 -0.000000  0.000000 -0.000000
  1H   1s         0.000063  0.043567  0.000000 -0.019037  0.000287  0.056249
  1H   2s        -0.000406 -0.280059 -0.000000  3.563399  0.031187  6.106008
  1H   3s        -0.000900 -0.620893 -0.000000  0.386726  0.009280  1.816817
  1H   1pz       -0.000000 -0.000000 -0.069179 -0.000000  0.000000  0.000000
  1H   1px        0.000022  0.014979  0.000000 -0.019623 -0.000103 -0.020128
  1H   1py       -0.076285  0.000111  0.000000 -0.000000  0.064417 -0.000329
  1H   2pz        0.000000  0.000000  1.005532  0.000000 -0.000000 -0.000000
  1H   2px       -0.001377 -0.949645  0.000000 -2.484214 -0.019390 -3.796419
  1H   2py        1.239497 -0.001797 -0.000000  0.000000 -0.864109  0.004413
  1H   1dz2       0.000002  0.001110  0.000000 -0.123539 -0.000537 -0.105089
  1H   1dxz      -0.000000 -0.000000 -0.022164  0.000000  0.000000  0.000000
  1H   1dyz      -0.000000  0.000000 -0.000000  0.000000 -0.000000  0.000000
  1H   1dx2y2     0.000076  0.052573 -0.000000  0.128019  0.001039  0.203484
  1H   1dxy      -0.038676  0.000056  0.000000  0.000000  0.017838 -0.000091
  2H   1s        -0.037762 -0.021729  0.000000 -0.019037 -0.048856 -0.027875
  2H   2s         0.242741  0.139678 -0.000000  3.563399 -5.303552 -3.025996
  2H   3s         0.538159  0.309667 -0.000000  0.386726 -1.578050 -0.900372
  2H   1pz        0.000000  0.000000 -0.069179 -0.000000 -0.000000 -0.000000
  2H   1px       -0.026458  0.060997 -0.000000  0.009811  0.018905 -0.053443
  2H   1py       -0.030267  0.026590  0.000000 -0.016994  0.031102 -0.019337
  2H   2pz       -0.000000 -0.000000  1.005532  0.000000  0.000000  0.000000
  2H   2px        0.123817 -1.167216 -0.000000  1.242107 -2.019605 -0.290715
  2H   2py        1.021926 -0.126991  0.000000 -2.151392  2.641594  2.004628
  2H   1dz2      -0.000962 -0.000553  0.000000 -0.123539  0.091278  0.052080
  2H   1dxz      -0.000000  0.000000  0.011082 -0.000000  0.000000  0.000000
  2H   1dyz      -0.000000  0.000000 -0.019195  0.000000 -0.000000 -0.000000
  2H   1dx2y2     0.039489 -0.015921  0.000000 -0.064009  0.080715  0.063839
  2H   1dxy       0.029818  0.039469  0.000000 -0.110868  0.157483  0.079585
  3H   1s         0.037698 -0.021838  0.000000 -0.019037  0.048569 -0.028373
  3H   2s        -0.242335  0.140381 -0.000000  3.563399  5.272365 -3.080013
  3H   3s        -0.537259  0.311226 -0.000000  0.386726  1.568770 -0.916445
  3H   1pz       -0.000000  0.000000 -0.069179 -0.000000  0.000000 -0.000000
  3H   1px        0.026634  0.060920 -0.000000  0.009811 -0.019450 -0.053247
  3H   1py       -0.030344 -0.026502 -0.000000  0.016994  0.031298  0.019018
  3H   2pz        0.000000 -0.000000  1.005532  0.000000 -0.000000  0.000000
  3H   2px       -0.127201 -1.166852 -0.000000  1.242107  2.016530 -0.311330
  3H   2py        1.022290  0.124028 -0.000000  2.151392  2.620979 -2.031507
  3H   1dz2       0.000960 -0.000556  0.000000 -0.123539 -0.090742  0.053010
  3H   1dxz       0.000000  0.000000  0.011082 -0.000000 -0.000000  0.000000
  3H   1dyz      -0.000000 -0.000000  0.019195 -0.000000 -0.000000  0.000000
  3H   1dx2y2    -0.039535 -0.015807  0.000000 -0.064009 -0.080059  0.064660
  3H   1dxy       0.029703 -0.039555 -0.000000  0.110868  0.156662 -0.081189
                     24        25        26        27        28        29   
                   1.63528   1.63528   1.65034   1.65034   1.80428   2.25039
                   0.00000   0.00000   0.00000   0.00000   0.00000   0.00000
                  --------  --------  --------  --------  --------  --------
  0N   1s        -0.000000 -0.000000 -0.000000 -0.000000  0.049475  0.057791
  0N   2s        -0.000000 -0.000000  0.000000 -0.000000  0.138060  0.173276
  0N   3s         0.000000  0.000000 -0.000000 -0.000000  0.745517 -2.052382
  0N   4s        -0.000000 -0.000000  0.000000  0.000000-10.524495  8.796997
  0N   5s        -0.000000 -0.000000 -0.000000  0.000000 -6.336202  0.468082
  0N   1pz        0.000000  0.000000 -0.000000  0.000000 -0.000000  0.000000
  0N   1px       -0.005531 -0.000065 -0.000000  0.000000 -0.000000 -0.000000
  0N   1py       -0.000065  0.005531 -0.000000 -0.000000  0.000000  0.000000
  0N   2pz        0.000000  0.000000  0.000000  0.000000 -0.000000  0.000000
  0N   2px        2.414436  0.028556  0.000000 -0.000000 -0.000000  0.000000
  0N   2py        0.028556 -2.414436  0.000000  0.000000  0.000000 -0.000000
  0N   3pz        0.000000  0.000000 -0.000000  0.000000 -0.000000  0.000000
  0N   3px        0.490907  0.005806 -0.000000  0.000000 -0.000000  0.000000
  0N   3py        0.005806 -0.490907 -0.000000 -0.000000  0.000000  0.000000
  0N   1dz2       0.000000  0.000000  0.000000 -0.000000  0.020035 -0.118303
  0N   1dxz      -0.000000 -0.000000  0.029936 -0.000012 -0.000000  0.000000
  0N   1dyz      -0.000000  0.000000  0.000012  0.029936  0.000000  0.000000
  0N   1dx2y2     0.000872  0.000010 -0.000000  0.000000  0.000000  0.000000
  0N   1dxy      -0.000010  0.000872  0.000000  0.000000 -0.000000  0.000000
  0N   2dz2       0.000000  0.000000 -0.000000 -0.000000  2.518264 -0.831226
  0N   2dxz       0.000000  0.000000 -1.536994  0.000592 -0.000000  0.000000
  0N   2dyz       0.000000 -0.000000 -0.000592 -1.536994 -0.000000  0.000000
  0N   2dx2y2     2.398118  0.028363  0.000001 -0.000000  0.000000  0.000000
  0N   2dxy      -0.028363  2.398118 -0.000000 -0.000001  0.000000 -0.000000
  0N   1f0       -0.000000  0.000000 -0.000000 -0.000000  0.000000 -0.000000
  0N   1f+1      -0.104410 -0.001235 -0.000000  0.000000  0.000000 -0.000000
  0N   1f-1      -0.001235  0.104410 -0.000000 -0.000000  0.000000  0.000000
  0N   1f+2       0.000000  0.000000 -0.052157  0.000020 -0.000000  0.000000
  0N   1f-2      -0.000000  0.000000  0.000020  0.052157  0.000000 -0.000000
  0N   1f+3       0.000000  0.000000 -0.000000 -0.000000  0.259287 -0.422554
  0N   1f-3       0.000000 -0.000000  0.000000  0.000000 -0.000000  0.000000
  1H   1s         0.261070  0.003088  0.000000 -0.000000 -0.133658  0.638770
  1H   2s        -4.008649 -0.047411 -0.000001  0.000000  5.568052 -3.637996
  1H   3s         0.334901  0.003961  0.000000 -0.000000  0.817733  0.304899
  1H   1pz        0.000000  0.000000 -0.042946  0.000017 -0.000000  0.000000
  1H   1px        0.194381  0.002299  0.000000 -0.000000 -0.108778  0.246040
  1H   1py       -0.000459  0.038774 -0.000000 -0.000000  0.000000 -0.000000
  1H   2pz       -0.000000 -0.000000  1.029772 -0.000397 -0.000000  0.000000
  1H   2px        1.491851  0.017645  0.000000 -0.000000 -2.674948  1.321339
  1H   2py        0.010081 -0.852352  0.000000  0.000000 -0.000000 -0.000000
  1H   1dz2       0.049416  0.000584  0.000000 -0.000000 -0.097058  0.165317
  1H   1dxz       0.000000  0.000000 -0.109922  0.000042  0.000000 -0.000000
  1H   1dyz       0.000000 -0.000000 -0.000017 -0.044182 -0.000000 -0.000000
  1H   1dx2y2    -0.129609 -0.001533 -0.000000  0.000000  0.159952 -0.160705
  1H   1dxy      -0.001261  0.106612 -0.000000 -0.000000  0.000000  0.000000
  2H   1s        -0.127861 -0.227637 -0.000000  0.000000 -0.133658  0.638770
  2H   2s         1.963265  3.495298  0.000000 -0.000001  5.568052 -3.637996
  2H   3s        -0.164020 -0.292013 -0.000000  0.000000  0.817733  0.304899
  2H   1pz       -0.000000 -0.000000  0.021459 -0.037200 -0.000000  0.000000
  2H   1px        0.018321  0.101190  0.000000 -0.000000  0.054389 -0.123020
  2H   1py       -0.099349 -0.137286 -0.000000  0.000000 -0.094205  0.213077
  2H   2pz        0.000000  0.000000 -0.514542  0.892007 -0.000000  0.000000
  2H   2px        1.008952  0.288883  0.000000  0.000000  1.337474 -0.660669
  2H   2py       -0.261158 -1.335252  0.000000  0.000000 -2.316573  1.144313
  2H   1dz2      -0.024202 -0.043088 -0.000000  0.000000 -0.097058  0.165317
  2H   1dxz       0.000000  0.000000 -0.060606  0.028489 -0.000000  0.000000
  2H   1dyz      -0.000000 -0.000000  0.028430 -0.093498  0.000000 -0.000000
  2H   1dx2y2     0.048767 -0.101725  0.000000  0.000000 -0.079976  0.080352
  2H   1dxy      -0.101453 -0.071764 -0.000000  0.000000 -0.138523  0.139174
  3H   1s        -0.133209  0.224550 -0.000000 -0.000000 -0.133658  0.638770
  3H   2s         2.045384 -3.447886  0.000000  0.000001  5.568052 -3.637996
  3H   3s        -0.170881  0.288052 -0.000000 -0.000000  0.817733  0.304899
  3H   1pz       -0.000000  0.000000  0.021487  0.037184 -0.000000  0.000000
  3H   1px        0.020709 -0.100728  0.000000  0.000000  0.054389 -0.123020
  3H   1py        0.102569 -0.134898  0.000000  0.000000  0.094205 -0.213077
  3H   2pz        0.000000 -0.000000 -0.515230 -0.891610 -0.000000  0.000000
  3H   2px        1.015502 -0.264939  0.000000 -0.000000  1.337474 -0.660669
  3H   2py        0.292665 -1.328701 -0.000000  0.000000  2.316573 -1.144313
  3H   1dz2      -0.025214  0.042503 -0.000000 -0.000000 -0.097058  0.165317
  3H   1dxz       0.000000 -0.000000 -0.060628 -0.028443 -0.000000  0.000000
  3H   1dyz       0.000000 -0.000000 -0.028502 -0.093476 -0.000000  0.000000
  3H   1dx2y2     0.046347  0.102849  0.000000 -0.000000 -0.079976  0.080352
  3H   1dxy       0.103121 -0.069344  0.000000  0.000000  0.138523 -0.139174
                     30        31        32        33        34        35   
                   2.48120   2.70202   2.70202   2.83484   3.25525   3.25525
                   0.00000   0.00000   0.00000   0.00000   0.00000   0.00000
                  --------  --------  --------  --------  --------  --------
  0N   1s         0.000000  0.000000  0.000000 -0.095111 -0.000000  0.000000
  0N   2s         0.000000  0.000000  0.000000 -0.356495 -0.000000  0.000000
  0N   3s        -0.000000 -0.000000 -0.000000  4.060608  0.000000 -0.000000
  0N   4s         0.000000  0.000000  0.000000-13.897080 -0.000000  0.000000
  0N   5s        -0.000000 -0.000000 -0.000000  0.481700  0.000000  0.000000
  0N   1pz        1.270825 -0.000000  0.000000  0.000000  0.000000  0.000000
  0N   1px       -0.000000  0.012035  0.882543  0.000000  0.003680  0.725661
  0N   1py        0.000000  0.882543 -0.012035  0.000000 -0.725661  0.003680
  0N   2pz       -1.922627  0.000000 -0.000000 -0.000000 -0.000000 -0.000000
  0N   2px        0.000000 -0.069631 -5.105989 -0.000000 -0.019950 -3.933986
  0N   2py       -0.000000 -5.105989  0.069631  0.000000  3.933986 -0.019950
  0N   3pz        0.477471 -0.000000 -0.000000  0.000000  0.000000 -0.000000
  0N   3px       -0.000000 -0.018817 -1.379863 -0.000000 -0.000870 -0.171544
  0N   3py       -0.000000 -1.379863  0.018817  0.000000  0.171544 -0.000870
  0N   1dz2       0.000000 -0.000000 -0.000000  0.017176 -0.000000  0.000000
  0N   1dxz      -0.000000 -0.000000 -0.000000 -0.000000  0.000000  0.000000
  0N   1dyz       0.000000 -0.000000  0.000000 -0.000000 -0.000000  0.000000
  0N   1dx2y2     0.000000 -0.000908 -0.066611 -0.000000 -0.000169 -0.033377
  0N   1dxy       0.000000  0.066611 -0.000908  0.000000 -0.033377  0.000169
  0N   2dz2      -0.000000 -0.000000 -0.000000  1.507703  0.000000 -0.000000
  0N   2dxz      -0.000000 -0.000000 -0.000000 -0.000000 -0.000000 -0.000000
  0N   2dyz       0.000000 -0.000000  0.000000  0.000000  0.000000 -0.000000
  0N   2dx2y2    -0.000000 -0.005545 -0.406574 -0.000000 -0.005103 -1.006329
  0N   2dxy       0.000000  0.406574 -0.005545  0.000000 -1.006329  0.005103
  0N   1f0        0.018934  0.000000  0.000000  0.000000 -0.000000 -0.000000
  0N   1f+1      -0.000000  0.002980  0.218537  0.000000 -0.001121 -0.221056
  0N   1f-1       0.000000  0.218537 -0.002980 -0.000000  0.221056 -0.001121
  0N   1f+2       0.000000 -0.000000 -0.000000 -0.000000  0.000000  0.000000
  0N   1f-2      -0.000000  0.000000 -0.000000  0.000000  0.000000 -0.000000
  0N   1f+3       0.000000 -0.000000 -0.000000  0.074436 -0.000000 -0.000000
  0N   1f-3       0.000000 -0.000000  0.000000 -0.000000 -0.000000  0.000000
  1H   1s        -0.000000 -0.010064 -0.737980  0.278781  0.002281  0.449748
  1H   2s         0.000000  0.072647  5.327149  3.806149  0.014789  2.916171
  1H   3s         0.000000  0.001716  0.125799 -0.158551  0.000769  0.151704
  1H   1pz       -0.015437 -0.000000 -0.000000 -0.000000  0.000000  0.000000
  1H   1px       -0.000000 -0.004368 -0.320336 -0.146103 -0.000105 -0.020644
  1H   1py       -0.000000 -0.062546  0.000853  0.000000  0.051975 -0.000264
  1H   2pz        0.284472 -0.000000 -0.000000 -0.000000 -0.000000 -0.000000
  1H   2px       -0.000000 -0.029944 -2.195791 -2.059227 -0.009146 -1.803521
  1H   2py        0.000000  0.920510 -0.012553 -0.000000 -0.093062  0.000472
  1H   1dz2      -0.000000 -0.001102 -0.080838  0.023149 -0.002680 -0.528562
  1H   1dxz      -0.069436  0.000000  0.000000  0.000000 -0.000000 -0.000000
  1H   1dyz       0.000000  0.000000 -0.000000  0.000000  0.000000 -0.000000
  1H   1dx2y2     0.000000  0.003929  0.288086  0.252114 -0.000282 -0.055569
  1H   1dxy      -0.000000  0.013736 -0.000187 -0.000000  0.082110 -0.000416
  2H   1s        -0.000000 -0.634077  0.377705  0.278781 -0.390634 -0.222899
  2H   2s         0.000000  4.577123 -2.726489  3.806149 -2.532872 -1.445278
  2H   3s         0.000000  0.108088 -0.064385 -0.158551 -0.131764 -0.075186
  2H   1pz       -0.015437 -0.000000  0.000000 -0.000000 -0.000000 -0.000000
  2H   1px        0.000000  0.109895 -0.128516  0.073052  0.013343 -0.044211
  2H   1py       -0.000000 -0.254366  0.115116 -0.126529  0.028408 -0.013711
  2H   2pz        0.284472 -0.000000  0.000000 -0.000000  0.000000  0.000000
  2H   2px        0.000000  1.351327  0.123033  1.029613 -0.823177 -0.376919
  2H   2py       -0.000000 -1.398313  1.368718 -1.783343  1.333540  0.814503
  2H   1dz2      -0.000000 -0.069456  0.041374  0.023149  0.459088  0.261960
  2H   1dxz       0.034718 -0.000000  0.000000 -0.000000  0.000000 -0.000000
  2H   1dyz      -0.060134  0.000000 -0.000000  0.000000  0.000000 -0.000000
  2H   1dx2y2    -0.000000 -0.129851  0.063502 -0.126057 -0.059375  0.047992
  2H   1dxy      -0.000000 -0.210848  0.133592 -0.218337 -0.021452 -0.059509
  3H   1s        -0.000000  0.644141  0.360274  0.278781  0.388353 -0.226849
  3H   2s         0.000000 -4.649770 -2.600660  3.806149  2.518084 -1.470893
  3H   3s         0.000000 -0.109803 -0.061414 -0.158551  0.130995 -0.076518
  3H   1pz       -0.015437  0.000000  0.000000 -0.000000  0.000000 -0.000000
  3H   1px        0.000000 -0.113358 -0.125471  0.073052 -0.013791 -0.044074
  3H   1py        0.000000 -0.257411 -0.108137  0.126529  0.028546  0.013422
  3H   2pz        0.284472  0.000000  0.000000 -0.000000 -0.000000  0.000000
  3H   2px        0.000000 -1.347469  0.159837  1.029613  0.819312 -0.385248
  3H   2py        0.000000 -1.435117 -1.330078  1.783343  1.325210 -0.827986
  3H   1dz2      -0.000000  0.070559  0.039464  0.023149 -0.456408  0.266602
  3H   1dxz       0.034718  0.000000  0.000000 -0.000000 -0.000000 -0.000000
  3H   1dyz       0.060134  0.000000  0.000000 -0.000000  0.000000  0.000000
  3H   1dx2y2    -0.000000  0.131534  0.059937 -0.126057  0.059859  0.047388
  3H   1dxy       0.000000 -0.214413 -0.127793  0.218337 -0.020847  0.059724
                     36        37        38        39        40        41   
                   3.33315   3.33315   3.54761   3.58935   3.59840   3.59840
                   0.00000   0.00000   0.00000   0.00000   0.00000   0.00000
                  --------  --------  --------  --------  --------  --------
  0N   1s        -0.000000 -0.000000 -0.000000  0.000000 -0.000000 -0.000000
  0N   2s        -0.000000 -0.000000 -0.000000  0.000000 -0.000000 -0.000000
  0N   3s         0.000000 -0.000000  0.000000 -0.000000  0.000000  0.000000
  0N   4s        -0.000000  0.000000 -0.000000  0.000000 -0.000000 -0.000000
  0N   5s         0.000000  0.000000  0.000000 -0.000000 -0.000000 -0.000000
  0N   1pz        0.000000  0.000000  0.000000 -0.000000  0.000000  0.000000
  0N   1px        0.000000 -0.000000 -0.000000 -0.000000  0.006896  0.482273
  0N   1py       -0.000000 -0.000000  0.000000 -0.000000 -0.482273  0.006896
  0N   2pz       -0.000000 -0.000000  0.000000  0.000000 -0.000000 -0.000000
  0N   2px       -0.000000  0.000000  0.000000  0.000000 -0.043575 -3.047618
  0N   2py        0.000000  0.000000 -0.000000  0.000000  3.047618 -0.043575
  0N   3pz        0.000000 -0.000000  0.000000 -0.000000 -0.000000 -0.000000
  0N   3px        0.000000 -0.000000  0.000000  0.000000 -0.001439 -0.100671
  0N   3py       -0.000000 -0.000000  0.000000  0.000000  0.100671 -0.001439
  0N   1dz2       0.000000  0.000000 -0.000000 -0.000000  0.000000  0.000000
  0N   1dxz      -0.000300  0.164460  0.000000  0.000000 -0.000000 -0.000000
  0N   1dyz       0.164460  0.000300  0.000000 -0.000000  0.000000 -0.000000
  0N   1dx2y2    -0.000000  0.000000  0.000000  0.000000 -0.003945 -0.275944
  0N   1dxy      -0.000000 -0.000000  0.000000 -0.000000 -0.275944  0.003945
  0N   2dz2       0.000000  0.000000  0.000000 -0.000000  0.000000  0.000000
  0N   2dxz      -0.000082  0.045100 -0.000000  0.000000 -0.000000 -0.000000
  0N   2dyz       0.045100  0.000082  0.000000  0.000000  0.000000 -0.000000
  0N   2dx2y2    -0.000000  0.000000  0.000000  0.000000 -0.007170 -0.501492
  0N   2dxy      -0.000000 -0.000000  0.000000 -0.000000 -0.501492  0.007170
  0N   1f0       -0.000000 -0.000000 -0.000000  0.000000  0.000000 -0.000000
  0N   1f+1      -0.000000  0.000000 -0.000000  0.000000 -0.000095 -0.006659
  0N   1f-1       0.000000  0.000000  0.000000  0.000000  0.006659 -0.000095
  0N   1f+2      -0.000443  0.242914  0.000000 -0.000000 -0.000000 -0.000000
  0N   1f-2      -0.242914 -0.000443 -0.000000  0.000000 -0.000000  0.000000
  0N   1f+3       0.000000  0.000000 -0.000000 -0.000000  0.000000  0.000000
  0N   1f-3      -0.000000 -0.000000 -0.000000 -0.298967  0.000000 -0.000000
  1H   1s         0.000000 -0.000000 -0.000000 -0.000000  0.006036  0.422189
  1H   2s         0.000000 -0.000000 -0.000000 -0.000000  0.030148  2.108535
  1H   3s        -0.000000  0.000000 -0.000000 -0.000000  0.004282  0.299499
  1H   1pz       -0.000748  0.410067  0.000000 -0.000000 -0.000000 -0.000000
  1H   1px        0.000000 -0.000000 -0.000000 -0.000000  0.005821  0.407126
  1H   1py        0.000000  0.000000  0.000000  0.510131 -0.279614  0.003998
  1H   2pz        0.000525 -0.288042 -0.000000  0.000000 -0.000000 -0.000000
  1H   2px       -0.000000  0.000000  0.000000  0.000000 -0.025314 -1.770444
  1H   2py        0.000000  0.000000 -0.000000 -0.396516 -0.006742  0.000096
  1H   1dz2      -0.000000  0.000000 -0.000000 -0.000000  0.003242  0.226750
  1H   1dxz       0.000461 -0.252871 -0.000000  0.000000  0.000000  0.000000
  1H   1dyz      -0.519285 -0.000947 -0.584411  0.000000 -0.000000  0.000000
  1H   1dx2y2    -0.000000  0.000000 -0.000000 -0.000000  0.007887  0.551627
  1H   1dxy       0.000000  0.000000 -0.000000 -0.203040  0.152019 -0.002174
  2H   1s        -0.000000  0.000000  0.000000 -0.000000 -0.368645 -0.205867
  2H   2s        -0.000000  0.000000  0.000000 -0.000000 -1.841119 -1.028159
  2H   3s         0.000000 -0.000000  0.000000 -0.000000 -0.261515 -0.146041
  2H   1pz        0.355502 -0.204386  0.000000 -0.000000  0.000000  0.000000
  2H   1px        0.000000  0.000000 -0.000000 -0.441786  0.059668  0.310702
  2H   1py       -0.000000  0.000000 -0.000000 -0.255066 -0.376038 -0.049849
  2H   2pz       -0.249715  0.143566 -0.000000  0.000000  0.000000  0.000000
  2H   2px       -0.000000  0.000000  0.000000  0.343393 -0.775800 -0.426552
  2H   2py        0.000000 -0.000000  0.000000  0.198258  1.337151  0.750583
  2H   1dz2       0.000000 -0.000000  0.000000 -0.000000 -0.197993 -0.110567
  2H   1dxz      -0.114535 -0.452891  0.506115 -0.000000  0.000000  0.000000
  2H   1dyz      -0.319264 -0.115943  0.292206 -0.000000 -0.000000 -0.000000
  2H   1dx2y2    -0.000000 -0.000000 -0.000000 -0.175838  0.176637  0.249447
  2H   1dxy      -0.000000  0.000000  0.000000  0.101520  0.454199  0.166577
  3H   1s         0.000000  0.000000 -0.000000  0.000000  0.362608 -0.216322
  3H   2s         0.000000  0.000000 -0.000000  0.000000  1.810971 -1.080376
  3H   3s        -0.000000 -0.000000 -0.000000  0.000000  0.257233 -0.153458
  3H   1pz       -0.354754 -0.205681 -0.000000  0.000000 -0.000000  0.000000
  3H   1px       -0.000000  0.000000  0.000000  0.441786 -0.050761  0.312281
  3H   1py       -0.000000 -0.000000 -0.000000 -0.255066 -0.374459  0.060580
  3H   2pz        0.249189  0.144476  0.000000 -0.000000 -0.000000  0.000000
  3H   2px        0.000000  0.000000 -0.000000 -0.343393  0.763288 -0.448558
  3H   2py        0.000000  0.000000  0.000000  0.198258  1.315145 -0.788505
  3H   1dz2      -0.000000 -0.000000 -0.000000  0.000000  0.194751 -0.116183
  3H   1dxz       0.116186 -0.452471 -0.506115  0.000000 -0.000000  0.000000
  3H   1dyz      -0.319684  0.114778  0.292206 -0.000000 -0.000000  0.000000
  3H   1dx2y2     0.000000 -0.000000  0.000000  0.175838 -0.169433  0.254395
  3H   1dxy      -0.000000 -0.000000  0.000000  0.101520  0.449251 -0.179494
                     42        43        44        45        46        47   
                   3.74541   3.88187   3.94880   3.94880   4.10307   4.10307
                   0.00000   0.00000   0.00000   0.00000   0.00000   0.00000
                  --------  --------  --------  --------  --------  --------
  0N   1s        -0.035707  0.000000  0.000000  0.000000  0.000000  0.000000
  0N   2s        -0.086228  0.000000  0.000000  0.000000  0.000000  0.000000
  0N   3s         0.786931 -0.000000 -0.000000 -0.000000 -0.000000  0.000000
  0N   4s        -4.479227  0.000000  0.000000  0.000000  0.000000  0.000000
  0N   5s        -0.812682  0.000000 -0.000000  0.000000  0.000000  0.000000
  0N   1pz       -0.000000 -0.032563  0.000000  0.000000 -0.000000  0.000000
  0N   1px       -0.000000  0.000000  0.000000 -0.000000 -0.000004 -0.010097
  0N   1py       -0.000000  0.000000 -0.000000 -0.000000 -0.010097  0.000004
  0N   2pz       -0.000000 -0.011067 -0.000000  0.000000 -0.000000 -0.000000
  0N   2px        0.000000  0.000000 -0.000000  0.000000 -0.000278 -0.776177
  0N   2py        0.000000 -0.000000  0.000000  0.000000 -0.776177  0.000278
  0N   3pz        0.000000  0.501369  0.000000 -0.000000  0.000000 -0.000000
  0N   3px       -0.000000 -0.000000 -0.000000  0.000000 -0.000571 -1.594969
  0N   3py       -0.000000  0.000000  0.000000  0.000000 -1.594969  0.000571
  0N   1dz2       0.272680 -0.000000 -0.000000 -0.000000  0.000000 -0.000000
  0N   1dxz      -0.000000  0.000000  0.000117 -0.043097 -0.000000 -0.000000
  0N   1dyz      -0.000000 -0.000000 -0.043097 -0.000117 -0.000000  0.000000
  0N   1dx2y2     0.000000  0.000000 -0.000000  0.000000 -0.000060 -0.166840
  0N   1dxy      -0.000000 -0.000000 -0.000000 -0.000000  0.166840 -0.000060
  0N   2dz2       0.664473 -0.000000  0.000000 -0.000000 -0.000000  0.000000
  0N   2dxz      -0.000000 -0.000000  0.000201 -0.074034 -0.000000 -0.000000
  0N   2dyz      -0.000000 -0.000000 -0.074034 -0.000201 -0.000000  0.000000
  0N   2dx2y2     0.000000 -0.000000 -0.000000  0.000000  0.000236  0.659953
  0N   2dxy      -0.000000  0.000000 -0.000000 -0.000000 -0.659953  0.000236
  0N   1f0       -0.000000 -0.460500 -0.000000  0.000000 -0.000000  0.000000
  0N   1f+1       0.000000  0.000000  0.000000 -0.000000  0.000075  0.208751
  0N   1f-1       0.000000 -0.000000 -0.000000 -0.000000  0.208751 -0.000075
  0N   1f+2      -0.000000 -0.000000  0.000662 -0.244478  0.000000  0.000000
  0N   1f-2       0.000000 -0.000000  0.244478  0.000662 -0.000000  0.000000
  0N   1f+3      -0.001982  0.000000  0.000000 -0.000000  0.000000 -0.000000
  0N   1f-3       0.000000 -0.000000  0.000000  0.000000 -0.000000  0.000000
  1H   1s         0.187177 -0.000000  0.000000 -0.000000 -0.000095 -0.265512
  1H   2s         1.366115 -0.000000  0.000000 -0.000000  0.000376  1.052038
  1H   3s         0.199128 -0.000000  0.000000 -0.000000  0.000335  0.935947
  1H   1pz        0.000000  0.564722  0.002234 -0.824792  0.000000  0.000000
  1H   1px        0.369322 -0.000000  0.000000 -0.000000  0.000141  0.394813
  1H   1py       -0.000000  0.000000 -0.000000 -0.000000 -0.870418  0.000311
  1H   2pz       -0.000000 -0.524548 -0.001767  0.652152 -0.000000 -0.000000
  1H   2px       -1.082864  0.000000 -0.000000  0.000000 -0.000235 -0.656352
  1H   2py        0.000000 -0.000000  0.000000  0.000000  1.248939 -0.000447
  1H   1dz2      -0.494376  0.000000 -0.000000  0.000000 -0.000042 -0.118354
  1H   1dxz      -0.000000 -0.099434  0.001185 -0.437258 -0.000000 -0.000000
  1H   1dyz       0.000000  0.000000 -0.376000 -0.001019 -0.000000  0.000000
  1H   1dx2y2     0.030788 -0.000000 -0.000000  0.000000  0.000025  0.071140
  1H   1dxy      -0.000000  0.000000 -0.000000 -0.000000 -0.427384  0.000153
  2H   1s         0.187177 -0.000000 -0.000000  0.000000 -0.229893  0.132838
  2H   2s         1.366115 -0.000000 -0.000000  0.000000  0.910903 -0.526345
  2H   3s         0.199128 -0.000000 -0.000000  0.000000  0.810386 -0.468263
  2H   1pz        0.000000  0.564722 -0.715408  0.410461  0.000000 -0.000000
  2H   1px       -0.184661  0.000000 -0.000000 -0.000000 -0.548059 -0.553914
  2H   1py        0.319842 -0.000000 -0.000000 -0.000000  0.078310 -0.547889
  2H   2pz       -0.000000 -0.524548  0.565663 -0.324546 -0.000000  0.000000
  2H   2px        0.541432 -0.000000 -0.000000  0.000000  0.825291  0.772321
  2H   2py       -0.937787  0.000000  0.000000 -0.000000 -0.179734  0.825079
  2H   1dz2      -0.494376  0.000000  0.000000 -0.000000 -0.102476  0.059213
  2H   1dxz       0.000000  0.049717  0.027586 -0.391242 -0.000000 -0.000000
  2H   1dyz      -0.000000 -0.086112 -0.422015  0.025382 -0.000000 -0.000000
  2H   1dx2y2    -0.015394  0.000000  0.000000  0.000000  0.154379  0.338267
  2H   1dxy      -0.026663  0.000000 -0.000000 -0.000000 -0.160256 -0.154201
  3H   1s         0.187177 -0.000000  0.000000  0.000000  0.229988  0.132674
  3H   2s         1.366115 -0.000000  0.000000  0.000000 -0.911279 -0.525693
  3H   3s         0.199128 -0.000000  0.000000  0.000000 -0.810721 -0.467683
  3H   1pz        0.000000  0.564722  0.713174  0.414331 -0.000000 -0.000000
  3H   1px       -0.184661  0.000000  0.000000 -0.000000  0.547663 -0.554306
  3H   1py       -0.319842  0.000000 -0.000000  0.000000  0.078702  0.547833
  3H   2pz       -0.000000 -0.524548 -0.563897 -0.327606  0.000000  0.000000
  3H   2px        0.541432 -0.000000  0.000000  0.000000 -0.824739  0.772911
  3H   2py        0.937787 -0.000000  0.000000  0.000000 -0.180324 -0.824951
  3H   1dz2      -0.494376  0.000000 -0.000000 -0.000000  0.102518  0.059140
  3H   1dxz       0.000000  0.049717 -0.025465 -0.391386  0.000000 -0.000000
  3H   1dyz       0.000000  0.086112 -0.421871 -0.027669 -0.000000  0.000000
  3H   1dx2y2    -0.015394  0.000000 -0.000000  0.000000 -0.154137  0.338378
  3H   1dxy       0.026663 -0.000000 -0.000000  0.000000 -0.160146  0.154315
                     48        49        50        51        52        53   
                   4.31001   4.31194   4.37868   4.44006   4.44006   4.52065
                   0.00000   0.00000   0.00000   0.00000   0.00000   0.00000
                  --------  --------  --------  --------  --------  --------
  0N   1s         0.000000  0.000000 -0.010192  0.000000  0.000000 -0.000000
  0N   2s        -0.000000  0.000000 -0.099844  0.000000  0.000000 -0.000000
  0N   3s         0.000000 -0.000000  1.603988 -0.000000 -0.000000 -0.000000
  0N   4s         0.000000  0.000000 -3.162158  0.000000  0.000000  0.000000
  0N   5s         0.000000  0.000000 -0.134026  0.000000 -0.000000  0.000000
  0N   1pz        0.000000  0.108209  0.000000 -0.000000 -0.000000 -0.000000
  0N   1px       -0.000000 -0.000000  0.000000  0.000000 -0.000000 -0.000964
  0N   1py       -0.000000  0.000000  0.000000  0.000000  0.000000  0.274587
  0N   2pz        0.000000  0.953257  0.000000 -0.000000 -0.000000  0.000000
  0N   2px        0.000000  0.000000 -0.000000  0.000000 -0.000000  0.000830
  0N   2py        0.000000 -0.000000  0.000000  0.000000  0.000000 -0.236447
  0N   3pz        0.000000  0.241222  0.000000 -0.000000 -0.000000  0.000000
  0N   3px       -0.000000  0.000000  0.000000  0.000000 -0.000000  0.000121
  0N   3py       -0.000000  0.000000  0.000000  0.000000  0.000000 -0.034431
  0N   1dz2      -0.000000  0.000000 -0.233477 -0.000000  0.000000  0.000000
  0N   1dxz       0.000000 -0.000000  0.000000 -0.439639  0.001698 -0.000000
  0N   1dyz       0.000000 -0.000000 -0.000000 -0.001698 -0.439639  0.000000
  0N   1dx2y2    -0.000000 -0.000000  0.000000  0.000000 -0.000000 -0.000168
  0N   1dxy       0.000000 -0.000000  0.000000 -0.000000 -0.000000 -0.047735
  0N   2dz2       0.000000 -0.000000  1.122484  0.000000 -0.000000 -0.000000
  0N   2dxz      -0.000000  0.000000 -0.000000  1.561777 -0.006032  0.000000
  0N   2dyz      -0.000000  0.000000  0.000000  0.006032  1.561777 -0.000000
  0N   2dx2y2     0.000000  0.000000 -0.000000  0.000000 -0.000000 -0.001307
  0N   2dxy       0.000000  0.000000 -0.000000 -0.000000 -0.000000 -0.372414
  0N   1f0        0.000000  0.094466  0.000000  0.000000 -0.000000 -0.000000
  0N   1f+1       0.000000 -0.000000 -0.000000 -0.000000  0.000000  0.001739
  0N   1f-1       0.000000  0.000000  0.000000 -0.000000 -0.000000 -0.495471
  0N   1f+2       0.000000 -0.000000  0.000000  0.058778 -0.000227 -0.000000
  0N   1f-2      -0.000000  0.000000 -0.000000 -0.000227 -0.058778 -0.000000
  0N   1f+3      -0.000000  0.000000 -0.185073  0.000000 -0.000000 -0.000000
  0N   1f-3       0.411714 -0.000000 -0.000000  0.000000  0.000000  0.000000
  1H   1s        -0.000000 -0.000000  0.120320 -0.000000  0.000000  0.000097
  1H   2s        -0.000000 -0.000000  1.071243 -0.000000  0.000000  0.001195
  1H   3s        -0.000000  0.000000 -0.134430 -0.000000  0.000000  0.000872
  1H   1pz        0.000000  0.396567  0.000000 -0.044074  0.000170 -0.000000
  1H   1px       -0.000000  0.000000 -0.451123 -0.000000  0.000000  0.001476
  1H   1py       -0.363870  0.000000  0.000000 -0.000000 -0.000000 -0.221959
  1H   2pz       -0.000000 -0.624362 -0.000000 -0.858412  0.003316 -0.000000
  1H   2px        0.000000 -0.000000 -0.062327  0.000000 -0.000000 -0.002728
  1H   2py        0.599435 -0.000000 -0.000000  0.000000  0.000000  0.545245
  1H   1dz2       0.000000  0.000000 -0.258465  0.000000 -0.000000 -0.002017
  1H   1dxz       0.000000  0.619011  0.000000  0.854318 -0.003300  0.000000
  1H   1dyz      -0.000000 -0.000000 -0.000000 -0.002331 -0.603404  0.000000
  1H   1dx2y2    -0.000000  0.000000 -0.503127 -0.000000  0.000000  0.000812
  1H   1dxy      -0.724473  0.000000  0.000000 -0.000000 -0.000000 -0.522548
  2H   1s        -0.000000 -0.000000  0.120320  0.000000 -0.000000 -0.024064
  2H   2s         0.000000 -0.000000  1.071243  0.000000 -0.000000 -0.295602
  2H   3s         0.000000  0.000000 -0.134430  0.000000 -0.000000 -0.215648
  2H   1pz        0.000000  0.396567  0.000000  0.021890 -0.038254  0.000000
  2H   1px        0.315121 -0.000000  0.225561 -0.000000  0.000000  0.086942
  2H   1py        0.181935  0.000000 -0.390684  0.000000 -0.000000 -0.371197
  2H   2pz       -0.000000 -0.624362 -0.000000  0.426334 -0.745064  0.000000
  2H   2px       -0.519126  0.000000  0.031163  0.000000 -0.000000 -0.102558
  2H   2py       -0.299717 -0.000000 -0.053976 -0.000000  0.000000  0.719566
  2H   1dz2      -0.000000  0.000000 -0.258465 -0.000000  0.000000  0.498715
  2H   1dxz       0.000000 -0.309506 -0.000000 -0.241412 -0.630289  0.000000
  2H   1dyz       0.000000  0.536080  0.000000 -0.629320  0.492325 -0.000000
  2H   1dx2y2    -0.627412 -0.000000  0.251563  0.000000  0.000000  0.325281
  2H   1dxy       0.362237 -0.000000  0.435720 -0.000000  0.000000  0.044031
  3H   1s         0.000000 -0.000000  0.120320  0.000000  0.000000  0.023967
  3H   2s        -0.000000 -0.000000  1.071243  0.000000  0.000000  0.294407
  3H   3s        -0.000000  0.000000 -0.134430  0.000000  0.000000  0.214776
[...]
                            *     ORCA property calculations      *
                            ***************************************

                                    ---------------------
                                    Active property flags
                                    ---------------------
   (+) Dipole Moment


------------------------------------------------------------------------------
                       ORCA ELECTRIC PROPERTIES CALCULATION
------------------------------------------------------------------------------

Dipole Moment Calculation                       ... on
Quadrupole Moment Calculation                   ... off
Polarizability Calculation                      ... off
GBWName                                         ... NH3‡.gbw
Electron density file                           ... NH3‡.scfp
The origin for moment calculation is the CENTER OF MASS  = ( 0.000000, -0.000000  0.000000)

-------------
DIPOLE MOMENT
-------------
                                X             Y             Z
Electronic contribution:     -0.00000      -0.00000       0.00000
Nuclear contribution   :     -0.00000       0.00000      -0.00000
                        -----------------------------------------
Total Dipole Moment    :     -0.00000       0.00000      -0.00000
                        -----------------------------------------
Magnitude (a.u.)       :      0.00000
Magnitude (Debye)      :      0.00000



--------------------
Rotational spectrum 
--------------------
 
Rotational constants in cm-1:    11.311586    11.311586     5.655793 
Rotational constants in MHz : 339112.828826 339112.828163 169556.414247 

 Dipole components along the rotational axes: 
x,y,z [a.u.] :    -0.000000     0.000000    -0.000000 
x,y,z [Debye]:    -0.000000     0.000000    -0.000000 

 

                         *** MP2 UNRELAXED DENSITY ***

------------------------------------------------------------------------------
                       ORCA ELECTRIC PROPERTIES CALCULATION
------------------------------------------------------------------------------

Dipole Moment Calculation                       ... on
Quadrupole Moment Calculation                   ... off
Polarizability Calculation                      ... off
GBWName                                         ... NH3‡.gbw
Electron density file                           ... NH3‡.pmp2ur
The origin for moment calculation is the CENTER OF MASS  = ( 0.000000, -0.000000  0.000000)

-------------
DIPOLE MOMENT
-------------
                                X             Y             Z
Electronic contribution:     -0.00000      -0.00000       0.00000
Nuclear contribution   :     -0.00000       0.00000      -0.00000
                        -----------------------------------------
Total Dipole Moment    :     -0.00000       0.00000      -0.00000
                        -----------------------------------------
Magnitude (a.u.)       :      0.00000
Magnitude (Debye)      :      0.00000



--------------------
Rotational spectrum 
--------------------
 
Rotational constants in cm-1:    11.311586    11.311586     5.655793 
Rotational constants in MHz : 339112.828826 339112.828163 169556.414247 

 Dipole components along the rotational axes: 
x,y,z [a.u.] :    -0.000000     0.000000    -0.000000 
x,y,z [Debye]:    -0.000000     0.000000    -0.000000 

 

                           *** MP2 RELAXED DENSITY ***

------------------------------------------------------------------------------
                       ORCA ELECTRIC PROPERTIES CALCULATION
------------------------------------------------------------------------------

Dipole Moment Calculation                       ... on
Quadrupole Moment Calculation                   ... off
Polarizability Calculation                      ... off
GBWName                                         ... NH3‡.gbw
Electron density file                           ... NH3‡.pmp2re
The origin for moment calculation is the CENTER OF MASS  = ( 0.000000, -0.000000  0.000000)

-------------
DIPOLE MOMENT
-------------
                                X             Y             Z
Electronic contribution:     -0.00000      -0.00000       0.00000
Nuclear contribution   :     -0.00000       0.00000      -0.00000
                        -----------------------------------------
Total Dipole Moment    :     -0.00000       0.00000      -0.00000
                        -----------------------------------------
Magnitude (a.u.)       :      0.00000
Magnitude (Debye)      :      0.00000



--------------------
Rotational spectrum 
--------------------
 
Rotational constants in cm-1:    11.311586    11.311586     5.655793 
Rotational constants in MHz : 339112.828826 339112.828163 169556.414247 

 Dipole components along the rotational axes: 
x,y,z [a.u.] :    -0.000000     0.000000    -0.000000 
x,y,z [Debye]:    -0.000000     0.000000    -0.000000 

 
------------------------------------------------------------------------------
                         ORCA MP2 H E S S I A N CALCULATION
------------------------------------------------------------------------------

Calculating analytic MP2 second derivatives ... (>NH3‡.last_mp2) done

-----------------------
VIBRATIONAL FREQUENCIES
-----------------------

Scaling factor for frequencies =  1.000000000  (already applied!)

   0:         0.00 cm**-1
   1:         0.00 cm**-1
   2:         0.00 cm**-1
   3:         0.00 cm**-1
   4:         0.00 cm**-1
   5:         0.00 cm**-1
   6:      -851.73 cm**-1 ***imaginary mode***
   7:      1589.03 cm**-1
   8:      1589.06 cm**-1
   9:      3675.08 cm**-1
  10:      3895.85 cm**-1
  11:      3895.86 cm**-1


------------
NORMAL MODES
------------

These modes are the Cartesian displacements weighted by the diagonal matrix
M(i,i)=1/sqrt(m[i]) where m[i] is the mass of the displaced atom
Thus, these vectors are normalized but *not* orthogonal

                  0          1          2          3          4          5    
      0       0.000000   0.000000   0.000000   0.000000   0.000000   0.000000
      1       0.000000   0.000000   0.000000   0.000000   0.000000   0.000000
      2       0.000000   0.000000   0.000000   0.000000   0.000000   0.000000
      3       0.000000   0.000000   0.000000   0.000000   0.000000   0.000000
      4       0.000000   0.000000   0.000000   0.000000   0.000000   0.000000
      5       0.000000   0.000000   0.000000   0.000000   0.000000   0.000000
      6       0.000000   0.000000   0.000000   0.000000   0.000000   0.000000
      7       0.000000   0.000000   0.000000   0.000000   0.000000   0.000000
      8       0.000000   0.000000   0.000000   0.000000   0.000000   0.000000
      9       0.000000   0.000000   0.000000   0.000000   0.000000   0.000000
     10       0.000000   0.000000   0.000000   0.000000   0.000000   0.000000
     11       0.000000   0.000000   0.000000   0.000000   0.000000   0.000000
                  6          7          8          9         10         11    
      0      -0.000000  -0.000017  -0.080500   0.000002  -0.000045   0.086316
      1       0.000000   0.080499  -0.000017   0.000000   0.086317   0.000045
      2       0.123688  -0.000000  -0.000000   0.000000   0.000000   0.000000
      3      -0.000000  -0.000014  -0.065470   0.577332   0.000423  -0.813348
      4      -0.000000  -0.811209   0.000168  -0.000000   0.013704   0.000007
      5      -0.572917   0.000000  -0.000000  -0.000000  -0.000000   0.000000
      6       0.000000  -0.379492   0.592120  -0.288677   0.358218  -0.192857
      7      -0.000000  -0.153618   0.379642   0.500009  -0.606760   0.357793
      8      -0.572917   0.000000   0.000000  -0.000000   0.000000  -0.000000
      9       0.000000   0.379737   0.591962  -0.288677  -0.358018  -0.193230
     10       0.000000  -0.153775  -0.379579  -0.500009  -0.606388  -0.358424
     11      -0.572917  -0.000000   0.000000  -0.000000  -0.000000  -0.000000


-----------
IR SPECTRUM
-----------

 Mode    freq (cm**-1)   T**2         TX         TY         TZ
-------------------------------------------------------------------
   7:      1589.03   34.712350  (  0.001218  -5.891719   0.000000)
   8:      1589.06   34.692586  (  5.890041   0.001219   0.000000)
   9:      3675.08    0.000000  ( -0.000243  -0.000000  -0.000000)
  10:      3895.85   54.959008  (  0.003856  -7.413433  -0.000000)
  11:      3895.86   54.966730  ( -7.413954  -0.003856  -0.000000)

The first frequency considered to be a vibration is 7
The total number of vibrations considered is 5


--------------------------
THERMOCHEMISTRY AT 298.15K
--------------------------

Temperature         ... 298.15 K
Pressure            ... 1.00 atm
Total Mass          ... 17.03 AMU

Throughout the following assumptions are being made:
  (1) The electronic state is orbitally nondegenerate
  (2) There are no thermally accessible electronically excited states
  (3) Hindered rotations indicated by low frequency modes are not
      treated as such but are treated as vibrations and this may
      cause some error
  (4) All equations used are the standard statistical mechanics
      equations for an ideal gas
  (5) All vibrations are strictly harmonic

freq.    1589.03  E(vib)   ...       0.00 
freq.    1589.06  E(vib)   ...       0.00 
freq.    3675.08  E(vib)   ...       0.00 
freq.    3895.85  E(vib)   ...       0.00 
freq.    3895.86  E(vib)   ...       0.00 

------------
INNER ENERGY
------------

The inner energy is: U= E(el) + E(ZPE) + E(vib) + E(rot) + E(trans)
    E(el)   - is the total energy from the electronic structure calculation
              = E(kin-el) + E(nuc-el) + E(el-el) + E(nuc-nuc)
    E(ZPE)  - the the zero temperature vibrational energy from the frequency calculation
    E(vib)  - the the finite temperature correction to E(ZPE) due to population
              of excited vibrational states
    E(rot)  - is the rotational thermal energy
    E(trans)- is the translational thermal energy

Summary of contributions to the inner energy U:
Electronic energy                ...    -56.46635420 Eh
Zero point energy                ...      0.03336345 Eh      20.94 kcal/mol
Thermal vibrational correction   ...      0.00000677 Eh       0.00 kcal/mol
Thermal rotational correction    ...      0.00141627 Eh       0.89 kcal/mol
Thermal translational correction ...      0.00141627 Eh       0.89 kcal/mol
-----------------------------------------------------------------------
Total thermal energy                    -56.43015144 Eh


Summary of corrections to the electronic energy:
(perhaps to be used in another calculation)
Total thermal correction                  0.00283932 Eh       1.78 kcal/mol
Non-thermal (ZPE) correction              0.03336345 Eh      20.94 kcal/mol
-----------------------------------------------------------------------
Total correction                          0.03620276 Eh      22.72 kcal/mol


--------
ENTHALPY
--------

The enthalpy is H = U + kB*T
                kB is Boltzmann's constant
Total free energy                 ...    -56.43015144 Eh 
Thermal Enthalpy correction       ...      0.00094421 Eh       0.59 kcal/mol
-----------------------------------------------------------------------
Total Enthalpy                    ...    -56.42920723 Eh


Note: Rotational entropy computed according to Herzberg 
Infrared and Raman Spectra, Chapter V,1, Van Nostrand Reinhold, 1945 
Point Group:  D3h, Symmetry Number:   6  
Rotational constants in cm-1:    11.311586    11.311586     5.655793 

Vibrational entropy computed according to the QRRHO of S. Grimme
Chem.Eur.J. 2012 18 9955


-------
ENTROPY
-------

The entropy contributions are T*S = T*(S(el)+S(vib)+S(rot)+S(trans))
     S(el)   - electronic entropy
     S(vib)  - vibrational entropy
     S(rot)  - rotational entropy
     S(trans)- translational entropy
The entropies will be listed as mutliplied by the temperature to get
units of energy

Electronic entropy                ...      0.00000000 Eh      0.00 kcal/mol
Vibrational entropy               ...      0.00000766 Eh      0.00 kcal/mol
Rotational entropy                ...      0.00471066 Eh      2.96 kcal/mol
Translational entropy             ...      0.01636425 Eh     10.27 kcal/mol
-----------------------------------------------------------------------
Final entropy term                ...      0.02108257 Eh     13.23 kcal/mol

In case the symmetry of your molecule has not been determined correctly
or in case you have a reason to use a different symmetry number we print 
out the resulting rotational entropy values for sn=1,12 :
 --------------------------------------------------------
|  sn= 1 | S(rot)=       0.00640241 Eh      4.02 kcal/mol|
|  sn= 2 | S(rot)=       0.00574795 Eh      3.61 kcal/mol|
|  sn= 3 | S(rot)=       0.00536512 Eh      3.37 kcal/mol|
|  sn= 4 | S(rot)=       0.00509350 Eh      3.20 kcal/mol|
|  sn= 5 | S(rot)=       0.00488281 Eh      3.06 kcal/mol|
|  sn= 6 | S(rot)=       0.00471066 Eh      2.96 kcal/mol|
|  sn= 7 | S(rot)=       0.00456512 Eh      2.86 kcal/mol|
|  sn= 8 | S(rot)=       0.00443904 Eh      2.79 kcal/mol|
|  sn= 9 | S(rot)=       0.00432783 Eh      2.72 kcal/mol|
|  sn=10 | S(rot)=       0.00422835 Eh      2.65 kcal/mol|
|  sn=11 | S(rot)=       0.00413836 Eh      2.60 kcal/mol|
|  sn=12 | S(rot)=       0.00405621 Eh      2.55 kcal/mol|
 --------------------------------------------------------


-------------------
GIBBS FREE ENERGY
-------------------

The Gibbs free energy is G = H - T*S

Total enthalpy                    ...    -56.42920723 Eh 
Total entropy correction          ...     -0.02108257 Eh    -13.23 kcal/mol
-----------------------------------------------------------------------
Final Gibbs free energy         ...    -56.45028980 Eh

For completeness - the Gibbs free energy minus the electronic energy
G-E(el)                           ...      0.01606440 Eh     10.08 kcal/mol




------------------------------------------------------------------------------- 
                    Intrinsic Reaction Coordinate Calculation                  
------------------------------------------------------------------------------- 

System:
Nr. of atoms                        .... 4
Algorithm: SD (steepest descent step) plus correction
Settings:
Max. no of cycles        MaxIter    .... 1000
Direction                           .... Forward and backward
Initial displacement Hessian type   .... Read
Hessian Filename                    .... NH3‡.hess
Following Hessian mode              .... 0
Initial displacement type           .... Energy
  Initial displacement energy change.... 0.250 mEh
Coordinate system following type    .... Cartesian
Length of steepest descent step     .... 0.150 bohr
Do parabolic fit 
  if SD step is uphill              .... YES
Do Correction to SD step            .... YES
Scaling for length of correction
  compared to SD step               .... 0.333
Do parabolic fit to SD correction   .... YES
Only interpolate for parabolic fit  .... YES
Do update to length of
  SD step and correction            .... YES
Convergence Tolerances:
  Max. Gradient            TolMAXG  ....  1.0000e-03 Eh/bohr
  RMS Gradient             TolRMSG  ....  2.0000e-04 Eh/bohr
Storing full IRC trajectory in      .... NH3‡_IRC_Full_trj.xyz
Storing forward trajectory in       .... NH3‡_IRC_F_trj.xyz
Storing backward trajectory in      .... NH3‡_IRC_B_trj.xyz


 ...good, the file NH3‡.hess exists
Reading the hessian file           ...... done
Determining length of initial displacement:
  Requested energy change (quadratic behavior): 0.250 mEh
  Resulting scaling factor for initial displacement along normalized TS mode: 0.1228

         *************************************************************
         *                          FORWARD IRC                      *
         *************************************************************

Iteration    E(Eh)      dE(kcal/mol)  max(|G|)   RMS(G) 
Convergence thresholds                0.001000  0.000200            
    0       -56.466600   -0.154385    0.005655  0.001932
    1       -56.469344   -1.876111    0.015791  0.008651
    2       -56.471855   -3.451751    0.015534  0.005520
    3       -56.474164   -4.900639    0.006554  0.003722
    4       -56.474627   -5.191244    0.004283  0.002355
    5       -56.474793   -5.295345    0.002436  0.001395
    6       -56.474882   -5.351031    0.001132  0.000396
    7       -56.474887   -5.354258    0.000920  0.000364
    8       -56.474888   -5.355056    0.000575  0.000220
    9       -56.474889   -5.355463    0.000362  0.000149

                      ***********************HURRAY********************
                      ***            THE IRC HAS CONVERGED          ***
                      *************************************************


         *************************************************************
         *                          BACKWARD IRC                     *
         *************************************************************

Iteration    E(Eh)      dE(kcal/mol)  max(|G|)   RMS(G) 
Convergence thresholds                0.001000  0.000200            
    0       -56.466600   -0.154385    0.005655  0.001932
    1       -56.469344   -1.876110    0.015791  0.008651
    2       -56.471855   -3.451750    0.015534  0.005520
    3       -56.474164   -4.900639    0.006555  0.003722
    4       -56.474627   -5.191244    0.004290  0.002355
    5       -56.474793   -5.295344    0.002461  0.001395
    6       -56.474882   -5.351014    0.001138  0.000403
    7       -56.474886   -5.353950    0.000945  0.000450
    8       -56.474888   -5.354757    0.000557  0.000260
    9       -56.474888   -5.355217    0.000403  0.000172

                      ***********************HURRAY********************
                      ***            THE IRC HAS CONVERGED          ***
                      *************************************************


---------------------------------------------------------------
                       IRC PATH SUMMARY              
---------------------------------------------------------------
All gradients are in Eh/Bohr.

Step        E(Eh)      dE(kcal/mol)  max(|G|)   RMS(G) 
   1       -56.474888   -5.355217    0.000403  0.000172
   2       -56.474888   -5.354757    0.000557  0.000260
   3       -56.474886   -5.353950    0.000945  0.000450
   4       -56.474882   -5.351014    0.001138  0.000403
   5       -56.474793   -5.295344    0.002461  0.001395
   6       -56.474627   -5.191244    0.004290  0.002355
   7       -56.474164   -4.900639    0.006555  0.003722
   8       -56.471855   -3.451750    0.015534  0.005520
   9       -56.469344   -1.876110    0.015791  0.008651
  10       -56.466600   -0.154385    0.005655  0.001932
  11       -56.466354    0.000000    0.000053  0.000026 <= TS
  12       -56.466600   -0.154385    0.005655  0.001932
  13       -56.469344   -1.876111    0.015791  0.008651
  14       -56.471855   -3.451751    0.015534  0.005520
  15       -56.474164   -4.900639    0.006554  0.003722
  16       -56.474627   -5.191244    0.004283  0.002355
  17       -56.474793   -5.295345    0.002436  0.001395
  18       -56.474882   -5.351031    0.001132  0.000396
  19       -56.474887   -5.354258    0.000920  0.000364
  20       -56.474888   -5.355056    0.000575  0.000220
  21       -56.474889   -5.355463    0.000362  0.000149

Timings for individual modules:

Sum of individual times         ...     1381.786 sec (=  23.030 min)
GTO integral calculation        ...      172.942 sec (=   2.882 min)  12.5 %
SCF iterations                  ...      531.600 sec (=   8.860 min)  38.5 %
MP2 module                      ...      644.604 sec (=  10.743 min)  46.7 %
Geometry relaxation             ...        0.136 sec (=   0.002 min)   0.0 %
Analytical frequency calculation...       32.503 sec (=   0.542 min)   2.4 %
                             ****ORCA TERMINATED NORMALLY****
TOTAL RUN TIME: 0 days 0 hours 23 minutes 3 seconds 746 msec
