(SLURM) JOB ID:         140

                                 *****************
                                 * O   R   C   A *
                                 *****************

           --- An Ab Initio, DFT and Semiempirical electronic structure package ---

                  #######################################################
                  #                        -***-                        #
                  #          Department of theory and spectroscopy      #
                  #               Directorship: Frank Neese             #
                  #        Max Planck Institute fuer Kohlenforschung    #
                  #                Kaiser Wilhelm Platz 1               #
                  #                 D-45470 Muelheim/Ruhr               #
                  #                      Germany                        #
                  #                                                     #
                  #                  All rights reserved                #
                  #                        -***-                        #
                  #######################################################


                         Program Version 4.2.1 -  RELEASE  -


 With contributions from (in alphabetic order):
   Daniel Aravena         : Magnetic Suceptibility
   Michael Atanasov       : Ab Initio Ligand Field Theory (pilot matlab implementation)
   Alexander A. Auer      : GIAO ZORA, VPT2
   Ute Becker             : Parallelization
   Giovanni Bistoni       : ED, misc. LED, open-shell LED, HFLD
   Martin Brehm           : Molecular dynamics
   Dmytro Bykov           : SCF Hessian
   Vijay G. Chilkuri      : MRCI spin determinant printing, contributions to CSF-ICE
   Dipayan Datta          : RHF DLPNO-CCSD density
   Achintya Kumar Dutta   : EOM-CC, STEOM-CC
   Dmitry Ganyushin       : Spin-Orbit,Spin-Spin,Magnetic field MRCI
   Miquel Garcia          : C-PCM Hessian, Gaussian charge scheme
   Yang Guo               : DLPNO-NEVPT2, CIM, IAO-localization
   Andreas Hansen         : Spin unrestricted coupled pair/coupled cluster methods
   Benjamin Helmich-Paris : CASSCF linear response (MC-RPA)
   Lee Huntington         : MR-EOM, pCC
   Robert Izsak           : Overlap fitted RIJCOSX, COSX-SCS-MP3, EOM
   Christian Kollmar      : KDIIS, OOCD, Brueckner-CCSD(T), CCSD density
   Simone Kossmann        : Meta GGA functionals, TD-DFT gradient, OOMP2, MP2 Hessian
   Martin Krupicka        : AUTO-CI
   Lucas Lang             : DCDCAS
   Dagmar Lenk            : GEPOL surface, SMD
   Dimitrios Liakos       : Extrapolation schemes; Compound Job, initial MDCI parallelization
   Dimitrios Manganas     : Further ROCIS development; embedding schemes
   Dimitrios Pantazis     : SARC Basis sets
   Taras Petrenko         : DFT Hessian,TD-DFT gradient, ASA, ECA, R-Raman, ABS, FL, XAS/XES, NRVS
   Peter Pinski           : DLPNO-MP2, DLPNO-MP2 Gradient
   Christoph Reimann      : Effective Core Potentials
   Marius Retegan         : Local ZFS, SOC
   Christoph Riplinger    : Optimizer, TS searches, QM/MM, DLPNO-CCSD(T), (RO)-DLPNO pert. Triples
   Tobias Risthaus        : Range-separated hybrids, TD-DFT gradient, RPA, STAB
   Michael Roemelt        : Original ROCIS implementation
   Masaaki Saitow         : Open-shell DLPNO-CCSD energy and density
   Barbara Sandhoefer     : DKH picture change effects
   Avijit Sen             : IP-ROCIS
   Kantharuban Sivalingam : CASSCF convergence, NEVPT2, FIC-MRCI
   Bernardo de Souza      : ESD, SOC TD-DFT
   Georgi Stoychev        : AutoAux, RI-MP2 NMR
   Willem Van den Heuvel  : Paramagnetic NMR
   Boris Wezisla          : Elementary symmetry handling
   Frank Wennmohs         : Technical directorship


 We gratefully acknowledge several colleagues who have allowed us to
 interface, adapt or use parts of their codes:
   Stefan Grimme, W. Hujo, H. Kruse,             : VdW corrections, initial TS optimization,
                  C. Bannwarth                     DFT functionals, gCP, sTDA/sTD-DF
   Ed Valeev, F. Pavosevic, A. Kumar             : LibInt (2-el integral package), F12 methods
   Garnet Chan, S. Sharma, J. Yang, R. Olivares  : DMRG
   Ulf Ekstrom                                   : XCFun DFT Library
   Mihaly Kallay                                 : mrcc  (arbitrary order and MRCC methods)
   Andreas Klamt, Michael Diedenhofen            : otool_cosmo (COSMO solvation model)
   Jiri Pittner, Ondrej Demel                    : Mk-CCSD
   Frank Weinhold                                : gennbo (NPA and NBO analysis)
   Christopher J. Cramer and Donald G. Truhlar   : smd solvation model
   Lars Goerigk                                  : TD-DFT with DH, B97 family of functionals
   V. Asgeirsson, H. Jonsson                     : NEB implementation
   FAccTs GmbH                                   : IRC, NEB, NEB-TS, Multilevel, MM, QM/MM, CI optimization
   S Lehtola, MJT Oliveira, MAL Marques          : LibXC Library


 Your calculation uses the libint2 library for the computation of 2-el integrals
 For citations please refer to: http://libint.valeyev.net

 Your ORCA version has been built with support for libXC version: 4.2.3
 For citations please refer to: https://tddft.org/programs/libxc/

 This ORCA versions uses:
   CBLAS   interface :  Fast vector & matrix operations
   LAPACKE interface :  Fast linear algebra routines
   SCALAPACK package :  Parallel linear algebra routines




***************************************
The coordinates will be read from file: init.xyz
***************************************


Your calculation utilizes the SMD solvation module
Please cite in your paper:
A.V. Marenich, C.J. Cramer, D.G. Truhlar J. Phys. Chem. B, 113, (2009), 6378 

Your calculation utilizes the semiempirical GFN2-xTB method
Please cite in your paper:
C. Bannwarth, Ehlert S., S. Grimme,  J. Chem. Theory Comput., 15, (2019), 1652.
   

----- Orbital basis set information -----
Your calculation utilizes the basis: def2-SVP
   F. Weigend and R. Ahlrichs, Phys. Chem. Chem. Phys. 7, 3297 (2005).

================================================================================
                                        WARNINGS
                       Please study these warnings very carefully!
================================================================================

WARNING: Gradients needed for Numerical Frequencies
  ===> : Setting RunTyp to EnGrad

WARNING: The environment variable RSH_COMMAND is not set!
  ===> : All Displacements for the Numerical Hessian calculation
         will be started on localhost

WARNING: Found dipole moment calculation with XTB calculation
  ===> : Switching off dipole moment calculation


INFO   : the flag for use of LIBINT has been found!

================================================================================
                                       INPUT FILE
================================================================================
NAME = /tmp/slurm-scratch/freq.140/freq.inp
|  1> ! XTB2 NumFreq
|  2> %maxcore 1450
|  3> 
|  4> * xyzfile 0 1 init.xyz
|  5> 
|  6> %cpcm
|  7>  smd true
|  8>  smdsolvent "ch2cl2"
|  9> end
| 10> %pal nprocs 8 end
| 11> 
| 12>                          ****END OF INPUT****
================================================================================

                     *******************************
                     * Energy+Gradient Calculation *
                     *******************************

      -----------------------------------------------------------      
     |                   =====================                   |     
     |                           x T B                           |     
     |                   =====================                   |     
     |                         S. Grimme                         |     
     |          Mulliken Center for Theoretical Chemistry        |     
     |                    University of Bonn                     |     
      -----------------------------------------------------------      

   * xtb version 6.3.0 (preview) compiled by 'ehlert@majestix' on 2020-01-15

   This program is distributed in the hope that it will be useful,
   but WITHOUT ANY WARRANTY; without even the implied warranty of
   MERCHANTABILITY or FITNESS FOR A PARTICULAR PURPOSE.
   
   FOR NON-COMMERCIAL, ACADEMIA USE ONLY.
   
   Cite this work as:
   * S. Grimme, C. Bannwarth, P. Shushkov, J. Chem. Theory Comput., 2017,
     13, 1989-2009. DOI: 10.1021/acs.jctc.7b00118
   * C. Bannwarth, S. Ehlert and S. Grimme., J. Chem. Theory Comput., 2019,
     15, 1652-1671. DOI: 10.1021/acs.jctc.8b01176
   * P. Pracht, E. Caldeweyher, S. Ehlert, S. Grimme, ChemRxiv, 2019, preprint.
     DOI: 10.26434/chemrxiv.8326202.v1
   * S. Grimme, S. Spicher unpublished
   
   for DFT-D4:
   * E. Caldeweyher, C. Bannwarth and S. Grimme, J. Chem. Phys., 2017,
     147, 034112. DOI: 10.1063/1.4993215
   * E. Caldeweyher, S. Ehlert, A. Hansen, H. Neugebauer, S. Spicher,
     C. Bannwarth and S. Grimme, J. Chem. Phys., 2019, 150, 154122.
     DOI: 10.1063/1.5090222
   
   for sTDA-xTB:
   * S. Grimme and C. Bannwarth, J. Chem. Phys., 2016, 145, 054103.
     DOI: 10.1063/1.4959605
   
   in the mass-spec context:
   * V. Asgeirsson, C. Bauer and S. Grimme, Chem. Sci., 2017, 8, 4879.
     DOI: 10.1039/c7sc00601b
   
   for metadynamics refer to:
   * S. Grimme, J. Chem. Theory Comput., 2019, 155, 2847-2862
     DOI: 10.1021/acs.jctc.9b00143
   
   with help from (in alphabetical order)
   C. Bannwarth, F. Bohle, G. Brandenburg, E. Caldeweyher, M. Checinski,
   S. Dohm, S. Ehlert, S. Ehrlich, F. März, H. Neugebauer, J. Pisarek,
   P. Pracht, P. Shushkov, and S. Spicher.
   
 * started run on 2020/08/25 at 08:38:26.291     

           -------------------------------------------------
          |                Calculation Setup                |
           -------------------------------------------------

          program call               : /opt/orca/otool_xtb /tmp/slurm-scratch/freq.140/freq_XTB.xyz --grad -c 0 -u 0 -P 8 --namespace /tmp/slurm-scratch/freq.140/freq --gbsa CH2Cl2
          hostname                   : headnode-pbs
          calculation namespace      : /tmp/slurm-scratch/freq.140/freq
          coordinate file            : /tmp/slurm-scratch/freq.140/freq_XTB.xyz
          omp threads                :                     8
          number of atoms            :                    36
          number of electrons        :                    88
          charge                     :                     0
          spin                       :                   0.0
          first test random number   :      0.15320358193587


molecular fragmentation (1/2 indicates fragments):
111111111111111111212222222111111111
# atoms in fragment 1/2:    28     8
 fragment masses (1/2) :      162.25       53.04
CMA distance (Bohr)    :   5.190
constraining FC (au)   :  0.0500

########################################################################
# WARNING! Please study the warnings concerning your input carefully
#  - Process number higher than OMP_NUM_THREADS, I hope you know what you are doing.
########################################################################

           ------------------------------------------------- 
          |                 G F N 2 - x T B                 |
          | Geometry, Frequencies, Noncovalent interactions |
          |            JCTC 2019 parametrisation            |
           ------------------------------------------------- 
             k(s)              :                1.8500
             k(p)              :                2.2300
             k(d)              :                2.2300
             k(f)              :                2.0000
             kEN (H0ij)        :               -2.0000
             D4 a1             :                0.5200
             D4 a2             :                5.0000
             D4 s6             :                1.0000
             D4 s8             :                2.7000
             D4 s9             :                5.0000
             alphaj            :                2.0000

  Z AO/shell   Hii/eV     exponent
  1     Wed Apr 25 08:07:45 CEST 2018   EN: 2.200 GM2: 0.406  GM3: 0.0800  RAES: 1.40
     1s    -10.707211    1.230000
  6     Wed Apr 25 08:07:45 CEST 2018   EN: 2.550 GM2: 0.538  GM3: 0.1500  RAES: 3.00
     2s    -13.970922    2.096432
     2p    -10.063292    1.800000
  7     Wed Apr 25 08:07:45 CEST 2018   EN: 3.040 GM2: 0.461  GM3:-0.0640  RAES: 1.90
     2s    -16.686243    2.339881
     2p    -12.523956    2.014332
  8     Wed Apr 25 08:07:45 CEST 2018   EN: 3.440 GM2: 0.452  GM3:-0.0517  RAES: 1.80
     2s    -20.229985    2.439742
     2p    -15.503117    2.137023

 Solvent             : CH2Cl2
 Using internal parameter file: .param_gbsa2_CH2Cl2
 Gsolv ref. state (COSMO-RS): gsolv [1 M gas/solution]
 temperature (mdtemp)       :    298.150000000000     
 dielectric constant        :    8.93000000000000     
 rho                        :    1.33000000000000     
 mass                       :    84.9300000000000     
 surface tension            :    15.5689454083859     
 probe radius               :   0.719875900000000     
 Gshift (Eh)                :   4.440829173451759E-003
 c1                         :    1.49173776000000     
 soset                      :   0.000000000000000E+000
 HB correction              :  F
           ------------------------------------------------- 
          |        Self-Consistent Charge Iterations        |
           ------------------------------------------------- 

          ...................................................
          :                      SETUP                      :
          :.................................................:
          :  # basis functions                  81          :
          :  # atomic orbitals                  81          :
          :  # shells                           51          :
          :  # electrons                        88          :
          :  max. iterations                   250          :
          :  Hamiltonian                  GFN2-xTB          :
          :  GBSA solvation                   true          :
          :  PC potential                    false          :
          :  electronic temp.          300.0000000     K    :
          :  accuracy                    1.0000000          :
          :  -> integral cutoff          0.2500000E+02      :
          :  -> integral neglect         0.1000000E-07      :
          :  -> SCF convergence          0.1000000E-05 Eh   :
          :  -> wf. convergence          0.1000000E-03 e    :
          :  Broyden damping             0.4000000          :
          ...................................................
  Checking positiv definite overlap ...  done.
 

 iter      E             dE          RMSdq      gap      omega  full diag
   1    -49.8715183 -0.498715E+02  0.387E+00    3.52       0.0  T
   2    -49.9585791 -0.870608E-01  0.221E+00    2.97       1.0  T
   3    -49.9595915 -0.101243E-02  0.924E-01    2.13       1.0  T
   4    -49.9632622 -0.367072E-02  0.384E-01    2.30       1.0  T
   5    -49.9663157 -0.305347E-02  0.837E-02    2.27       1.0  T
   6    -49.9663639 -0.481829E-04  0.364E-02    2.31       1.0  T
   7    -49.9663715 -0.763686E-05  0.178E-02    2.32       1.0  T
   8    -49.9663747 -0.311838E-05  0.611E-03    2.32       2.7  T
   9    -49.9663748 -0.194783E-06  0.216E-03    2.32       7.7  T
  10    -49.9663749 -0.669166E-07  0.101E-03    2.32      16.5  T
  11    -49.9663749 -0.320838E-08  0.350E-04    2.32      47.6  T
  12    -49.9663749 -0.108535E-08  0.123E-04    2.32     135.3  T

   *** convergence criteria satisfied after 12 iterations ***

         #    Occupation            Energy/Eh            Energy/eV
      -------------------------------------------------------------
         1        2.0000           -0.6869931             -18.6940
       ...           ...                  ...                  ...
        38        2.0000           -0.4296890             -11.6924
        39        2.0000           -0.4247511             -11.5581
        40        2.0000           -0.4204755             -11.4417
        41        2.0000           -0.4184623             -11.3869
        42        2.0000           -0.4057810             -11.0419
        43        2.0000           -0.3887090             -10.5773
        44        2.0000           -0.3798245             -10.3356 (HOMO)
        45                         -0.2945442              -8.0150 (LUMO)
        46                         -0.2394725              -6.5164
        47                         -0.2086134              -5.6767
        48                         -0.1022042              -2.7811
        49                         -0.0219208              -0.5965
       ...                                ...                  ...
        81                          0.6430245              17.4976
      -------------------------------------------------------------
                  HL-Gap            0.0852803 Eh            2.3206 eV
             Fermi-level           -0.3371844 Eh           -9.1753 eV

 SCC (total)                   0 d,  0 h,  0 min,  0.030 sec
 SCC setup                      ...        0 min,  0.001 sec (  3.895%)
 Dispersion                     ...        0 min,  0.000 sec (  1.140%)
 integral evaluation            ...        0 min,  0.005 sec ( 17.992%)
 zeroth order Hamiltonian       ...        0 min,  0.000 sec (  0.030%)
 iterations                     ...        0 min,  0.015 sec ( 50.782%)
 molecular gradient             ...        0 min,  0.008 sec ( 25.070%)
 printout                       ...        0 min,  0.000 sec (  0.974%)

         :::::::::::::::::::::::::::::::::::::::::::::::::::::
         ::                     SUMMARY                     ::
         :::::::::::::::::::::::::::::::::::::::::::::::::::::
         :: total energy             -49.342674918483 Eh    ::
         :: total w/o Gsasa/hb       -49.324329316233 Eh    ::
         :: gradient norm              0.030310309603 Eh/a0 ::
         :: HOMO-LUMO gap              2.320594490134 eV    ::
         ::.................................................::
         :: SCC energy               -49.984720520833 Eh    ::
         :: -> isotropic ES            0.177238762431 Eh    ::
         :: -> anisotropic ES         -0.024568937918 Eh    ::
         :: -> anisotropic XC          0.022889176326 Eh    ::
         :: -> dispersion             -0.028591503314 Eh    ::
         :: -> Gsolv                  -0.040988401917 Eh    ::
         ::    -> Gborn               -0.022642799666 Eh    ::
         ::    -> Gsasa               -0.022786431424 Eh    ::
         ::    -> Ghb                  0.000000000000 Eh    ::
         ::    -> Gshift               0.004440829173 Eh    ::
         :: repulsion energy           0.641849993938 Eh    ::
         :: add. restraining           0.000000000000 Eh    ::
         :::::::::::::::::::::::::::::::::::::::::::::::::::::

           -------------------------------------------------
          |                Property Printout                |
           -------------------------------------------------

    * Orbital Energies and Occupations

         #    Occupation            Energy/Eh            Energy/eV
      -------------------------------------------------------------
         1        2.0000           -0.6869931             -18.6940
       ...           ...                  ...                  ...
        32        2.0000           -0.4669488             -12.7063
        33        2.0000           -0.4517664             -12.2932
        34        2.0000           -0.4495287             -12.2323
        35        2.0000           -0.4423175             -12.0361
        36        2.0000           -0.4381751             -11.9234
        37        2.0000           -0.4371386             -11.8951
        38        2.0000           -0.4296890             -11.6924
        39        2.0000           -0.4247511             -11.5581
        40        2.0000           -0.4204755             -11.4417
        41        2.0000           -0.4184623             -11.3869
        42        2.0000           -0.4057810             -11.0419
        43        2.0000           -0.3887090             -10.5773
        44        2.0000           -0.3798245             -10.3356 (HOMO)
        45                         -0.2945442              -8.0150 (LUMO)
        46                         -0.2394725              -6.5164
        47                         -0.2086134              -5.6767
        48                         -0.1022042              -2.7811
        49                         -0.0219208              -0.5965
        50                          0.0269946               0.7346
        51                          0.0753829               2.0513
        52                          0.0905807               2.4648
        53                          0.0978730               2.6633
        54                          0.1124331               3.0595
        55                          0.1187927               3.2325
       ...                                ...                  ...
        81                          0.6430245              17.4976
      -------------------------------------------------------------
                  HL-Gap            0.0852803 Eh            2.3206 eV
             Fermi-level           -0.3371844 Eh           -9.1753 eV

     #   Z        covCN         q      C6AA      α(0)
     1   6 C      2.971     0.015    27.679     8.630
     2   6 C      2.917    -0.027    28.665     8.780
     3   6 C      2.915    -0.024    28.596     8.769
     4   6 C      2.916    -0.019    28.472     8.750
     5   6 C      2.914    -0.024    28.607     8.771
     6   6 C      2.924    -0.025    28.624     8.774
     7   6 C      2.849     0.094    25.905     8.342
     8   1 H      0.926     0.061     2.191     2.315
     9   1 H      0.925     0.057     2.230     2.335
    10   1 H      0.925     0.055     2.261     2.351
    11   7 N      2.682    -0.056    22.331     7.018
    12   6 C      3.745    -0.015    20.920     6.524
    13   1 H      0.859     0.248     0.892     1.480
    14   6 C      3.802    -0.070    21.830     6.652
    15   1 H      0.925     0.072     2.060     2.245
    16   1 H      0.924     0.077     2.007     2.216
    17   1 H      0.924     0.055     2.255     2.349
    18   1 H      0.924     0.055     2.258     2.350
    19   8 O      1.424    -0.695    27.841     7.108
    20   1 H      0.926     0.104     1.747     2.067
    21   1 H      0.805     0.246     0.911     1.499
    22   8 O      1.277    -0.805    31.278     7.517
    23   1 H      1.072     0.325     0.635     1.245
    24   1 H      0.805     0.217     1.033     1.597
    25   8 O      1.597    -0.655    26.561     6.955
    26   1 H      0.801     0.322     0.659     1.275
    27   1 H      0.805     0.271     0.816     1.419
    28   6 C      3.800    -0.055    21.562     6.611
    29   1 H      0.924     0.037     2.493     2.469
    30   1 H      0.924     0.040     2.452     2.449
    31   1 H      0.925     0.055     2.255     2.348
    32   1 H      0.925     0.052     2.292     2.368
    33   6 C      3.750    -0.105    22.577     6.777
    34   1 H      0.924     0.039     2.466     2.456
    35   1 H      0.924     0.040     2.450     2.448
    36   1 H      0.924     0.038     2.478     2.462

 Mol. C6AA /au·bohr⁶  :      10848.641821
 Mol. C8AA /au·bohr⁸  :     239939.425928
 Mol. α(0) /au        :        159.717847


Wiberg/Mayer (AO) data.
largest (>0.10) Wiberg bond orders for each atom
          total WBO             WBO to atom ...
     1  C   3.985        C    6 1.367    C    2 1.362    C    7 1.097
     2  C   3.989        C    3 1.464    C    1 1.362    H    8 0.958    C    5 0.105
     3  C   3.991        C    2 1.464    C    4 1.424    H   32 0.969    C    6 0.104
     4  C   3.986        C    5 1.432    C    3 1.424    H   10 0.970
     5  C   3.990        C    6 1.456    C    4 1.432    H   31 0.969    C    2 0.105
     6  C   3.986        C    5 1.456    C    1 1.367    H    9 0.967    C    3 0.104
     7  C   3.927        N   11 1.568    C    1 1.097    H   20 0.948    O   19 0.200
     8  H   0.996        C    2 0.958
     9  H   0.997        C    6 0.967
    10  H   0.997        C    4 0.970
    11  N   3.629        C    7 1.568    C   12 0.982    H   13 0.852
    12  C   3.952        C   14 0.996    N   11 0.982    H   15 0.969    H   16 0.953
    13  H   0.939        N   11 0.852
    14  C   3.988        C   28 1.005    C   12 0.996    H   18 0.975    H   17 0.974
    15  H   0.995        C   12 0.969
    16  H   0.991        C   12 0.953
    17  H   0.997        C   14 0.974
    18  H   0.997        C   14 0.975
    19  O   1.873        H   21 0.935    H   23 0.483    C    7 0.200    O   22 0.110
    20  H   0.988        C    7 0.948
    21  H   0.940        O   19 0.935
    22  O   1.661        H   24 0.948    H   23 0.407    H   26 0.134    O   19 0.110
    23  H   0.894        O   19 0.483    O   22 0.407
    24  H   0.953        O   22 0.948
    25  O   1.822        H   27 0.920    H   26 0.758
    26  H   0.896        O   25 0.758    O   22 0.134
    27  H   0.926        O   25 0.920
    28  C   3.995        C   33 1.019    C   14 1.005    H   29 0.977    H   30 0.977
    29  H   0.999        C   28 0.977
    30  H   0.998        C   28 0.977
    31  H   0.996        C    5 0.969
    32  H   0.997        C    3 0.969
    33  C   3.995        C   28 1.019    H   36 0.987    H   35 0.987    H   34 0.987
    34  H   0.998        C   33 0.987
    35  H   0.998        C   33 0.987
    36  H   0.999        C   33 0.987

molecular dipole:
                 x           y           z       tot (Debye)
 q only:        0.333      -2.787       1.310
   full:        0.492      -2.209       1.235       6.553
molecular quadrupole (traceless):
                xx          xy          yy          xz          yz          zz
 q only:       10.895      43.397     -19.612      -7.668      24.564       8.716
  q+dip:        5.432      31.157     -14.876      -8.582      23.730       9.444
   full:        4.654      33.206     -13.534      -8.787      21.864       8.880

           -------------------------------------------------
          |                Property Printout                |
           -------------------------------------------------

    * Orbital Energies and Occupations

         #    Occupation            Energy/Eh            Energy/eV
      -------------------------------------------------------------
         1        2.0000           -0.6869931             -18.6940
       ...           ...                  ...                  ...
        32        2.0000           -0.4669488             -12.7063
        33        2.0000           -0.4517664             -12.2932
        34        2.0000           -0.4495287             -12.2323
        35        2.0000           -0.4423175             -12.0361
        36        2.0000           -0.4381751             -11.9234
        37        2.0000           -0.4371386             -11.8951
        38        2.0000           -0.4296890             -11.6924
        39        2.0000           -0.4247511             -11.5581
        40        2.0000           -0.4204755             -11.4417
        41        2.0000           -0.4184623             -11.3869
        42        2.0000           -0.4057810             -11.0419
        43        2.0000           -0.3887090             -10.5773
        44        2.0000           -0.3798245             -10.3356 (HOMO)
        45                         -0.2945442              -8.0150 (LUMO)
        46                         -0.2394725              -6.5164
        47                         -0.2086134              -5.6767
        48                         -0.1022042              -2.7811
        49                         -0.0219208              -0.5965
        50                          0.0269946               0.7346
        51                          0.0753829               2.0513
        52                          0.0905807               2.4648
        53                          0.0978730               2.6633
        54                          0.1124331               3.0595
        55                          0.1187927               3.2325
       ...                                ...                  ...
        81                          0.6430245              17.4976
      -------------------------------------------------------------
                  HL-Gap            0.0852803 Eh            2.3206 eV
             Fermi-level           -0.3371844 Eh           -9.1753 eV

     #   Z        covCN         q      C6AA      α(0)
     1   6 C      2.971     0.015    27.679     8.630
     2   6 C      2.917    -0.027    28.665     8.780
     3   6 C      2.915    -0.024    28.596     8.769
     4   6 C      2.916    -0.019    28.472     8.750
     5   6 C      2.914    -0.024    28.607     8.771
     6   6 C      2.924    -0.025    28.624     8.774
     7   6 C      2.849     0.094    25.905     8.342
     8   1 H      0.926     0.061     2.191     2.315
     9   1 H      0.925     0.057     2.230     2.335
    10   1 H      0.925     0.055     2.261     2.351
    11   7 N      2.682    -0.056    22.331     7.018
    12   6 C      3.745    -0.015    20.920     6.524
    13   1 H      0.859     0.248     0.892     1.480
    14   6 C      3.802    -0.070    21.830     6.652
    15   1 H      0.925     0.072     2.060     2.245
    16   1 H      0.924     0.077     2.007     2.216
    17   1 H      0.924     0.055     2.255     2.349
    18   1 H      0.924     0.055     2.258     2.350
    19   8 O      1.424    -0.695    27.841     7.108
    20   1 H      0.926     0.104     1.747     2.067
    21   1 H      0.805     0.246     0.911     1.499
    22   8 O      1.277    -0.805    31.278     7.517
    23   1 H      1.072     0.325     0.635     1.245
    24   1 H      0.805     0.217     1.033     1.597
    25   8 O      1.597    -0.655    26.561     6.955
    26   1 H      0.801     0.322     0.659     1.275
    27   1 H      0.805     0.271     0.816     1.419
    28   6 C      3.800    -0.055    21.562     6.611
    29   1 H      0.924     0.037     2.493     2.469
    30   1 H      0.924     0.040     2.452     2.449
    31   1 H      0.925     0.055     2.255     2.348
    32   1 H      0.925     0.052     2.292     2.368
    33   6 C      3.750    -0.105    22.577     6.777
    34   1 H      0.924     0.039     2.466     2.456
    35   1 H      0.924     0.040     2.450     2.448
    36   1 H      0.924     0.038     2.478     2.462

 Mol. C6AA /au·bohr⁶  :      10848.641821
 Mol. C8AA /au·bohr⁸  :     239939.425928
 Mol. α(0) /au        :        159.717847


Wiberg/Mayer (AO) data.
largest (>0.10) Wiberg bond orders for each atom
          total WBO             WBO to atom ...
     1  C   3.985        C    6 1.367    C    2 1.362    C    7 1.097
     2  C   3.989        C    3 1.464    C    1 1.362    H    8 0.958    C    5 0.105
     3  C   3.991        C    2 1.464    C    4 1.424    H   32 0.969    C    6 0.104
     4  C   3.986        C    5 1.432    C    3 1.424    H   10 0.970
     5  C   3.990        C    6 1.456    C    4 1.432    H   31 0.969    C    2 0.105
     6  C   3.986        C    5 1.456    C    1 1.367    H    9 0.967    C    3 0.104
     7  C   3.927        N   11 1.568    C    1 1.097    H   20 0.948    O   19 0.200
     8  H   0.996        C    2 0.958
     9  H   0.997        C    6 0.967
    10  H   0.997        C    4 0.970
    11  N   3.629        C    7 1.568    C   12 0.982    H   13 0.852
    12  C   3.952        C   14 0.996    N   11 0.982    H   15 0.969    H   16 0.953
    13  H   0.939        N   11 0.852
    14  C   3.988        C   28 1.005    C   12 0.996    H   18 0.975    H   17 0.974
    15  H   0.995        C   12 0.969
    16  H   0.991        C   12 0.953
    17  H   0.997        C   14 0.974
    18  H   0.997        C   14 0.975
    19  O   1.873        H   21 0.935    H   23 0.483    C    7 0.200    O   22 0.110
    20  H   0.988        C    7 0.948
    21  H   0.940        O   19 0.935
    22  O   1.661        H   24 0.948    H   23 0.407    H   26 0.134    O   19 0.110
    23  H   0.894        O   19 0.483    O   22 0.407
    24  H   0.953        O   22 0.948
    25  O   1.822        H   27 0.920    H   26 0.758
    26  H   0.896        O   25 0.758    O   22 0.134
    27  H   0.926        O   25 0.920
    28  C   3.995        C   33 1.019    C   14 1.005    H   29 0.977    H   30 0.977
    29  H   0.999        C   28 0.977
    30  H   0.998        C   28 0.977
    31  H   0.996        C    5 0.969
    32  H   0.997        C    3 0.969
    33  C   3.995        C   28 1.019    H   36 0.987    H   35 0.987    H   34 0.987
    34  H   0.998        C   33 0.987
    35  H   0.998        C   33 0.987
    36  H   0.999        C   33 0.987

molecular dipole:
                 x           y           z       tot (Debye)
 q only:        0.333      -2.787       1.310
   full:        0.492      -2.209       1.235       6.553
molecular quadrupole (traceless):
                xx          xy          yy          xz          yz          zz
 q only:       10.895      43.397     -19.612      -7.668      24.564       8.716
  q+dip:        5.432      31.157     -14.876      -8.582      23.730       9.444
   full:        4.654      33.206     -13.534      -8.787      21.864       8.880


           -------------------------------------------------
          | TOTAL ENERGY              -49.342674918483 Eh   |
          | GRADIENT NORM               0.030310309603 Eh/α |
          | HOMO-LUMO GAP               2.320594490134 eV   |
           -------------------------------------------------

------------------------------------------------------------------------
 * finished run on 2020/08/25 at 08:38:26.375     
------------------------------------------------------------------------
 total:
 * wall-time:     0 d,  0 h,  0 min,  0.084 sec
 *  cpu-time:     0 d,  0 h,  0 min,  0.613 sec
 * ratio c/w:     7.304 speedup
 SCF:
 * wall-time:     0 d,  0 h,  0 min,  0.031 sec
 *  cpu-time:     0 d,  0 h,  0 min,  0.244 sec
 * ratio c/w:     7.940 speedup


-------------------------   --------------------
FINAL SINGLE POINT ENERGY       -49.342674918480
-------------------------   --------------------


----------------------------------------------------------------------------
                           ORCA NUMERICAL FREQUENCIES
                              (8-process run)
----------------------------------------------------------------------------

Number of atoms                ... 36
Central differences            ... used
Number of displacements        ... 216
Numerical increment            ... 5.000e-03 bohr
IR-spectrum generation         ... on
Raman-spectrum generation      ... off
Surface Crossing Hessian       ... off
List of participating nodes    ...  /tmp/slurm-scratch/freq.140/freq.hostnames

The output will be reduced. Please look at the following files:
SCF program output             ... >/tmp/slurm-scratch/freq.140/freq.lastscf
Integral program output        ... >/tmp/slurm-scratch/freq.140/freq.lastint
Gradient program output        ... >/tmp/slurm-scratch/freq.140/freq.lastgrad
Dipole moment program output   ... >/tmp/slurm-scratch/freq.140/freq.lastmom
AutoCI program output          ... >/tmp/slurm-scratch/freq.140/freq.lastautoci


         <<< Energy and Gradient at the input geometry >>>

        <<< Energy and Gradient at displaced geometries >>>
             <<<Displacing   3/coordinate 2 (+)>>>
             <<<Displacing   1/coordinate 2 (+)>>>
             <<<Displacing   2/coordinate 1 (+)>>>
             <<<Displacing   2/coordinate 2 (+)>>>
             <<<Displacing   1/coordinate 3 (+)>>>
             <<<Displacing   1/coordinate 1 (+)>>>
             <<<Displacing   3/coordinate 1 (+)>>>
             <<<Displacing   2/coordinate 3 (+)>>>
             <<<Displacing   2/coordinate 1 (-)>>>
             <<<Displacing   1/coordinate 3 (-)>>>
             <<<Displacing   1/coordinate 2 (-)>>>
             <<<Displacing   1/coordinate 1 (-)>>>
             <<<Displacing   2/coordinate 2 (-)>>>
             <<<Displacing   3/coordinate 1 (-)>>>
             <<<Displacing   2/coordinate 3 (-)>>>
             <<<Displacing   3/coordinate 2 (-)>>>
             <<<Displacing   3/coordinate 3 (+)>>>
             <<<Displacing   4/coordinate 2 (+)>>>
             <<<Displacing   4/coordinate 1 (+)>>>
             <<<Displacing   4/coordinate 3 (+)>>>
             <<<Displacing   5/coordinate 2 (+)>>>
             <<<Displacing   5/coordinate 1 (+)>>>
             <<<Displacing   6/coordinate 1 (+)>>>
             <<<Displacing   5/coordinate 3 (+)>>>
             <<<Displacing   3/coordinate 3 (-)>>>
             <<<Displacing   4/coordinate 2 (-)>>>
             <<<Displacing   4/coordinate 3 (-)>>>
             <<<Displacing   4/coordinate 1 (-)>>>
             <<<Displacing   5/coordinate 2 (-)>>>
             <<<Displacing   5/coordinate 1 (-)>>>
             <<<Displacing   5/coordinate 3 (-)>>>
             <<<Displacing   6/coordinate 1 (-)>>>
             <<<Displacing   6/coordinate 2 (+)>>>
             <<<Displacing   6/coordinate 3 (+)>>>
             <<<Displacing   7/coordinate 1 (+)>>>
             <<<Displacing   7/coordinate 2 (+)>>>
             <<<Displacing   7/coordinate 3 (+)>>>
             <<<Displacing   8/coordinate 1 (+)>>>
             <<<Displacing   6/coordinate 2 (-)>>>
             <<<Displacing   8/coordinate 2 (+)>>>
             <<<Displacing   8/coordinate 3 (+)>>>
             <<<Displacing   6/coordinate 3 (-)>>>
             <<<Displacing   7/coordinate 2 (-)>>>
             <<<Displacing   7/coordinate 1 (-)>>>
             <<<Displacing   7/coordinate 3 (-)>>>
             <<<Displacing   8/coordinate 1 (-)>>>
             <<<Displacing   8/coordinate 3 (-)>>>
             <<<Displacing   8/coordinate 2 (-)>>>
             <<<Displacing   9/coordinate 1 (+)>>>
             <<<Displacing   9/coordinate 3 (+)>>>
             <<<Displacing   9/coordinate 2 (+)>>>
             <<<Displacing  10/coordinate 2 (+)>>>
             <<<Displacing  11/coordinate 1 (+)>>>
             <<<Displacing   9/coordinate 1 (-)>>>
             <<<Displacing  10/coordinate 1 (+)>>>
             <<<Displacing  10/coordinate 3 (+)>>>
             <<<Displacing  11/coordinate 2 (+)>>>
             <<<Displacing   9/coordinate 3 (-)>>>
             <<<Displacing   9/coordinate 2 (-)>>>
             <<<Displacing  10/coordinate 2 (-)>>>
             <<<Displacing  11/coordinate 1 (-)>>>
             <<<Displacing  10/coordinate 3 (-)>>>
             <<<Displacing  10/coordinate 1 (-)>>>
             <<<Displacing  11/coordinate 2 (-)>>>
             <<<Displacing  11/coordinate 3 (+)>>>
             <<<Displacing  12/coordinate 2 (+)>>>
             <<<Displacing  12/coordinate 1 (+)>>>
             <<<Displacing  12/coordinate 3 (+)>>>
             <<<Displacing  13/coordinate 1 (+)>>>
             <<<Displacing  11/coordinate 3 (-)>>>
             <<<Displacing  13/coordinate 2 (+)>>>
             <<<Displacing  14/coordinate 1 (+)>>>
             <<<Displacing  12/coordinate 2 (-)>>>
             <<<Displacing  12/coordinate 1 (-)>>>
             <<<Displacing  12/coordinate 3 (-)>>>
             <<<Displacing  13/coordinate 3 (+)>>>
             <<<Displacing  13/coordinate 1 (-)>>>
             <<<Displacing  13/coordinate 2 (-)>>>
             <<<Displacing  14/coordinate 1 (-)>>>
             <<<Displacing  13/coordinate 3 (-)>>>
             <<<Displacing  14/coordinate 3 (+)>>>
             <<<Displacing  14/coordinate 2 (+)>>>
             <<<Displacing  15/coordinate 1 (+)>>>
             <<<Displacing  16/coordinate 2 (+)>>>
             <<<Displacing  15/coordinate 2 (+)>>>
             <<<Displacing  14/coordinate 3 (-)>>>
             <<<Displacing  15/coordinate 1 (-)>>>
             <<<Displacing  14/coordinate 2 (-)>>>
             <<<Displacing  16/coordinate 2 (-)>>>
             <<<Displacing  16/coordinate 1 (+)>>>
             <<<Displacing  15/coordinate 2 (-)>>>
             <<<Displacing  15/coordinate 3 (+)>>>
             <<<Displacing  16/coordinate 3 (+)>>>
             <<<Displacing  16/coordinate 1 (-)>>>
             <<<Displacing  15/coordinate 3 (-)>>>
             <<<Displacing  16/coordinate 3 (-)>>>
             <<<Displacing  17/coordinate 2 (+)>>>
             <<<Displacing  17/coordinate 3 (+)>>>
             <<<Displacing  17/coordinate 1 (+)>>>
             <<<Displacing  18/coordinate 2 (+)>>>
             <<<Displacing  18/coordinate 1 (+)>>>
             <<<Displacing  17/coordinate 2 (-)>>>
             <<<Displacing  17/coordinate 1 (-)>>>
             <<<Displacing  17/coordinate 3 (-)>>>
             <<<Displacing  18/coordinate 3 (+)>>>
             <<<Displacing  18/coordinate 2 (-)>>>
             <<<Displacing  19/coordinate 1 (+)>>>
             <<<Displacing  18/coordinate 1 (-)>>>
             <<<Displacing  18/coordinate 3 (-)>>>
             <<<Displacing  19/coordinate 1 (-)>>>
             <<<Displacing  19/coordinate 2 (+)>>>
             <<<Displacing  19/coordinate 2 (-)>>>
             <<<Displacing  19/coordinate 3 (+)>>>
             <<<Displacing  20/coordinate 1 (+)>>>
             <<<Displacing  20/coordinate 2 (+)>>>
             <<<Displacing  21/coordinate 1 (+)>>>
             <<<Displacing  20/coordinate 3 (+)>>>
             <<<Displacing  19/coordinate 3 (-)>>>
             <<<Displacing  21/coordinate 2 (+)>>>
             <<<Displacing  20/coordinate 1 (-)>>>
             <<<Displacing  20/coordinate 2 (-)>>>
             <<<Displacing  21/coordinate 3 (+)>>>
             <<<Displacing  20/coordinate 3 (-)>>>
             <<<Displacing  21/coordinate 1 (-)>>>
             <<<Displacing  21/coordinate 2 (-)>>>
             <<<Displacing  21/coordinate 3 (-)>>>
             <<<Displacing  22/coordinate 1 (+)>>>
             <<<Displacing  22/coordinate 1 (-)>>>
             <<<Displacing  22/coordinate 3 (+)>>>
             <<<Displacing  23/coordinate 1 (+)>>>
             <<<Displacing  23/coordinate 2 (+)>>>
             <<<Displacing  23/coordinate 3 (+)>>>
             <<<Displacing  22/coordinate 3 (-)>>>
             <<<Displacing  24/coordinate 1 (+)>>>
             <<<Displacing  23/coordinate 1 (-)>>>
             <<<Displacing  23/coordinate 2 (-)>>>
             <<<Displacing  24/coordinate 2 (+)>>>
             <<<Displacing  22/coordinate 2 (+)>>>
             <<<Displacing  23/coordinate 3 (-)>>>
             <<<Displacing  24/coordinate 1 (-)>>>
             <<<Displacing  24/coordinate 2 (-)>>>
             <<<Displacing  22/coordinate 2 (-)>>>
             <<<Displacing  24/coordinate 3 (+)>>>
             <<<Displacing  24/coordinate 3 (-)>>>
             <<<Displacing  25/coordinate 2 (+)>>>
             <<<Displacing  25/coordinate 3 (+)>>>
             <<<Displacing  26/coordinate 2 (+)>>>
             <<<Displacing  25/coordinate 1 (+)>>>
             <<<Displacing  26/coordinate 1 (+)>>>
             <<<Displacing  25/coordinate 2 (-)>>>
             <<<Displacing  26/coordinate 3 (+)>>>
             <<<Displacing  25/coordinate 1 (-)>>>
             <<<Displacing  25/coordinate 3 (-)>>>
             <<<Displacing  26/coordinate 2 (-)>>>
             <<<Displacing  26/coordinate 1 (-)>>>
             <<<Displacing  27/coordinate 1 (+)>>>
             <<<Displacing  26/coordinate 3 (-)>>>
             <<<Displacing  27/coordinate 1 (-)>>>
             <<<Displacing  27/coordinate 2 (+)>>>
             <<<Displacing  27/coordinate 2 (-)>>>
             <<<Displacing  28/coordinate 2 (+)>>>
             <<<Displacing  27/coordinate 3 (+)>>>
             <<<Displacing  28/coordinate 1 (+)>>>
             <<<Displacing  28/coordinate 3 (+)>>>
             <<<Displacing  28/coordinate 2 (-)>>>
             <<<Displacing  27/coordinate 3 (-)>>>
             <<<Displacing  29/coordinate 1 (+)>>>
             <<<Displacing  29/coordinate 2 (+)>>>
             <<<Displacing  28/coordinate 1 (-)>>>
             <<<Displacing  28/coordinate 3 (-)>>>
             <<<Displacing  29/coordinate 3 (+)>>>
             <<<Displacing  29/coordinate 1 (-)>>>
             <<<Displacing  29/coordinate 2 (-)>>>
             <<<Displacing  29/coordinate 3 (-)>>>
             <<<Displacing  30/coordinate 1 (+)>>>
             <<<Displacing  30/coordinate 1 (-)>>>
             <<<Displacing  30/coordinate 3 (+)>>>
             <<<Displacing  30/coordinate 2 (+)>>>
             <<<Displacing  31/coordinate 1 (+)>>>
             <<<Displacing  30/coordinate 3 (-)>>>
             <<<Displacing  31/coordinate 2 (+)>>>
             <<<Displacing  30/coordinate 2 (-)>>>
             <<<Displacing  31/coordinate 3 (+)>>>
             <<<Displacing  31/coordinate 1 (-)>>>
             <<<Displacing  32/coordinate 1 (+)>>>
             <<<Displacing  32/coordinate 2 (+)>>>
             <<<Displacing  31/coordinate 2 (-)>>>
             <<<Displacing  31/coordinate 3 (-)>>>
             <<<Displacing  32/coordinate 2 (-)>>>
             <<<Displacing  32/coordinate 1 (-)>>>
             <<<Displacing  32/coordinate 3 (+)>>>
             <<<Displacing  32/coordinate 3 (-)>>>
             <<<Displacing  33/coordinate 1 (+)>>>
             <<<Displacing  33/coordinate 3 (+)>>>
             <<<Displacing  33/coordinate 2 (+)>>>
             <<<Displacing  33/coordinate 1 (-)>>>
             <<<Displacing  34/coordinate 1 (+)>>>
             <<<Displacing  34/coordinate 2 (+)>>>
             <<<Displacing  33/coordinate 3 (-)>>>
             <<<Displacing  34/coordinate 3 (+)>>>
             <<<Displacing  33/coordinate 2 (-)>>>
             <<<Displacing  35/coordinate 1 (+)>>>
             <<<Displacing  34/coordinate 1 (-)>>>
             <<<Displacing  34/coordinate 2 (-)>>>
             <<<Displacing  34/coordinate 3 (-)>>>
             <<<Displacing  35/coordinate 1 (-)>>>
             <<<Displacing  35/coordinate 2 (+)>>>
             <<<Displacing  35/coordinate 2 (-)>>>
             <<<Displacing  35/coordinate 3 (+)>>>
             <<<Displacing  36/coordinate 1 (+)>>>
             <<<Displacing  35/coordinate 3 (-)>>>
             <<<Displacing  36/coordinate 2 (+)>>>
             <<<Displacing  36/coordinate 1 (-)>>>
             <<<Displacing  36/coordinate 3 (+)>>>
             <<<Displacing  36/coordinate 2 (-)>>>
             <<<Displacing  36/coordinate 3 (-)>>>

-----------------------
VIBRATIONAL FREQUENCIES
-----------------------

Scaling factor for frequencies =  1.000000000 (already applied!)

   0:         0.00 cm**-1
   1:         0.00 cm**-1
   2:         0.00 cm**-1
   3:         0.00 cm**-1
   4:         0.00 cm**-1
   5:         0.00 cm**-1
   6:      -534.98 cm**-1 ***imaginary mode***
   7:        23.85 cm**-1
   8:        45.80 cm**-1
   9:        52.68 cm**-1
  10:        59.68 cm**-1
  11:        80.71 cm**-1
  12:        81.53 cm**-1
  13:        88.42 cm**-1
  14:       114.45 cm**-1
  15:       123.35 cm**-1
  16:       153.35 cm**-1
  17:       164.20 cm**-1
  18:       179.82 cm**-1
  19:       210.25 cm**-1
  20:       242.23 cm**-1
  21:       272.08 cm**-1
  22:       275.83 cm**-1
  23:       299.96 cm**-1
  24:       327.71 cm**-1
  25:       375.84 cm**-1
  26:       381.62 cm**-1
  27:       398.18 cm**-1
  28:       429.83 cm**-1
  29:       470.64 cm**-1
  30:       501.82 cm**-1
  31:       527.71 cm**-1
  32:       546.58 cm**-1
  33:       589.02 cm**-1
  34:       605.36 cm**-1
  35:       618.99 cm**-1
  36:       630.51 cm**-1
  37:       663.94 cm**-1
  38:       709.04 cm**-1
  39:       757.06 cm**-1
  40:       772.07 cm**-1
  41:       781.57 cm**-1
  42:       801.33 cm**-1
  43:       820.42 cm**-1
  44:       855.59 cm**-1
  45:       872.25 cm**-1
  46:       908.65 cm**-1
  47:       932.65 cm**-1
  48:       938.95 cm**-1
  49:       945.26 cm**-1
  50:       945.58 cm**-1
  51:       958.99 cm**-1
  52:       986.17 cm**-1
  53:      1032.24 cm**-1
  54:      1057.81 cm**-1
  55:      1070.35 cm**-1
  56:      1078.93 cm**-1
  57:      1104.35 cm**-1
  58:      1110.95 cm**-1
  59:      1125.60 cm**-1
  60:      1131.64 cm**-1
  61:      1179.23 cm**-1
  62:      1181.49 cm**-1
  63:      1204.64 cm**-1
  64:      1214.42 cm**-1
  65:      1249.96 cm**-1
  66:      1256.29 cm**-1
  67:      1274.61 cm**-1
  68:      1277.38 cm**-1
  69:      1286.34 cm**-1
  70:      1293.93 cm**-1
  71:      1305.94 cm**-1
  72:      1318.96 cm**-1
  73:      1338.66 cm**-1
  74:      1369.55 cm**-1
  75:      1420.28 cm**-1
  76:      1428.47 cm**-1
  77:      1450.42 cm**-1
  78:      1453.76 cm**-1
  79:      1482.46 cm**-1
  80:      1495.73 cm**-1
  81:      1503.98 cm**-1
  82:      1506.81 cm**-1
  83:      1511.01 cm**-1
  84:      1540.42 cm**-1
  85:      1562.11 cm**-1
  86:      1565.81 cm**-1
  87:      1605.19 cm**-1
  88:      2424.95 cm**-1
  89:      2946.95 cm**-1
  90:      2962.76 cm**-1
  91:      2969.65 cm**-1
  92:      2975.06 cm**-1
  93:      2980.64 cm**-1
  94:      2982.78 cm**-1
  95:      2989.40 cm**-1
  96:      3000.98 cm**-1
  97:      3015.94 cm**-1
  98:      3060.30 cm**-1
  99:      3062.82 cm**-1
 100:      3069.89 cm**-1
 101:      3077.82 cm**-1
 102:      3085.85 cm**-1
 103:      3091.74 cm**-1
 104:      3116.38 cm**-1
 105:      3599.87 cm**-1
 106:      3603.00 cm**-1
 107:      3618.01 cm**-1


------------
NORMAL MODES
------------

These modes are the cartesian displacements weighted by the diagonal matrix
M(i,i)=1/sqrt(m[i]) where m[i] is the mass of the displaced atom
Thus, these vectors are normalized but *not* orthogonal

                  0          1          2          3          4          5    
      0       0.000000   0.000000   0.000000   0.000000   0.000000   0.000000
      1       0.000000   0.000000   0.000000   0.000000   0.000000   0.000000
      2       0.000000   0.000000   0.000000   0.000000   0.000000   0.000000
      3       0.000000   0.000000   0.000000   0.000000   0.000000   0.000000
      4       0.000000   0.000000   0.000000   0.000000   0.000000   0.000000
      5       0.000000   0.000000   0.000000   0.000000   0.000000   0.000000
      6       0.000000   0.000000   0.000000   0.000000   0.000000   0.000000
      7       0.000000   0.000000   0.000000   0.000000   0.000000   0.000000
      8       0.000000   0.000000   0.000000   0.000000   0.000000   0.000000
      9       0.000000   0.000000   0.000000   0.000000   0.000000   0.000000
     10       0.000000   0.000000   0.000000   0.000000   0.000000   0.000000
     11       0.000000   0.000000   0.000000   0.000000   0.000000   0.000000
     12       0.000000   0.000000   0.000000   0.000000   0.000000   0.000000
     13       0.000000   0.000000   0.000000   0.000000   0.000000   0.000000
     14       0.000000   0.000000   0.000000   0.000000   0.000000   0.000000
     15       0.000000   0.000000   0.000000   0.000000   0.000000   0.000000
     16       0.000000   0.000000   0.000000   0.000000   0.000000   0.000000
     17       0.000000   0.000000   0.000000   0.000000   0.000000   0.000000
     18       0.000000   0.000000   0.000000   0.000000   0.000000   0.000000
     19       0.000000   0.000000   0.000000   0.000000   0.000000   0.000000
     20       0.000000   0.000000   0.000000   0.000000   0.000000   0.000000
     21       0.000000   0.000000   0.000000   0.000000   0.000000   0.000000
     22       0.000000   0.000000   0.000000   0.000000   0.000000   0.000000
     23       0.000000   0.000000   0.000000   0.000000   0.000000   0.000000
     24       0.000000   0.000000   0.000000   0.000000   0.000000   0.000000
     25       0.000000   0.000000   0.000000   0.000000   0.000000   0.000000
     26       0.000000   0.000000   0.000000   0.000000   0.000000   0.000000
     27       0.000000   0.000000   0.000000   0.000000   0.000000   0.000000
     28       0.000000   0.000000   0.000000   0.000000   0.000000   0.000000
     29       0.000000   0.000000   0.000000   0.000000   0.000000   0.000000
     30       0.000000   0.000000   0.000000   0.000000   0.000000   0.000000
     31       0.000000   0.000000   0.000000   0.000000   0.000000   0.000000
     32       0.000000   0.000000   0.000000   0.000000   0.000000   0.000000
     33       0.000000   0.000000   0.000000   0.000000   0.000000   0.000000
     34       0.000000   0.000000   0.000000   0.000000   0.000000   0.000000
     35       0.000000   0.000000   0.000000   0.000000   0.000000   0.000000
     36       0.000000   0.000000   0.000000   0.000000   0.000000   0.000000
     37       0.000000   0.000000   0.000000   0.000000   0.000000   0.000000
     38       0.000000   0.000000   0.000000   0.000000   0.000000   0.000000
     39       0.000000   0.000000   0.000000   0.000000   0.000000   0.000000
     40       0.000000   0.000000   0.000000   0.000000   0.000000   0.000000
     41       0.000000   0.000000   0.000000   0.000000   0.000000   0.000000
     42       0.000000   0.000000   0.000000   0.000000   0.000000   0.000000
     43       0.000000   0.000000   0.000000   0.000000   0.000000   0.000000
     44       0.000000   0.000000   0.000000   0.000000   0.000000   0.000000
     45       0.000000   0.000000   0.000000   0.000000   0.000000   0.000000
     46       0.000000   0.000000   0.000000   0.000000   0.000000   0.000000
     47       0.000000   0.000000   0.000000   0.000000   0.000000   0.000000
     48       0.000000   0.000000   0.000000   0.000000   0.000000   0.000000
     49       0.000000   0.000000   0.000000   0.000000   0.000000   0.000000
     50       0.000000   0.000000   0.000000   0.000000   0.000000   0.000000
     51       0.000000   0.000000   0.000000   0.000000   0.000000   0.000000
     52       0.000000   0.000000   0.000000   0.000000   0.000000   0.000000
     53       0.000000   0.000000   0.000000   0.000000   0.000000   0.000000
     54       0.000000   0.000000   0.000000   0.000000   0.000000   0.000000
     55       0.000000   0.000000   0.000000   0.000000   0.000000   0.000000
     56       0.000000   0.000000   0.000000   0.000000   0.000000   0.000000
     57       0.000000   0.000000   0.000000   0.000000   0.000000   0.000000
     58       0.000000   0.000000   0.000000   0.000000   0.000000   0.000000
     59       0.000000   0.000000   0.000000   0.000000   0.000000   0.000000
     60       0.000000   0.000000   0.000000   0.000000   0.000000   0.000000
     61       0.000000   0.000000   0.000000   0.000000   0.000000   0.000000
     62       0.000000   0.000000   0.000000   0.000000   0.000000   0.000000
     63       0.000000   0.000000   0.000000   0.000000   0.000000   0.000000
     64       0.000000   0.000000   0.000000   0.000000   0.000000   0.000000
     65       0.000000   0.000000   0.000000   0.000000   0.000000   0.000000
     66       0.000000   0.000000   0.000000   0.000000   0.000000   0.000000
     67       0.000000   0.000000   0.000000   0.000000   0.000000   0.000000
     68       0.000000   0.000000   0.000000   0.000000   0.000000   0.000000
     69       0.000000   0.000000   0.000000   0.000000   0.000000   0.000000
     70       0.000000   0.000000   0.000000   0.000000   0.000000   0.000000
     71       0.000000   0.000000   0.000000   0.000000   0.000000   0.000000
     72       0.000000   0.000000   0.000000   0.000000   0.000000   0.000000
     73       0.000000   0.000000   0.000000   0.000000   0.000000   0.000000
     74       0.000000   0.000000   0.000000   0.000000   0.000000   0.000000
     75       0.000000   0.000000   0.000000   0.000000   0.000000   0.000000
     76       0.000000   0.000000   0.000000   0.000000   0.000000   0.000000
     77       0.000000   0.000000   0.000000   0.000000   0.000000   0.000000
     78       0.000000   0.000000   0.000000   0.000000   0.000000   0.000000
     79       0.000000   0.000000   0.000000   0.000000   0.000000   0.000000
     80       0.000000   0.000000   0.000000   0.000000   0.000000   0.000000
     81       0.000000   0.000000   0.000000   0.000000   0.000000   0.000000
     82       0.000000   0.000000   0.000000   0.000000   0.000000   0.000000
     83       0.000000   0.000000   0.000000   0.000000   0.000000   0.000000
     84       0.000000   0.000000   0.000000   0.000000   0.000000   0.000000
     85       0.000000   0.000000   0.000000   0.000000   0.000000   0.000000
     86       0.000000   0.000000   0.000000   0.000000   0.000000   0.000000
     87       0.000000   0.000000   0.000000   0.000000   0.000000   0.000000
     88       0.000000   0.000000   0.000000   0.000000   0.000000   0.000000
     89       0.000000   0.000000   0.000000   0.000000   0.000000   0.000000
     90       0.000000   0.000000   0.000000   0.000000   0.000000   0.000000
     91       0.000000   0.000000   0.000000   0.000000   0.000000   0.000000
     92       0.000000   0.000000   0.000000   0.000000   0.000000   0.000000
     93       0.000000   0.000000   0.000000   0.000000   0.000000   0.000000
     94       0.000000   0.000000   0.000000   0.000000   0.000000   0.000000
     95       0.000000   0.000000   0.000000   0.000000   0.000000   0.000000
     96       0.000000   0.000000   0.000000   0.000000   0.000000   0.000000
     97       0.000000   0.000000   0.000000   0.000000   0.000000   0.000000
     98       0.000000   0.000000   0.000000   0.000000   0.000000   0.000000
     99       0.000000   0.000000   0.000000   0.000000   0.000000   0.000000
    100       0.000000   0.000000   0.000000   0.000000   0.000000   0.000000
    101       0.000000   0.000000   0.000000   0.000000   0.000000   0.000000
    102       0.000000   0.000000   0.000000   0.000000   0.000000   0.000000
    103       0.000000   0.000000   0.000000   0.000000   0.000000   0.000000
    104       0.000000   0.000000   0.000000   0.000000   0.000000   0.000000
    105       0.000000   0.000000   0.000000   0.000000   0.000000   0.000000
    106       0.000000   0.000000   0.000000   0.000000   0.000000   0.000000
    107       0.000000   0.000000   0.000000   0.000000   0.000000   0.000000
                  6          7          8          9         10         11    
      0      -0.013636  -0.058300   0.021259  -0.012313   0.025928  -0.009358
      1      -0.021401  -0.008969  -0.000432  -0.008257   0.040018   0.005255
      2       0.013017  -0.009985   0.020518   0.019971  -0.061662  -0.032408
      3      -0.006702  -0.034573   0.039899  -0.096981  -0.027550  -0.055533
      4      -0.000291  -0.023997  -0.023946  -0.188298  -0.017294  -0.001859
      5       0.006778   0.012515   0.047214   0.113079  -0.045549  -0.047950
      6      -0.000767  -0.015731   0.041222  -0.097827  -0.093630  -0.097932
      7       0.005572  -0.051697  -0.093572  -0.179011  -0.098682   0.012574
      8      -0.000527   0.004982   0.060960   0.111756   0.017365  -0.022427
      9      -0.000535  -0.019213   0.023347  -0.012543  -0.107551  -0.092823
     10      -0.000117  -0.064704  -0.139659   0.010410  -0.124424   0.032790
     11      -0.002464  -0.024438   0.047251   0.019597   0.063405   0.020219
     12       0.001477  -0.043292   0.004719   0.072682  -0.053423  -0.047254
     13       0.000855  -0.052167  -0.115384   0.191823  -0.064213   0.039737
     14      -0.004394  -0.045494   0.020271  -0.072618   0.045738   0.037345
     15       0.000643  -0.062986   0.003045   0.070926   0.011899  -0.005379
     16      -0.004318  -0.025923  -0.047673   0.179476   0.015834   0.025255
     17      -0.001547  -0.037531   0.007112  -0.068432  -0.015951   0.011222
     18      -0.058300  -0.080093   0.009631  -0.003202   0.072240   0.021863
     19      -0.128968   0.023738   0.057376  -0.024045   0.078548  -0.000271
     20       0.094341  -0.004015   0.014577   0.018960  -0.103053  -0.050864
     21      -0.005046  -0.032621   0.053017  -0.171348  -0.015812  -0.058981
     22       0.004503  -0.015783   0.010372  -0.342527   0.003523  -0.016343
     23      -0.001407   0.038475   0.057513   0.198683  -0.080754  -0.075848
     24      -0.004332  -0.080840  -0.013260   0.134792   0.050674   0.030028
     25      -0.011030  -0.016319  -0.029821   0.315294   0.056711   0.029860
     26       0.002755  -0.053217  -0.013497  -0.136984  -0.027117   0.024853
     27      -0.003081  -0.003656   0.024165  -0.014353  -0.159308  -0.123793
     28      -0.002481  -0.085273  -0.193061   0.015283  -0.189304   0.042280
     29      -0.000646  -0.030702   0.058052   0.019785   0.112722   0.039436
     30      -0.001123  -0.076575   0.011436  -0.003327   0.070862   0.024798
     31       0.016963   0.085636   0.082494  -0.029079   0.035679   0.025634
     32       0.000940   0.004381   0.032535   0.001739  -0.115742  -0.057896
     33       0.006379  -0.104165  -0.017212   0.013394   0.064554  -0.009295
     34      -0.002757   0.099053   0.122470  -0.052546  -0.038591   0.062100
     35       0.004881   0.018237   0.041499  -0.002712  -0.089011  -0.043412
     36      -0.025679  -0.040745   0.025775  -0.006451   0.041438   0.041665
     37       0.060241   0.114713   0.060834  -0.002334   0.017404  -0.017964
     38      -0.016246   0.006738   0.059396  -0.022626  -0.120805  -0.014845
     39       0.000465   0.029279   0.066434  -0.036376   0.035017   0.113591
     40       0.000235  -0.084318   0.007819   0.017063   0.043924  -0.101621
     41       0.003021   0.000381   0.027671   0.010464   0.036688  -0.046521
     42       0.001258  -0.086115  -0.015613   0.010684   0.040527  -0.003004
     43       0.001397   0.251407   0.234319  -0.120971  -0.143777   0.220923
     44      -0.003138  -0.065260  -0.030461   0.039735  -0.042019  -0.141494
     45       0.008404  -0.251955  -0.111314   0.069684   0.097960  -0.150403
     46       0.011012   0.094010   0.132393  -0.058480  -0.069813   0.069746
     47       0.033847   0.128793   0.140642  -0.061759  -0.184284   0.087922
     48      -0.001127  -0.016093   0.061990  -0.029585   0.082209   0.196402
     49       0.002512  -0.214878  -0.090609   0.075257   0.151080  -0.297381
     50       0.000345   0.045760   0.086134  -0.020607   0.007898   0.145504
     51      -0.003853   0.168958   0.154778  -0.087806   0.011649   0.249553
     52      -0.002915  -0.057332   0.007218   0.016437   0.074269  -0.156785
     53       0.000384  -0.064215  -0.051710   0.054621   0.124164  -0.287803
     54       0.031295  -0.017880   0.024645   0.010962   0.047256   0.091513
     55       0.108868  -0.010816   0.086379  -0.041577   0.132769  -0.016822
     56      -0.071154  -0.011454   0.035222  -0.005040  -0.012182  -0.082926
     57      -0.021404  -0.113421  -0.006628   0.008115   0.102982   0.027356
     58      -0.013753  -0.001659   0.083083  -0.026680   0.107518   0.007820
     59       0.024736  -0.006151  -0.014121   0.028207  -0.105365  -0.051790
     60       0.016501   0.027186  -0.068455   0.007514   0.046862   0.075994
     61       0.167129  -0.067421   0.194096  -0.033107   0.113929  -0.013851
     62      -0.075443  -0.052857   0.127579  -0.004943   0.002946  -0.056800
     63      -0.067406   0.145637  -0.228610   0.029398   0.040540   0.025620
     64      -0.010336   0.162044  -0.060133   0.021673   0.091811  -0.140704
     65       0.057487   0.043313  -0.327844  -0.106032   0.068193   0.005101
     66       0.657479   0.066039  -0.107211   0.017153   0.045995   0.043517
     67      -0.482217   0.070087   0.018731  -0.008724   0.110552  -0.063705
     68      -0.268695   0.016223  -0.154041  -0.058230   0.030503  -0.033063
     69      -0.214899   0.130701  -0.222844   0.011541   0.063560   0.021833
     70       0.014233   0.162565  -0.200649  -0.039798   0.148765  -0.108718
     71       0.144996   0.051133  -0.386987  -0.121590   0.078992   0.020053
     72       0.043452   0.099893  -0.036598   0.098753  -0.056757   0.060713
     73       0.007995   0.203285   0.063063   0.052382  -0.057673  -0.008264
     74      -0.046436   0.016600  -0.017635  -0.010213  -0.151536   0.163179
     75       0.187600   0.133095  -0.126239   0.079593  -0.017664   0.029536
     76       0.018008   0.182825   0.021372   0.033724  -0.006762  -0.042551
     77      -0.194819   0.026856  -0.130439  -0.044980  -0.074831   0.118177
     78       0.109813   0.124479  -0.003914   0.124686  -0.099572   0.061327
     79       0.055564   0.197197   0.153317   0.080975  -0.119810   0.041493
     80      -0.072205   0.024054  -0.071793  -0.025058  -0.117102   0.130877
     81       0.001480   0.035602   0.036421  -0.025796  -0.026599  -0.069223
     82       0.001488  -0.125993   0.030516   0.005864  -0.059085   0.084708
     83       0.000482   0.006266   0.043259   0.005775   0.105342   0.033662
     84       0.001751  -0.042289  -0.012539  -0.000773  -0.037338  -0.147086
     85       0.002008  -0.146142   0.035201   0.003668  -0.093093   0.146572
     86       0.001836   0.029411   0.096576  -0.021090   0.038819   0.240283
     87       0.000514   0.061007   0.027917  -0.024832  -0.068529  -0.179378
     88       0.000601  -0.062143   0.087333  -0.024803  -0.135205   0.215861
     89       0.000996  -0.011115   0.001978   0.025054   0.116692  -0.136328
     90       0.002263  -0.046472  -0.009058   0.136695  -0.063533  -0.043104
     91       0.005192  -0.063398  -0.150013   0.334528  -0.082840   0.054958
     92      -0.003410  -0.067624   0.010104  -0.143142   0.081589   0.071288
     93       0.003400   0.001642   0.056644  -0.167454  -0.134448  -0.134766
     94       0.010221  -0.062914  -0.112438  -0.320890  -0.143706   0.006726
     95      -0.002593   0.021801   0.082548   0.184280   0.031296  -0.035931
     96       0.001258   0.108060   0.080079  -0.048132  -0.019448  -0.010214
     97       0.001039  -0.219595  -0.024976   0.035957  -0.020355   0.020960
     98       0.001194   0.005033   0.044729   0.010176   0.248230   0.070997
     99       0.001897   0.113843   0.066385  -0.044716  -0.074400  -0.106550
    100       0.002469  -0.248978  -0.021330   0.034320  -0.081337   0.100791
    101       0.000807   0.007967   0.052814   0.008327   0.297811   0.115524
    102       0.000405   0.180603   0.125522  -0.070867  -0.006954   0.058068
    103       0.000818  -0.200092  -0.023156   0.034808   0.005352  -0.012445
    104       0.000920  -0.010761   0.010041   0.026959   0.298790  -0.067143
    105       0.000322   0.081716   0.080108  -0.044892   0.029132   0.061035
    106       0.001398  -0.277493  -0.070651   0.060404   0.042847  -0.072443
    107       0.000181   0.017008   0.072864  -0.001951   0.253054   0.192621
                 12         13         14         15         16         17    
      0       0.000193   0.024411   0.059552  -0.010552  -0.005146   0.045822
      1      -0.021763   0.001769   0.095068   0.019346  -0.129918   0.005202
      2       0.027634  -0.001181  -0.006997   0.002006   0.019173  -0.072799
      3       0.009755   0.018483   0.044651   0.001774  -0.041870  -0.005649
      4      -0.033237   0.040073   0.053548   0.007560  -0.110867   0.005335
      5       0.040587  -0.032722   0.018279   0.016597  -0.012093  -0.097309
      6       0.036302  -0.007378  -0.006252   0.014375  -0.044371  -0.074038
      7      -0.011216   0.039916  -0.060179  -0.011378   0.008835  -0.005550
      8       0.017866  -0.014632   0.077970   0.012161  -0.037650  -0.051585
      9       0.054759  -0.029394  -0.033117   0.013148  -0.006239  -0.081997
     10       0.026418  -0.003897  -0.120030  -0.018099   0.103523  -0.011900
     11      -0.019643   0.037159   0.109113  -0.007375  -0.028803   0.011520
     12       0.045565  -0.023249   0.002648   0.001172   0.010346  -0.014550
     13       0.038695  -0.041724  -0.035110  -0.004774   0.037390   0.024828
     14      -0.033107   0.068123   0.064239  -0.023086   0.028088   0.017220
     15       0.017190   0.005881   0.049592  -0.010973   0.009032   0.050465
     16       0.013375  -0.034681   0.071679   0.013940  -0.085254   0.031838
     17      -0.008323   0.046140   0.008678  -0.018094   0.052427  -0.030869
     18      -0.014924   0.038662   0.037247  -0.017742   0.013040   0.026021
     19      -0.022303  -0.014075   0.053006   0.025221  -0.089393   0.000934
     20       0.036679  -0.009315   0.014372   0.006952  -0.005820  -0.057884
     21      -0.002802   0.035926   0.062770   0.001723  -0.064166   0.005706
     22      -0.055188   0.071817   0.092702   0.010519  -0.164403   0.020870
     23       0.068115  -0.076397   0.001565   0.031285  -0.020517  -0.144596
     24       0.009720   0.012439   0.070829  -0.021425   0.029682   0.095700
     25       0.023431  -0.064201   0.115063   0.023836  -0.123561   0.049273
     26      -0.019264   0.070819  -0.013138  -0.030291   0.090144  -0.021776
     27       0.075597  -0.050385  -0.079432   0.021627   0.005881  -0.133649
     28       0.046625  -0.007779  -0.224796  -0.033067   0.216972  -0.036282
     29      -0.038284   0.052430   0.163151  -0.009991  -0.061304   0.052143
     30      -0.013541   0.028404   0.029154  -0.016759   0.023714   0.015085
     31      -0.004328  -0.127830   0.005307   0.032850   0.013689  -0.044412
     32       0.041579   0.015009   0.077907   0.001652  -0.013512   0.087453
     33      -0.028951   0.045417   0.022112  -0.007657  -0.004166  -0.146017
     34       0.038938  -0.145566   0.009676   0.006907   0.208497   0.100431
     35       0.039374   0.006146   0.084535   0.002573  -0.040198   0.158582
     36      -0.013384   0.015022   0.039760  -0.020858   0.059061   0.080509
     37       0.009411  -0.135481   0.025693   0.027702   0.007655  -0.111846
     38       0.032897   0.014064   0.067804   0.001416   0.018910   0.190617
     39       0.084595   0.069875   0.023948   0.086448   0.068058  -0.078208
     40      -0.128547  -0.190741   0.002190  -0.126640   0.119492  -0.000906
     41      -0.010964  -0.027993   0.054111  -0.023341  -0.057924   0.135900
     42      -0.009761   0.068172   0.024278   0.027313  -0.031376  -0.229817
     43       0.207357  -0.104809   0.027010   0.112423   0.353107   0.250057
     44      -0.052981   0.000679   0.075340  -0.034211  -0.160141  -0.019631
     45      -0.164321   0.011658   0.021638  -0.115442  -0.063203  -0.251053
     46       0.051779  -0.150971   0.015441  -0.008782   0.271647   0.158060
     47       0.177955   0.019926   0.096735   0.056264   0.149023   0.367788
     48       0.147411   0.144469   0.012707   0.037951   0.029166  -0.155271
     49      -0.336748  -0.301381  -0.021544  -0.202375   0.085350  -0.063127
     50       0.171873   0.103408   0.059313  -0.014237  -0.067338   0.109953
     51       0.204347   0.093629   0.016920   0.170116   0.150230  -0.020193
     52      -0.194950  -0.263189  -0.012582  -0.102179   0.164413   0.022708
     53      -0.262769  -0.208918   0.027360  -0.045466  -0.029281   0.135004
     54       0.012290  -0.172305  -0.222929   0.015565  -0.163156   0.088015
     55      -0.033412   0.070564  -0.121402   0.016413  -0.102165   0.055486
     56       0.055950   0.051837  -0.363928  -0.012805   0.010031   0.011902
     57      -0.026642   0.075633   0.013276  -0.021609  -0.009089  -0.011206
     58      -0.028106   0.032310   0.007449   0.023200  -0.099524   0.070022
     59       0.033606  -0.021344   0.033732   0.006189  -0.012197  -0.129820
     60       0.023178  -0.147731  -0.095627   0.010515  -0.110667   0.058428
     61      -0.050776   0.081239  -0.131672   0.017127  -0.084784   0.029244
     62       0.048885  -0.001198  -0.592612  -0.004105  -0.099945   0.086119
     63       0.058060  -0.071094   0.018042  -0.005110  -0.044077   0.041872
     64       0.029703   0.261187  -0.007773  -0.024337   0.060544   0.004530
     65       0.038315  -0.082908   0.041012   0.017159   0.007413  -0.023017
     66       0.036014  -0.101003  -0.102334  -0.000600  -0.080517   0.044544
     67      -0.003432   0.142533  -0.067456   0.001158  -0.048936   0.053595
     68       0.048905  -0.026420  -0.155832   0.004613   0.000292   0.003161
     69       0.118266  -0.169268  -0.022932   0.007576  -0.087525   0.064805
     70       0.082846   0.095264   0.119283   0.000356   0.019056   0.003705
     71       0.027910  -0.098277   0.113361   0.020475   0.013336  -0.035458
     72      -0.152032   0.239658  -0.059242  -0.051970   0.060247   0.082985
     73      -0.022626  -0.027613   0.004728   0.045838  -0.095333  -0.140056
     74      -0.224182   0.000335  -0.026742   0.029252  -0.038779  -0.050780
     75      -0.064761   0.149875  -0.026383  -0.038488   0.038005   0.052616
     76      -0.012470   0.050599  -0.001866   0.022969  -0.036622  -0.097622
     77      -0.130941  -0.047561   0.000154   0.030228  -0.035987  -0.034453
     78      -0.175195   0.157539  -0.069905  -0.027746   0.023030  -0.077121
     79      -0.077227   0.003352  -0.004914   0.047313  -0.116227  -0.093618
     80      -0.191693  -0.032094  -0.021837   0.031755  -0.030572  -0.103535
     81      -0.059225  -0.054162   0.055083   0.115805   0.080466   0.045448
     82       0.094313   0.029390   0.054795  -0.156493  -0.009345  -0.028292
     83       0.033140   0.001505   0.020830  -0.036194  -0.025742   0.055564
     84      -0.115653  -0.023887   0.061919   0.339247   0.097131   0.124515
     85       0.170246   0.111642   0.073433  -0.144285  -0.058240  -0.028952
     86       0.252371   0.158335   0.056376  -0.206340  -0.149116  -0.016483
     87      -0.146402  -0.149432   0.078576   0.073790   0.067159   0.130491
     88       0.241545   0.089025   0.096343  -0.403439  -0.127277  -0.061514
     89      -0.127773  -0.113064   0.014870   0.079619   0.035531   0.145370
     90       0.059606  -0.039396  -0.011183   0.000286   0.031195  -0.011614
     91       0.067813  -0.074363  -0.066087  -0.009283   0.090412   0.038887
     92      -0.062889   0.107695   0.078569  -0.038501   0.047477   0.063210
     93       0.043341  -0.011109  -0.028603   0.024840  -0.070174  -0.119613
     94      -0.020428   0.071780  -0.109825  -0.021264   0.038552  -0.015501
     95       0.028163  -0.040254   0.104278   0.024643  -0.072497  -0.066432
     96      -0.018377  -0.095924   0.052269  -0.108700   0.070543  -0.027204
     97       0.031232   0.072245   0.033560   0.151552   0.061208   0.014342
     98       0.002286  -0.028913  -0.059470   0.020687   0.138805  -0.100758
     99      -0.083729  -0.149104   0.080996  -0.071784   0.045973   0.112393
    100       0.138576   0.190027   0.070749   0.119912  -0.072879   0.004362
    101       0.020362  -0.021141  -0.086645   0.003798   0.185315  -0.189424
    102       0.028181  -0.135078   0.045998  -0.346878   0.064527  -0.118238
    103      -0.014921   0.014574   0.017812   0.146866   0.119176   0.016747
    104      -0.147478  -0.132677  -0.091570   0.213765   0.282212  -0.017013
    105       0.029711  -0.035363   0.027032  -0.077028   0.095429  -0.133308
    106      -0.075916   0.043685  -0.003837   0.419518   0.189239   0.054806
    107       0.111529   0.043194  -0.059154  -0.115853   0.082441  -0.221296
                 18         19         20         21         22         23    
      0      -0.090189  -0.054121  -0.067895  -0.030980  -0.035291  -0.004669
      1       0.151830  -0.058121  -0.025947   0.012089   0.014642   0.016887
      2       0.055505   0.081664   0.006273  -0.003258   0.001037   0.010251
      3       0.009911  -0.028988  -0.088156  -0.029518  -0.033091  -0.010047
      4       0.133515  -0.081547  -0.072685   0.035457   0.028536  -0.016351
      5       0.116293   0.117811   0.026401  -0.021257  -0.009571   0.035024
      6       0.082326   0.044616  -0.039852  -0.021224  -0.016194   0.015346
      7       0.022079   0.009275  -0.012393   0.006337   0.003071  -0.010344
      8       0.096376   0.051072  -0.023660  -0.024457  -0.018684   0.020932
      9       0.050262   0.083640  -0.001421  -0.037855  -0.028120   0.033228
     10      -0.067617   0.090692   0.066765  -0.038366  -0.032311   0.026280
     11       0.019362  -0.015575  -0.101210  -0.035778  -0.040504  -0.007453
     12      -0.039419   0.003700  -0.054311  -0.025856  -0.026649   0.002661
     13      -0.023927  -0.014451  -0.028983  -0.005399  -0.010733  -0.011743
     14      -0.054902   0.023230  -0.055616  -0.054605  -0.055806   0.006482
     15      -0.108524  -0.062152  -0.098517  -0.028857  -0.037143  -0.017768
     16       0.094717  -0.086332  -0.085293   0.020499   0.013809  -0.014530
     17      -0.028823   0.083234  -0.007904  -0.051243  -0.046659   0.020915
     18      -0.084854  -0.012299  -0.015391  -0.031252  -0.023166   0.031527
     19       0.137771  -0.004169   0.052653  -0.031313  -0.021462   0.056966
     20       0.039962   0.042770  -0.027427   0.035503   0.028097  -0.035967
     21       0.025084  -0.051329  -0.111895  -0.019270  -0.026423  -0.019059
     22       0.176015  -0.120876  -0.125205   0.057317   0.043734  -0.024852
     23       0.190360   0.174366   0.067297  -0.031952  -0.011726   0.056104
     24      -0.173911  -0.098165  -0.142605  -0.048440  -0.062066  -0.031109
     25       0.123250  -0.133967  -0.123729   0.038583   0.027945  -0.029129
     26      -0.081283   0.100122  -0.000324  -0.072989  -0.068093   0.024994
     27       0.093318   0.158221   0.061205  -0.042797  -0.024342   0.057979
     28      -0.167010   0.205529   0.168292  -0.079160  -0.062635   0.063812
     29       0.010999  -0.091308  -0.165472  -0.023282  -0.036226  -0.032391
     30      -0.083619  -0.016074   0.003268  -0.029025  -0.019553   0.027880
     31       0.087626  -0.046902   0.138101  -0.068190  -0.057568   0.017732
     32      -0.011752   0.008740  -0.051489   0.073649   0.049380  -0.041512
     33      -0.023804  -0.020847   0.047143   0.031327   0.044531  -0.008719
     34       0.054554   0.010192  -0.079309  -0.010862  -0.035651   0.010108
     35      -0.049001  -0.007159   0.018957   0.034843   0.019241  -0.020117
     36      -0.133988  -0.038758  -0.012350  -0.030576  -0.028306   0.042495
     37       0.117518  -0.173622   0.200017  -0.107835  -0.087908  -0.056920
     38      -0.052471   0.085999  -0.107249   0.097099   0.060864   0.013551
     39       0.003911  -0.030608   0.071037   0.012551   0.038833  -0.002978
     40       0.009206   0.003438  -0.029557   0.026006  -0.009738   0.002301
     41      -0.072649  -0.035579   0.189418  -0.011194  -0.004326   0.012659
     42       0.021452  -0.020876   0.055504   0.053872   0.070536  -0.025244
     43       0.080942   0.040866  -0.224305  -0.020595  -0.050546   0.010580
     44      -0.024840  -0.026650   0.121521   0.062266   0.053437  -0.035870
     45      -0.047467  -0.009511   0.027393   0.085576   0.081878  -0.028610
     46       0.039643   0.032464  -0.182377   0.006082  -0.033042   0.005699
     47      -0.061008   0.032151  -0.190428   0.026583  -0.006584  -0.013221
     48       0.001901  -0.039169   0.106700  -0.025193   0.067881   0.006491
     49      -0.020445  -0.000783   0.022725   0.064867  -0.039826   0.009695
     50      -0.054901  -0.039877   0.183128  -0.065714   0.038361   0.015517
     51       0.041136  -0.028738   0.053511  -0.029504   0.024935   0.009565
     52       0.018210   0.005686  -0.027847   0.035680  -0.044731   0.011347
     53      -0.085058  -0.031462   0.203265   0.047452  -0.067826   0.020687
     54       0.015302   0.098285  -0.012308   0.016006   0.009729  -0.019626
[...]
     73       0.000733  -0.000615   0.000767   0.001834  -0.032681   0.001914
     74      -0.000319   0.001226  -0.001328   0.002814  -0.050999   0.002972
     75      -0.010343   0.017044  -0.021437  -0.001316   0.009235   0.005460
     76      -0.009676   0.016884  -0.020116   0.000256  -0.006758   0.000678
     77       0.012362  -0.022379   0.027190   0.002151  -0.025135   0.003850
     78      -0.004212   0.001551  -0.004321   0.007379  -0.130438   0.008638
     79       0.006938  -0.010352   0.014667  -0.029472   0.527225  -0.031512
     80      -0.002334  -0.005014   0.004128  -0.046612   0.832875  -0.049582
     81       0.000125  -0.000076   0.000158  -0.000008   0.000007   0.000000
     82       0.000007  -0.000046  -0.000029  -0.000023   0.000031  -0.000021
     83      -0.000378   0.000290  -0.000472   0.000019  -0.000003   0.000019
     84       0.000945  -0.000871   0.001016  -0.000131   0.000166  -0.000156
     85      -0.002221   0.001979  -0.002379   0.000286  -0.000338   0.000235
     86       0.000932  -0.000968   0.001010  -0.000140   0.000189  -0.000183
     87      -0.002531   0.001657  -0.003189   0.000181  -0.000112   0.000039
     88       0.002123  -0.001417   0.002776  -0.000133  -0.000000  -0.000027
     89       0.003366  -0.002276   0.004513  -0.000201  -0.000014  -0.000089
     90      -0.117792   0.012597  -0.021035   0.000068   0.000059   0.000208
     91       0.049032  -0.005006   0.008755  -0.000017   0.000024  -0.000087
     92      -0.007587   0.001183  -0.001265   0.000072   0.000069   0.000026
     93       0.110063   0.040012  -0.001942  -0.000012  -0.000157   0.000129
     94      -0.169484  -0.061189   0.001834   0.000037   0.000302  -0.000165
     95      -0.225987  -0.081296   0.001938   0.000082   0.000434  -0.000163
     96      -0.000085   0.000084  -0.000094  -0.000004   0.000010   0.000001
     97      -0.000164   0.000118  -0.000195  -0.000016   0.000012  -0.000004
     98      -0.000139   0.000136  -0.000162   0.000004  -0.000008   0.000002
     99       0.001916  -0.001754   0.002180   0.000080  -0.000122  -0.000019
    100       0.000697  -0.000659   0.000833   0.000040  -0.000083  -0.000000
    101       0.002856  -0.002558   0.003256   0.000025  -0.000059  -0.000034
    102      -0.000635   0.000418  -0.000682   0.000029  -0.000023   0.000009
    103       0.001569  -0.000989   0.001801   0.000079  -0.000097   0.000095
    104      -0.000747   0.000516  -0.000863  -0.000030   0.000018  -0.000038
    105       0.000039  -0.000009  -0.000078   0.000056   0.000005   0.000001
    106      -0.000153   0.000053  -0.000089   0.000006  -0.000043   0.000002
    107      -0.000199   0.000142  -0.000145  -0.000025  -0.000040   0.000007


-----------
IR SPECTRUM  
-----------

 Mode    freq (cm**-1)   T**2         TX         TY         TZ
-------------------------------------------------------------------
   7:        23.85    0.000000  (  0.000000   0.000000   0.000000)
   8:        45.80    0.000000  (  0.000000   0.000000   0.000000)
   9:        52.68    0.000000  (  0.000000   0.000000   0.000000)
  10:        59.68    0.000000  (  0.000000   0.000000   0.000000)
  11:        80.71    0.000000  (  0.000000   0.000000   0.000000)
  12:        81.53    0.000000  (  0.000000   0.000000   0.000000)
  13:        88.42    0.000000  (  0.000000   0.000000   0.000000)
  14:       114.45    0.000000  (  0.000000   0.000000   0.000000)
  15:       123.35    0.000000  (  0.000000   0.000000   0.000000)
  16:       153.35    0.000000  (  0.000000   0.000000   0.000000)
  17:       164.20    0.000000  (  0.000000   0.000000   0.000000)
  18:       179.82    0.000000  (  0.000000   0.000000   0.000000)
  19:       210.25    0.000000  (  0.000000   0.000000   0.000000)
  20:       242.23    0.000000  (  0.000000   0.000000   0.000000)
  21:       272.08    0.000000  (  0.000000   0.000000   0.000000)
  22:       275.83    0.000000  (  0.000000   0.000000   0.000000)
  23:       299.96    0.000000  (  0.000000   0.000000   0.000000)
  24:       327.71    0.000000  (  0.000000   0.000000   0.000000)
  25:       375.84    0.000000  (  0.000000   0.000000   0.000000)
  26:       381.62    0.000000  (  0.000000   0.000000   0.000000)
  27:       398.18    0.000000  (  0.000000   0.000000   0.000000)
  28:       429.83    0.000000  (  0.000000   0.000000   0.000000)
  29:       470.64    0.000000  (  0.000000   0.000000   0.000000)
  30:       501.82    0.000000  (  0.000000   0.000000   0.000000)
  31:       527.71    0.000000  (  0.000000   0.000000   0.000000)
  32:       546.58    0.000000  (  0.000000   0.000000   0.000000)
  33:       589.02    0.000000  (  0.000000   0.000000   0.000000)
  34:       605.36    0.000000  (  0.000000   0.000000   0.000000)
  35:       618.99    0.000000  (  0.000000   0.000000   0.000000)
  36:       630.51    0.000000  (  0.000000   0.000000   0.000000)
  37:       663.94    0.000000  (  0.000000   0.000000   0.000000)
  38:       709.04    0.000000  (  0.000000   0.000000   0.000000)
  39:       757.06    0.000000  (  0.000000   0.000000   0.000000)
  40:       772.07    0.000000  (  0.000000   0.000000   0.000000)
  41:       781.57    0.000000  (  0.000000   0.000000   0.000000)
  42:       801.33    0.000000  (  0.000000   0.000000   0.000000)
  43:       820.42    0.000000  (  0.000000   0.000000   0.000000)
  44:       855.59    0.000000  (  0.000000   0.000000   0.000000)
  45:       872.25    0.000000  (  0.000000   0.000000   0.000000)
  46:       908.65    0.000000  (  0.000000   0.000000   0.000000)
  47:       932.65    0.000000  (  0.000000   0.000000   0.000000)
  48:       938.95    0.000000  (  0.000000   0.000000   0.000000)
  49:       945.26    0.000000  (  0.000000   0.000000   0.000000)
  50:       945.58    0.000000  (  0.000000   0.000000   0.000000)
  51:       958.99    0.000000  (  0.000000   0.000000   0.000000)
  52:       986.17    0.000000  (  0.000000   0.000000   0.000000)
  53:      1032.24    0.000000  (  0.000000   0.000000   0.000000)
  54:      1057.81    0.000000  (  0.000000   0.000000   0.000000)
  55:      1070.35    0.000000  (  0.000000   0.000000   0.000000)
  56:      1078.93    0.000000  (  0.000000   0.000000   0.000000)
  57:      1104.35    0.000000  (  0.000000   0.000000   0.000000)
  58:      1110.95    0.000000  (  0.000000   0.000000   0.000000)
  59:      1125.60    0.000000  (  0.000000   0.000000   0.000000)
  60:      1131.64    0.000000  (  0.000000   0.000000   0.000000)
  61:      1179.23    0.000000  (  0.000000   0.000000   0.000000)
  62:      1181.49    0.000000  (  0.000000   0.000000   0.000000)
  63:      1204.64    0.000000  (  0.000000   0.000000   0.000000)
  64:      1214.42    0.000000  (  0.000000   0.000000   0.000000)
  65:      1249.96    0.000000  (  0.000000   0.000000   0.000000)
  66:      1256.29    0.000000  (  0.000000   0.000000   0.000000)
  67:      1274.61    0.000000  (  0.000000   0.000000   0.000000)
  68:      1277.38    0.000000  (  0.000000   0.000000   0.000000)
  69:      1286.34    0.000000  (  0.000000   0.000000   0.000000)
  70:      1293.93    0.000000  (  0.000000   0.000000   0.000000)
  71:      1305.94    0.000000  (  0.000000   0.000000   0.000000)
  72:      1318.96    0.000000  (  0.000000   0.000000   0.000000)
  73:      1338.66    0.000000  (  0.000000   0.000000   0.000000)
  74:      1369.55    0.000000  (  0.000000   0.000000   0.000000)
  75:      1420.28    0.000000  (  0.000000   0.000000   0.000000)
  76:      1428.47    0.000000  (  0.000000   0.000000   0.000000)
  77:      1450.42    0.000000  (  0.000000   0.000000   0.000000)
  78:      1453.76    0.000000  (  0.000000   0.000000   0.000000)
  79:      1482.46    0.000000  (  0.000000   0.000000   0.000000)
  80:      1495.73    0.000000  (  0.000000   0.000000   0.000000)
  81:      1503.98    0.000000  (  0.000000   0.000000   0.000000)
  82:      1506.81    0.000000  (  0.000000   0.000000   0.000000)
  83:      1511.01    0.000000  (  0.000000   0.000000   0.000000)
  84:      1540.42    0.000000  (  0.000000   0.000000   0.000000)
  85:      1562.11    0.000000  (  0.000000   0.000000   0.000000)
  86:      1565.81    0.000000  (  0.000000   0.000000   0.000000)
  87:      1605.19    0.000000  (  0.000000   0.000000   0.000000)
  88:      2424.95    0.000000  (  0.000000   0.000000   0.000000)
  89:      2946.95    0.000000  (  0.000000   0.000000   0.000000)
  90:      2962.76    0.000000  (  0.000000   0.000000   0.000000)
  91:      2969.65    0.000000  (  0.000000   0.000000   0.000000)
  92:      2975.06    0.000000  (  0.000000   0.000000   0.000000)
  93:      2980.64    0.000000  (  0.000000   0.000000   0.000000)
  94:      2982.78    0.000000  (  0.000000   0.000000   0.000000)
  95:      2989.40    0.000000  (  0.000000   0.000000   0.000000)
  96:      3000.98    0.000000  (  0.000000   0.000000   0.000000)
  97:      3015.94    0.000000  (  0.000000   0.000000   0.000000)
  98:      3060.30    0.000000  (  0.000000   0.000000   0.000000)
  99:      3062.82    0.000000  (  0.000000   0.000000   0.000000)
 100:      3069.89    0.000000  (  0.000000   0.000000   0.000000)
 101:      3077.82    0.000000  (  0.000000   0.000000   0.000000)
 102:      3085.85    0.000000  (  0.000000   0.000000   0.000000)
 103:      3091.74    0.000000  (  0.000000   0.000000   0.000000)
 104:      3116.38    0.000000  (  0.000000   0.000000   0.000000)
 105:      3599.87    0.000000  (  0.000000   0.000000   0.000000)
 106:      3603.00    0.000000  (  0.000000   0.000000   0.000000)
 107:      3618.01    0.000000  (  0.000000   0.000000   0.000000)

The first frequency considered to be a vibration is 7
The total number of vibrations considered is 101


--------------------------
THERMOCHEMISTRY AT 298.15K
--------------------------

Temperature         ... 298.15 K
Pressure            ... 1.00 atm
Total Mass          ... 215.29 AMU

Throughout the following assumptions are being made:
  (1) The electronic state is orbitally nondegenerate
  (2) There are no thermally accessible electronically excited states
  (3) Hindered rotations indicated by low frequency modes are not
      treated as such but are treated as vibrations and this may
      cause some error
  (4) All equations used are the standard statistical mechanics
      equations for an ideal gas
  (5) All vibrations are strictly harmonic

freq.      23.85  E(vib)   ...       0.56 
freq.      45.80  E(vib)   ...       0.53 
freq.      52.68  E(vib)   ...       0.52 
freq.      59.68  E(vib)   ...       0.51 
freq.      80.71  E(vib)   ...       0.48 
freq.      81.53  E(vib)   ...       0.48 
freq.      88.42  E(vib)   ...       0.48 
freq.     114.45  E(vib)   ...       0.44 
freq.     123.35  E(vib)   ...       0.43 
freq.     153.35  E(vib)   ...       0.40 
freq.     164.20  E(vib)   ...       0.39 
freq.     179.82  E(vib)   ...       0.37 
freq.     210.25  E(vib)   ...       0.34 
freq.     242.23  E(vib)   ...       0.31 
freq.     272.08  E(vib)   ...       0.29 
freq.     275.83  E(vib)   ...       0.28 
freq.     299.96  E(vib)   ...       0.26 
freq.     327.71  E(vib)   ...       0.24 
freq.     375.84  E(vib)   ...       0.21 
freq.     381.62  E(vib)   ...       0.21 
freq.     398.18  E(vib)   ...       0.20 
freq.     429.83  E(vib)   ...       0.18 
freq.     470.64  E(vib)   ...       0.15 
freq.     501.82  E(vib)   ...       0.14 
freq.     527.71  E(vib)   ...       0.13 
freq.     546.58  E(vib)   ...       0.12 
freq.     589.02  E(vib)   ...       0.10 
freq.     605.36  E(vib)   ...       0.10 
freq.     618.99  E(vib)   ...       0.09 
freq.     630.51  E(vib)   ...       0.09 
freq.     663.94  E(vib)   ...       0.08 
freq.     709.04  E(vib)   ...       0.07 
freq.     757.06  E(vib)   ...       0.06 
freq.     772.07  E(vib)   ...       0.05 
freq.     781.57  E(vib)   ...       0.05 
freq.     801.33  E(vib)   ...       0.05 
freq.     820.42  E(vib)   ...       0.05 
freq.     855.59  E(vib)   ...       0.04 
freq.     872.25  E(vib)   ...       0.04 
freq.     908.65  E(vib)   ...       0.03 
freq.     932.65  E(vib)   ...       0.03 
freq.     938.95  E(vib)   ...       0.03 
freq.     945.26  E(vib)   ...       0.03 
freq.     945.58  E(vib)   ...       0.03 
freq.     958.99  E(vib)   ...       0.03 
freq.     986.17  E(vib)   ...       0.02 
freq.    1032.24  E(vib)   ...       0.02 
freq.    1057.81  E(vib)   ...       0.02 
freq.    1070.35  E(vib)   ...       0.02 
freq.    1078.93  E(vib)   ...       0.02 
freq.    1104.35  E(vib)   ...       0.02 
freq.    1110.95  E(vib)   ...       0.01 
freq.    1125.60  E(vib)   ...       0.01 
freq.    1131.64  E(vib)   ...       0.01 
freq.    1179.23  E(vib)   ...       0.01 
freq.    1181.49  E(vib)   ...       0.01 
freq.    1204.64  E(vib)   ...       0.01 
freq.    1214.42  E(vib)   ...       0.01 
freq.    1249.96  E(vib)   ...       0.01 
freq.    1256.29  E(vib)   ...       0.01 
freq.    1274.61  E(vib)   ...       0.01 
freq.    1277.38  E(vib)   ...       0.01 
freq.    1286.34  E(vib)   ...       0.01 
freq.    1293.93  E(vib)   ...       0.01 
freq.    1305.94  E(vib)   ...       0.01 
freq.    1318.96  E(vib)   ...       0.01 
freq.    1338.66  E(vib)   ...       0.01 
freq.    1369.55  E(vib)   ...       0.01 
freq.    1420.28  E(vib)   ...       0.00 
freq.    1428.47  E(vib)   ...       0.00 
freq.    1450.42  E(vib)   ...       0.00 
freq.    1453.76  E(vib)   ...       0.00 
freq.    1482.46  E(vib)   ...       0.00 
freq.    1495.73  E(vib)   ...       0.00 
freq.    1503.98  E(vib)   ...       0.00 
freq.    1506.81  E(vib)   ...       0.00 
freq.    1511.01  E(vib)   ...       0.00 
freq.    1540.42  E(vib)   ...       0.00 
freq.    1562.11  E(vib)   ...       0.00 
freq.    1565.81  E(vib)   ...       0.00 
freq.    1605.19  E(vib)   ...       0.00 
freq.    2424.95  E(vib)   ...       0.00 
freq.    2946.95  E(vib)   ...       0.00 
freq.    2962.76  E(vib)   ...       0.00 
freq.    2969.65  E(vib)   ...       0.00 
freq.    2975.06  E(vib)   ...       0.00 
freq.    2980.64  E(vib)   ...       0.00 
freq.    2982.78  E(vib)   ...       0.00 
freq.    2989.40  E(vib)   ...       0.00 
freq.    3000.98  E(vib)   ...       0.00 
freq.    3015.94  E(vib)   ...       0.00 
freq.    3060.30  E(vib)   ...       0.00 
freq.    3062.82  E(vib)   ...       0.00 
freq.    3069.89  E(vib)   ...       0.00 
freq.    3077.82  E(vib)   ...       0.00 
freq.    3085.85  E(vib)   ...       0.00 
freq.    3091.74  E(vib)   ...       0.00 
freq.    3116.38  E(vib)   ...       0.00 
freq.    3599.87  E(vib)   ...       0.00 
freq.    3603.00  E(vib)   ...       0.00 
freq.    3618.01  E(vib)   ...       0.00 

------------
INNER ENERGY
------------

The inner energy is: U= E(el) + E(ZPE) + E(vib) + E(rot) + E(trans)
    E(el)   - is the total energy from the electronic structure calculation
              = E(kin-el) + E(nuc-el) + E(el-el) + E(nuc-nuc)
    E(ZPE)  - the the zero temperature vibrational energy from the frequency calculation
    E(vib)  - the the finite temperature correction to E(ZPE) due to population
              of excited vibrational states
    E(rot)  - is the rotational thermal energy
    E(trans)- is the translational thermal energy

Summary of contributions to the inner energy U:
Electronic energy                ...    -49.34267492 Eh
Zero point energy                ...      0.29649439 Eh     186.05 kcal/mol
Thermal vibrational correction   ...      0.01597147 Eh      10.02 kcal/mol
Thermal rotational correction    ...      0.00141627 Eh       0.89 kcal/mol
Thermal translational correction ...      0.00141627 Eh       0.89 kcal/mol
-----------------------------------------------------------------------
Total thermal energy                    -49.02737652 Eh


Summary of corrections to the electronic energy:
(perhaps to be used in another calculation)
Total thermal correction                  0.01880401 Eh      11.80 kcal/mol
Non-thermal (ZPE) correction              0.29649439 Eh     186.05 kcal/mol
-----------------------------------------------------------------------
Total correction                          0.31529840 Eh     197.85 kcal/mol


--------
ENTHALPY
--------

The enthalpy is H = U + kB*T
                kB is Boltzmann's constant
Total free energy                 ...    -49.02737652 Eh 
Thermal Enthalpy correction       ...      0.00094421 Eh       0.59 kcal/mol
-----------------------------------------------------------------------
Total Enthalpy                    ...    -49.02643231 Eh


Note: Only C1 symmetry has been detected, increase convergence thresholds 
      if your molecule has a higher symmetry. Symmetry factor of 1.0 is   
      used for the rotational entropy correction. 
 

Note: Rotational entropy computed according to Herzberg 
Infrared and Raman Spectra, Chapter V,1, Van Nostrand Reinhold, 1945 
Point Group:  C1, Symmetry Number:   1  
Rotational constants in cm-1:     0.027317     0.008508     0.007937 

Vibrational entropy computed according to the QRRHO of S. Grimme
Chem.Eur.J. 2012 18 9955


-------
ENTROPY
-------

The entropy contributions are T*S = T*(S(el)+S(vib)+S(rot)+S(trans))
     S(el)   - electronic entropy
     S(vib)  - vibrational entropy
     S(rot)  - rotational entropy
     S(trans)- translational entropy
The entropies will be listed as mutliplied by the temperature to get
units of energy

Electronic entropy                ...      0.00000000 Eh      0.00 kcal/mol
Vibrational entropy               ...      0.02858201 Eh     17.94 kcal/mol
Rotational entropy                ...      0.01574394 Eh      9.88 kcal/mol
Translational entropy             ...      0.01995728 Eh     12.52 kcal/mol
-----------------------------------------------------------------------
Final entropy term                ...      0.06428323 Eh     40.34 kcal/mol

In case the symmetry of your molecule has not been determined correctly
or in case you have a reason to use a different symmetry number we print 
out the resulting rotational entropy values for sn=1,12 :
 --------------------------------------------------------
|  sn= 1 | S(rot)=       0.01574394 Eh      9.88 kcal/mol|
|  sn= 2 | S(rot)=       0.01508948 Eh      9.47 kcal/mol|
|  sn= 3 | S(rot)=       0.01470665 Eh      9.23 kcal/mol|
|  sn= 4 | S(rot)=       0.01443503 Eh      9.06 kcal/mol|
|  sn= 5 | S(rot)=       0.01422434 Eh      8.93 kcal/mol|
|  sn= 6 | S(rot)=       0.01405219 Eh      8.82 kcal/mol|
|  sn= 7 | S(rot)=       0.01390665 Eh      8.73 kcal/mol|
|  sn= 8 | S(rot)=       0.01378057 Eh      8.65 kcal/mol|
|  sn= 9 | S(rot)=       0.01366936 Eh      8.58 kcal/mol|
|  sn=10 | S(rot)=       0.01356988 Eh      8.52 kcal/mol|
|  sn=11 | S(rot)=       0.01347989 Eh      8.46 kcal/mol|
|  sn=12 | S(rot)=       0.01339774 Eh      8.41 kcal/mol|
 --------------------------------------------------------


-------------------
GIBBS FREE ENERGY
-------------------

The Gibbs free energy is G = H - T*S

Total enthalpy                    ...    -49.02643231 Eh 
Total entropy correction          ...     -0.06428323 Eh    -40.34 kcal/mol
-----------------------------------------------------------------------
Final Gibbs free energy         ...    -49.09071554 Eh

For completeness - the Gibbs free energy minus the electronic energy
G-E(el)                           ...      0.25195938 Eh    158.11 kcal/mol


Total Time for Numerical Frequencies  :        59.070 sec
Time for Reference State(s)           :         0.080 sec
Time for Displacements                :        51.449 sec

Timings for individual modules:

Sum of individual times         ...        0.170 sec (=   0.003 min)
XTB module                      ...        0.170 sec (=   0.003 min) 100.0 %
                             ****ORCA TERMINATED NORMALLY****
TOTAL RUN TIME: 0 days 0 hours 0 minutes 59 seconds 634 msec
(SLURM) EXECUTION TIME: 59.676012843 seconds.
