(SLURM) JOB ID:         817

                                 *****************
                                 * O   R   C   A *
                                 *****************

           --- An Ab Initio, DFT and Semiempirical electronic structure package ---

                  #######################################################
                  #                        -***-                        #
                  #          Department of theory and spectroscopy      #
                  #               Directorship: Frank Neese             #
                  #        Max Planck Institute fuer Kohlenforschung    #
                  #                Kaiser Wilhelm Platz 1               #
                  #                 D-45470 Muelheim/Ruhr               #
                  #                      Germany                        #
                  #                                                     #
                  #                  All rights reserved                #
                  #                        -***-                        #
                  #######################################################


                         Program Version 4.2.1 -  RELEASE  -


 With contributions from (in alphabetic order):
   Daniel Aravena         : Magnetic Suceptibility
   Michael Atanasov       : Ab Initio Ligand Field Theory (pilot matlab implementation)
   Alexander A. Auer      : GIAO ZORA, VPT2
   Ute Becker             : Parallelization
   Giovanni Bistoni       : ED, misc. LED, open-shell LED, HFLD
   Martin Brehm           : Molecular dynamics
   Dmytro Bykov           : SCF Hessian
   Vijay G. Chilkuri      : MRCI spin determinant printing, contributions to CSF-ICE
   Dipayan Datta          : RHF DLPNO-CCSD density
   Achintya Kumar Dutta   : EOM-CC, STEOM-CC
   Dmitry Ganyushin       : Spin-Orbit,Spin-Spin,Magnetic field MRCI
   Miquel Garcia          : C-PCM Hessian, Gaussian charge scheme
   Yang Guo               : DLPNO-NEVPT2, CIM, IAO-localization
   Andreas Hansen         : Spin unrestricted coupled pair/coupled cluster methods
   Benjamin Helmich-Paris : CASSCF linear response (MC-RPA)
   Lee Huntington         : MR-EOM, pCC
   Robert Izsak           : Overlap fitted RIJCOSX, COSX-SCS-MP3, EOM
   Christian Kollmar      : KDIIS, OOCD, Brueckner-CCSD(T), CCSD density
   Simone Kossmann        : Meta GGA functionals, TD-DFT gradient, OOMP2, MP2 Hessian
   Martin Krupicka        : AUTO-CI
   Lucas Lang             : DCDCAS
   Dagmar Lenk            : GEPOL surface, SMD
   Dimitrios Liakos       : Extrapolation schemes; Compound Job, initial MDCI parallelization
   Dimitrios Manganas     : Further ROCIS development; embedding schemes
   Dimitrios Pantazis     : SARC Basis sets
   Taras Petrenko         : DFT Hessian,TD-DFT gradient, ASA, ECA, R-Raman, ABS, FL, XAS/XES, NRVS
   Peter Pinski           : DLPNO-MP2, DLPNO-MP2 Gradient
   Christoph Reimann      : Effective Core Potentials
   Marius Retegan         : Local ZFS, SOC
   Christoph Riplinger    : Optimizer, TS searches, QM/MM, DLPNO-CCSD(T), (RO)-DLPNO pert. Triples
   Tobias Risthaus        : Range-separated hybrids, TD-DFT gradient, RPA, STAB
   Michael Roemelt        : Original ROCIS implementation
   Masaaki Saitow         : Open-shell DLPNO-CCSD energy and density
   Barbara Sandhoefer     : DKH picture change effects
   Avijit Sen             : IP-ROCIS
   Kantharuban Sivalingam : CASSCF convergence, NEVPT2, FIC-MRCI
   Bernardo de Souza      : ESD, SOC TD-DFT
   Georgi Stoychev        : AutoAux, RI-MP2 NMR
   Willem Van den Heuvel  : Paramagnetic NMR
   Boris Wezisla          : Elementary symmetry handling
   Frank Wennmohs         : Technical directorship


 We gratefully acknowledge several colleagues who have allowed us to
 interface, adapt or use parts of their codes:
   Stefan Grimme, W. Hujo, H. Kruse,             : VdW corrections, initial TS optimization,
                  C. Bannwarth                     DFT functionals, gCP, sTDA/sTD-DF
   Ed Valeev, F. Pavosevic, A. Kumar             : LibInt (2-el integral package), F12 methods
   Garnet Chan, S. Sharma, J. Yang, R. Olivares  : DMRG
   Ulf Ekstrom                                   : XCFun DFT Library
   Mihaly Kallay                                 : mrcc  (arbitrary order and MRCC methods)
   Andreas Klamt, Michael Diedenhofen            : otool_cosmo (COSMO solvation model)
   Jiri Pittner, Ondrej Demel                    : Mk-CCSD
   Frank Weinhold                                : gennbo (NPA and NBO analysis)
   Christopher J. Cramer and Donald G. Truhlar   : smd solvation model
   Lars Goerigk                                  : TD-DFT with DH, B97 family of functionals
   V. Asgeirsson, H. Jonsson                     : NEB implementation
   FAccTs GmbH                                   : IRC, NEB, NEB-TS, Multilevel, MM, QM/MM, CI optimization
   S Lehtola, MJT Oliveira, MAL Marques          : LibXC Library


 Your calculation uses the libint2 library for the computation of 2-el integrals
 For citations please refer to: http://libint.valeyev.net

 Your ORCA version has been built with support for libXC version: 4.2.3
 For citations please refer to: https://tddft.org/programs/libxc/

 This ORCA versions uses:
   CBLAS   interface :  Fast vector & matrix operations
   LAPACKE interface :  Fast linear algebra routines
   SCALAPACK package :  Parallel linear algebra routines




***************************************
The coordinates will be read from file: init.xyz
***************************************


Your calculation utilizes the SMD solvation module
Please cite in your paper:
A.V. Marenich, C.J. Cramer, D.G. Truhlar J. Phys. Chem. B, 113, (2009), 6378 

Your calculation utilizes the semiempirical GFN2-xTB method
Please cite in your paper:
C. Bannwarth, Ehlert S., S. Grimme,  J. Chem. Theory Comput., 15, (2019), 1652.
   

----- Orbital basis set information -----
Your calculation utilizes the basis: def2-SVP
   F. Weigend and R. Ahlrichs, Phys. Chem. Chem. Phys. 7, 3297 (2005).

================================================================================
                                        WARNINGS
                       Please study these warnings very carefully!
================================================================================

WARNING: Gradients needed for Numerical Frequencies
  ===> : Setting RunTyp to EnGrad

WARNING: The environment variable RSH_COMMAND is not set!
  ===> : All Displacements for the Numerical Hessian calculation
         will be started on localhost

WARNING: Found dipole moment calculation with XTB calculation
  ===> : Switching off dipole moment calculation


INFO   : the flag for use of LIBINT has been found!

================================================================================
                                       INPUT FILE
================================================================================
NAME = /tmp/slurm-scratch/freq.817/freq.inp
|  1> ! XTB2 NumFreq
|  2> %maxcore 1450
|  3> 
|  4> * xyzfile 0 1 init.xyz
|  5> 
|  6> %cpcm
|  7>  smd true
|  8>  smdsolvent "ch2cl2"
|  9> end
| 10> %pal nprocs 6 end
| 11> 
| 12>                          ****END OF INPUT****
================================================================================

                     *******************************
                     * Energy+Gradient Calculation *
                     *******************************

      -----------------------------------------------------------      
     |                   =====================                   |     
     |                           x T B                           |     
     |                   =====================                   |     
     |                         S. Grimme                         |     
     |          Mulliken Center for Theoretical Chemistry        |     
     |                    University of Bonn                     |     
      -----------------------------------------------------------      

   * xtb version 6.3.2 (30e43eb) compiled by 'schneider@apollo14' on 2020-08-08

   xtb is free software: you can redistribute it and/or modify it under
   the terms of the GNU Lesser General Public License as published by
   the Free Software Foundation, either version 3 of the License, or
   (at your option) any later version.
   
   xtb is distributed in the hope that it will be useful,
   but WITHOUT ANY WARRANTY; without even the implied warranty of
   MERCHANTABILITY or FITNESS FOR A PARTICULAR PURPOSE.  See the
   GNU Lesser General Public License for more details.
   
   Cite this work as:
   * S. Grimme, C. Bannwarth, P. Shushkov, J. Chem. Theory Comput., 2017,
     13, 1989-2009. DOI: 10.1021/acs.jctc.7b00118
   * C. Bannwarth, S. Ehlert and S. Grimme., J. Chem. Theory Comput., 2019,
     15, 1652-1671. DOI: 10.1021/acs.jctc.8b01176
   * P. Pracht, E. Caldeweyher, S. Ehlert, S. Grimme, ChemRxiv, 2019, preprint.
     DOI: 10.26434/chemrxiv.8326202.v1
   
   for GFN-FF:
   * S. Spicher and S. Grimme, Angew. Chem. Int. Ed., 2020,
     DOI: 10.1002/anie.202004239
   
   for DFT-D4:
   * E. Caldeweyher, C. Bannwarth and S. Grimme, J. Chem. Phys., 2017,
     147, 034112. DOI: 10.1063/1.4993215
   * E. Caldeweyher, S. Ehlert, A. Hansen, H. Neugebauer, S. Spicher,
     C. Bannwarth and S. Grimme, J. Chem. Phys., 2019, 150, 154122.
     DOI: 10.1063/1.5090222
   
   for sTDA-xTB:
   * S. Grimme and C. Bannwarth, J. Chem. Phys., 2016, 145, 054103.
     DOI: 10.1063/1.4959605
   
   in the mass-spec context:
   * V. Asgeirsson, C. Bauer and S. Grimme, Chem. Sci., 2017, 8, 4879.
     DOI: 10.1039/c7sc00601b
   * J. Koopman and S. Grimme, ACS Omega 2019, 4, 12, 15120-15133.
     DOI: 10.1021/acsomega.9b02011
   
   for metadynamics refer to:
   * S. Grimme, J. Chem. Theory Comput., 2019, 155, 2847-2862
     DOI: 10.1021/acs.jctc.9b00143
   
   with help from (in alphabetical order)
   C. Bannwarth, F. Bohle, G. Brandenburg, E. Caldeweyher, M. Checinski,
   S. Dohm, S. Ehlert, S. Ehrlich, F. März, H. Neugebauer, J. Pisarek,
   P. Pracht, P. Shushkov, and S. Spicher.
   
 * started run on 2021/04/08 at 09:28:15.175     

           -------------------------------------------------
          |                Calculation Setup                |
           -------------------------------------------------

          program call               : /opt/orca/otool_xtb /tmp/slurm-scratch/freq.817/freq_XTB.xyz --grad -c 0 -u 0 -P 6 --namespace /tmp/slurm-scratch/freq.817/freq --gbsa CH2Cl2
          hostname                   : apollo14
          calculation namespace      : /tmp/slurm-scratch/freq.817/freq
          coordinate file            : /tmp/slurm-scratch/freq.817/freq_XTB.xyz
          omp threads                :                     6
          number of atoms            :                    49
          number of electrons        :                   112
          charge                     :                     0
          spin                       :                   0.0
          first test random number   :      0.46466823033580

   ID    Z sym.   atoms
    1    6 C      1-7, 12, 14, 30, 33, 36, 39, 42, 46
    2    1 H      8-10, 13, 15-18, 21, 22, 24-29, 31, 32, 34, 35, 37, 38, 40,
                  41, 43-45, 47-49
    3    7 N      11, 20
    4    8 O      19, 23

molecular fragmentation (1/2 indicates fragments):
1111111111222222221222222121122222222222222222222
# atoms in fragment 1/2:    14    35
 fragment masses (1/2) :      106.12      164.29
CMA distance (Bohr)    :   7.183
constraining FC (au)   :  0.0500
########################################################################
[WARNING] Please study the warnings concerning your input carefully
-1- prog_main_parseArguments: Process number higher than OMP_NUM_THREADS, I hope you know what you are doing.
########################################################################

           -------------------------------------------------
          |                 G F N 2 - x T B                 |
           -------------------------------------------------

        Reference                      10.1021/acs.jctc.8b01176
      * Hamiltonian:
        H0-scaling (s, p, d)           1.850000    2.230000    2.230000
        zeta-weighting                 0.500000
      * Dispersion:
        s8                             2.700000
        a1                             0.520000
        a2                             5.000000
        s9                             5.000000
      * Repulsion:
        kExp                           1.500000    1.000000
        rExp                           1.000000
      * Coulomb:
        alpha                          2.000000
        third order                    shell-resolved
        anisotropic                    true
        a3                             3.000000
        a5                             4.000000
        cn-shift                       1.200000
        cn-exp                         4.000000
        max-rad                        5.000000

      * Solvation model:               GBSA
        Solvent                        CH2Cl2
        Parameter file                 internal GFN2-xTB/GBSA
        Dielectric constant                8.9300E+00
        Reference state                gsolv [1 M gas/solution]
        Free energy shift                  4.4408E-03 Eh       2.7867E+00 kcal/mol
        Temperature                        2.9815E+02 K
        Density                            1.3300E+00 kg/L
        Solvent mass                       8.4930E+01 g/mol
        Interaction kernel             Still
        Born radius scaling (c1)           1.4917E+00
        Born radii integrator          GBOBC
        Born offset                        0.0000E+00 a0       0.0000E+00 AA
        H-bond correction              false
        Ion screening                  false
        Surface tension                    1.0000E-05 Eh       1.5569E+01 dyn/cm
        Grid points                               230 per atom

          ...................................................
          :                      SETUP                      :
          :.................................................:
          :  # basis functions                 106          :
          :  # atomic orbitals                 106          :
          :  # shells                           68          :
          :  # electrons                       112          :
          :  max. iterations                   250          :
          :  Hamiltonian                  GFN2-xTB          :
          :  restarted?                      false          :
          :  GBSA solvation                   true          :
          :  PC potential                    false          :
          :  electronic temp.          300.0000000     K    :
          :  accuracy                    1.0000000          :
          :  -> integral cutoff          0.2500000E+02      :
          :  -> integral neglect         0.1000000E-07      :
          :  -> SCF convergence          0.1000000E-05 Eh   :
          :  -> wf. convergence          0.1000000E-03 e    :
          :  Broyden damping             0.4000000          :
          ...................................................

 iter      E             dE          RMSdq      gap      omega  full diag
   1    -62.1244473 -0.621244E+02  0.365E+00    2.47       0.0  T
   2    -62.2159351 -0.914878E-01  0.195E+00    2.17       1.0  T
   3    -62.2173133 -0.137828E-02  0.919E-01    2.23       1.0  T
   4    -62.2222158 -0.490240E-02  0.211E-01    2.01       1.0  T
   5    -62.2232271 -0.101138E-02  0.710E-02    2.03       1.0  T
   6    -62.2232797 -0.525597E-04  0.349E-02    2.04       1.0  T
   7    -62.2232975 -0.178400E-04  0.121E-02    2.05       1.2  T
   8    -62.2232988 -0.128525E-05  0.369E-03    2.05       3.9  T
   9    -62.2232989 -0.136489E-06  0.152E-03    2.05       9.4  T
  10    -62.2232990 -0.210496E-07  0.769E-04    2.05      18.6  T
  11    -62.2232990 -0.591113E-08  0.335E-04    2.05      42.6  T

   *** convergence criteria satisfied after 11 iterations ***

         #    Occupation            Energy/Eh            Energy/eV
      -------------------------------------------------------------
         1        2.0000           -0.7154674             -19.4689
       ...           ...                  ...                  ...
        50        2.0000           -0.4261593             -11.5964
        51        2.0000           -0.4202612             -11.4359
        52        2.0000           -0.4194648             -11.4142
        53        2.0000           -0.4178829             -11.3712
        54        2.0000           -0.4034320             -10.9779
        55        2.0000           -0.3867619             -10.5243
        56        2.0000           -0.3692366             -10.0474 (HOMO)
        57                         -0.2940510              -8.0015 (LUMO)
        58                         -0.2389447              -6.5020
        59                         -0.2052998              -5.5865
        60                         -0.0994013              -2.7048
        61                          0.0057673               0.1569
       ...                                ...                  ...
       106                          0.6461960              17.5839
      -------------------------------------------------------------
                  HL-Gap            0.0751856 Eh            2.0459 eV
             Fermi-level           -0.3316438 Eh           -9.0245 eV

 SCC (total)                   0 d,  0 h,  0 min,  0.166 sec
 SCC setup                      ...        0 min,  0.008 sec (  4.719%)
 Dispersion                     ...        0 min,  0.005 sec (  2.931%)
 classical contributions        ...        0 min,  0.002 sec (  1.288%)
 integral evaluation            ...        0 min,  0.026 sec ( 15.962%)
 iterations                     ...        0 min,  0.050 sec ( 30.063%)
 molecular gradient             ...        0 min,  0.074 sec ( 44.645%)
 printout                       ...        0 min,  0.001 sec (  0.380%)

         :::::::::::::::::::::::::::::::::::::::::::::::::::::
         ::                     SUMMARY                     ::
         :::::::::::::::::::::::::::::::::::::::::::::::::::::
         :: total energy             -61.364670269882 Eh    ::
         :: total w/o Gsasa/hb       -61.342102855104 Eh    ::
         :: gradient norm              0.027765609716 Eh/a0 ::
         :: HOMO-LUMO gap              2.045905016878 eV    ::
         ::.................................................::
         :: SCC energy               -62.223298975752 Eh    ::
         :: -> isotropic ES            0.095964766549 Eh    ::
         :: -> anisotropic ES          0.003631027665 Eh    ::
         :: -> anisotropic XC          0.037785345494 Eh    ::
         :: -> dispersion             -0.042551270371 Eh    ::
         :: -> Gsolv                  -0.033358017381 Eh    ::
         ::    -> Gborn               -0.010790602603 Eh    ::
         ::    -> Gsasa               -0.027008243952 Eh    ::
         ::    -> Ghb                  0.000000000000 Eh    ::
         ::    -> Gshift               0.004440829173 Eh    ::
         :: repulsion energy           0.857211642957 Eh    ::
         :: add. restraining           0.000000000000 Eh    ::
         :: total charge              -0.000000000000 e     ::
         :::::::::::::::::::::::::::::::::::::::::::::::::::::

           -------------------------------------------------
          |                Property Printout                |
           -------------------------------------------------

    * Orbital Energies and Occupations

         #    Occupation            Energy/Eh            Energy/eV
      -------------------------------------------------------------
         1        2.0000           -0.7154674             -19.4689
       ...           ...                  ...                  ...
        44        2.0000           -0.4403864             -11.9835
        45        2.0000           -0.4380429             -11.9198
        46        2.0000           -0.4373570             -11.9011
        47        2.0000           -0.4352263             -11.8431
        48        2.0000           -0.4311842             -11.7331
        49        2.0000           -0.4290891             -11.6761
        50        2.0000           -0.4261593             -11.5964
        51        2.0000           -0.4202612             -11.4359
        52        2.0000           -0.4194648             -11.4142
        53        2.0000           -0.4178829             -11.3712
        54        2.0000           -0.4034320             -10.9779
        55        2.0000           -0.3867619             -10.5243
        56        2.0000           -0.3692366             -10.0474 (HOMO)
        57                         -0.2940510              -8.0015 (LUMO)
        58                         -0.2389447              -6.5020
        59                         -0.2052998              -5.5865
        60                         -0.0994013              -2.7048
        61                          0.0057673               0.1569
        62                          0.0289918               0.7889
        63                          0.0668590               1.8193
        64                          0.0840329               2.2867
        65                          0.0916472               2.4938
        66                          0.0991174               2.6971
        67                          0.1086565               2.9567
       ...                                ...                  ...
       106                          0.6461960              17.5839
      -------------------------------------------------------------
                  HL-Gap            0.0751856 Eh            2.0459 eV
             Fermi-level           -0.3316438 Eh           -9.0245 eV

     #   Z          covCN         q      C6AA      α(0)
     1   6 C        2.968    -0.010    28.260     8.720
     2   6 C        2.921    -0.023    28.575     8.766
     3   6 C        2.914    -0.025    28.618     8.772
     4   6 C        2.917    -0.016    28.415     8.741
     5   6 C        2.914    -0.023    28.585     8.767
     6   6 C        2.919    -0.012    28.324     8.727
     7   6 C        2.767     0.211    23.526     7.944
     8   1 H        0.925     0.049     2.328     2.386
     9   1 H        0.926     0.050     2.314     2.379
    10   1 H        0.925     0.055     2.260     2.351
    11   7 N        2.629    -0.382    29.880     8.118
    12   6 C        3.731     0.026    20.222     6.419
    13   1 H        0.860     0.171     1.269     1.765
    14   6 C        3.803    -0.069    21.811     6.649
    15   1 H        0.923     0.005     2.975     2.697
    16   1 H        0.924     0.024     2.671     2.556
    17   1 H        0.924     0.041     2.438     2.442
    18   1 H        0.924     0.041     2.436     2.441
    19   8 O        0.856    -0.401    21.692     6.244
    20   7 N        2.628    -0.369    29.523     8.070
    21   1 H        0.860     0.166     1.297     1.784
    22   1 H        0.860     0.150     1.401     1.854
    23   8 O        1.605    -0.630    25.930     6.873
    24   1 H        0.801     0.307     0.700     1.315
    25   1 H        0.805     0.280     0.784     1.391
    26   1 H        0.923     0.032     2.563     2.504
    27   1 H        0.860     0.140     1.473     1.901
    28   1 H        0.925     0.052     2.299     2.371
    29   1 H        0.925     0.050     2.319     2.381
    30   6 C        3.800    -0.052    21.518     6.605
    31   1 H        0.924     0.030     2.594     2.518
    32   1 H        0.924     0.030     2.594     2.518
    33   6 C        3.731     0.017    20.376     6.443
    34   1 H        0.924     0.016     2.788     2.611
    35   1 H        0.924     0.038     2.477     2.461
    36   6 C        3.803    -0.070    21.833     6.652
    37   1 H        0.924     0.040     2.444     2.445
    38   1 H        0.924     0.037     2.486     2.465
    39   6 C        3.800    -0.055    21.564     6.612
    40   1 H        0.924     0.034     2.531     2.488
    41   1 H        0.924     0.035     2.517     2.481
    42   6 C        3.750    -0.102    22.510     6.767
    43   1 H        0.924     0.036     2.498     2.471
    44   1 H        0.924     0.035     2.521     2.483
    45   1 H        0.924     0.035     2.523     2.484
    46   6 C        3.750    -0.104    22.546     6.772
    47   1 H        0.924     0.039     2.457     2.451
    48   1 H        0.924     0.035     2.512     2.478
    49   1 H        0.924     0.035     2.520     2.483

 Mol. C6AA /au·bohr⁶  :      19233.631028
 Mol. C8AA /au·bohr⁸  :     416989.168863
 Mol. α(0) /au        :        212.016818


Wiberg/Mayer (AO) data.
largest (>0.10) Wiberg bond orders for each atom

 ---------------------------------------------------------------------------
     #   Z sym  total        # sym  WBO       # sym  WBO       # sym  WBO
 ---------------------------------------------------------------------------
     1   6 C    3.989 --     2 C    1.370     6 C    1.367     7 C    1.066
     2   6 C    3.989 --     3 C    1.458     1 C    1.370     8 H    0.967
                             5 C    0.105
     3   6 C    3.991 --     2 C    1.458     4 C    1.430    28 H    0.969
                             6 C    0.105
     4   6 C    3.987 --     3 C    1.430     5 C    1.426    10 H    0.970
     5   6 C    3.991 --     6 C    1.460     4 C    1.426    29 H    0.969
                             2 C    0.105
     6   6 C    3.989 --     5 C    1.460     1 C    1.367     9 H    0.966
                             3 C    0.105
     7   6 C    3.909 --    19 O    1.812     1 C    1.066    26 H    0.934
     8   1 H    0.998 --     2 C    0.967
     9   1 H    0.997 --     6 C    0.966
    10   1 H    0.997 --     4 C    0.970
    11   7 N    3.011 --    12 C    1.019    27 H    0.967    13 H    0.942
    12   6 C    3.986 --    11 N    1.019    14 C    1.006    16 H    0.975
                            15 H    0.970
    13   1 H    0.971 --    11 N    0.942
    14   6 C    3.995 --    30 C    1.008    12 C    1.006    17 H    0.975
                            18 H    0.975
    15   1 H    1.000 --    12 C    0.970
    16   1 H    0.999 --    12 C    0.975
    17   1 H    0.998 --    14 C    0.975
    18   1 H    0.998 --    14 C    0.975
    19   8 O    2.034 --     7 C    1.812
    20   7 N    3.070 --    33 C    1.009    22 H    0.964    21 H    0.951
    21   1 H    0.972 --    20 N    0.951
    22   1 H    0.977 --    20 N    0.964
    23   8 O    1.813 --    25 H    0.919    24 H    0.831
    24   1 H    0.906 --    23 O    0.831
    25   1 H    0.922 --    23 O    0.919
    26   1 H    0.999 --     7 C    0.934
    27   1 H    0.980 --    11 N    0.967
    28   1 H    0.997 --     3 C    0.969
    29   1 H    0.997 --     5 C    0.969
    30   6 C    3.998 --    42 C    1.019    14 C    1.008    31 H    0.978
                            32 H    0.978
    31   1 H    0.999 --    30 C    0.978
    32   1 H    0.999 --    30 C    0.978
    33   6 C    3.981 --    20 N    1.009    36 C    1.007    35 H    0.976
                            34 H    0.971
    34   1 H    1.000 --    33 C    0.971
    35   1 H    0.998 --    33 C    0.976
    36   6 C    3.995 --    39 C    1.007    33 C    1.007    37 H    0.974
                            38 H    0.972
    37   1 H    0.998 --    36 C    0.974
    38   1 H    0.999 --    36 C    0.972
    39   6 C    3.997 --    46 C    1.020    36 C    1.007    41 H    0.978
                            40 H    0.976
    40   1 H    0.999 --    39 C    0.976
    41   1 H    0.999 --    39 C    0.978
    42   6 C    3.996 --    30 C    1.019    45 H    0.988    44 H    0.988
                            43 H    0.987
    43   1 H    0.998 --    42 C    0.987
    44   1 H    0.999 --    42 C    0.988
    45   1 H    0.999 --    42 C    0.988
    46   6 C    3.996 --    39 C    1.020    48 H    0.988    49 H    0.987
                            47 H    0.987
    47   1 H    0.998 --    46 C    0.987
    48   1 H    0.999 --    46 C    0.988
    49   1 H    0.999 --    46 C    0.987
 ---------------------------------------------------------------------------

Topologies differ in total number of bonds
Writing topology from bond orders to xtbtopo.mol

molecular dipole:
                 x           y           z       tot (Debye)
 q only:       -2.180      -0.054       0.366
   full:       -2.376      -0.080       0.442       6.146
molecular quadrupole (traceless):
                xx          xy          yy          xz          yz          zz
 q only:       -5.759       7.900      10.579       2.031      -1.615      -4.820
  q+dip:      -11.673       8.947      15.165       3.208       1.394      -3.492
   full:      -12.261       8.741      14.318       2.978      -0.528      -2.057


           -------------------------------------------------
          | TOTAL ENERGY              -61.364670269882 Eh   |
          | GRADIENT NORM               0.027765609716 Eh/α |
          | HOMO-LUMO GAP               2.045905016878 eV   |
           -------------------------------------------------

------------------------------------------------------------------------
 * finished run on 2021/04/08 at 09:28:15.396     
------------------------------------------------------------------------
 total:
 * wall-time:     0 d,  0 h,  0 min,  0.221 sec
 *  cpu-time:     0 d,  0 h,  0 min,  2.564 sec
 * ratio c/w:    11.600 speedup
 SCF:
 * wall-time:     0 d,  0 h,  0 min,  0.172 sec
 *  cpu-time:     0 d,  0 h,  0 min,  1.999 sec
 * ratio c/w:    11.633 speedup


-------------------------   --------------------
FINAL SINGLE POINT ENERGY       -61.364670269880
-------------------------   --------------------


----------------------------------------------------------------------------
                           ORCA NUMERICAL FREQUENCIES
                              (6-process run)
----------------------------------------------------------------------------

Number of atoms                ... 49
Central differences            ... used
Number of displacements        ... 294
Numerical increment            ... 5.000e-03 bohr
IR-spectrum generation         ... on
Raman-spectrum generation      ... off
Surface Crossing Hessian       ... off
List of participating nodes    ...  /tmp/slurm-scratch/freq.817/freq.hostnames

The output will be reduced. Please look at the following files:
SCF program output             ... >/tmp/slurm-scratch/freq.817/freq.lastscf
Integral program output        ... >/tmp/slurm-scratch/freq.817/freq.lastint
Gradient program output        ... >/tmp/slurm-scratch/freq.817/freq.lastgrad
Dipole moment program output   ... >/tmp/slurm-scratch/freq.817/freq.lastmom
AutoCI program output          ... >/tmp/slurm-scratch/freq.817/freq.lastautoci


         <<< Energy and Gradient at the input geometry >>>

        <<< Energy and Gradient at displaced geometries >>>
             <<<Displacing   1/coordinate 1 (+)>>>
             <<<Displacing   2/coordinate 2 (+)>>>
             <<<Displacing   2/coordinate 1 (+)>>>
             <<<Displacing   1/coordinate 3 (+)>>>
             <<<Displacing   2/coordinate 3 (+)>>>
             <<<Displacing   1/coordinate 2 (+)>>>
             <<<Displacing   2/coordinate 1 (-)>>>
             <<<Displacing   2/coordinate 2 (-)>>>
             <<<Displacing   1/coordinate 3 (-)>>>
             <<<Displacing   1/coordinate 1 (-)>>>
             <<<Displacing   1/coordinate 2 (-)>>>
             <<<Displacing   2/coordinate 3 (-)>>>
             <<<Displacing   4/coordinate 1 (+)>>>
             <<<Displacing   3/coordinate 2 (+)>>>
             <<<Displacing   3/coordinate 3 (+)>>>
             <<<Displacing   4/coordinate 2 (+)>>>
             <<<Displacing   3/coordinate 1 (+)>>>
             <<<Displacing   4/coordinate 3 (+)>>>
             <<<Displacing   4/coordinate 2 (-)>>>
             <<<Displacing   3/coordinate 2 (-)>>>
             <<<Displacing   4/coordinate 1 (-)>>>
             <<<Displacing   3/coordinate 3 (-)>>>
             <<<Displacing   3/coordinate 1 (-)>>>
             <<<Displacing   4/coordinate 3 (-)>>>
             <<<Displacing   5/coordinate 2 (+)>>>
             <<<Displacing   5/coordinate 1 (+)>>>
             <<<Displacing   5/coordinate 3 (+)>>>
             <<<Displacing   6/coordinate 2 (+)>>>
             <<<Displacing   5/coordinate 2 (-)>>>
             <<<Displacing   6/coordinate 1 (+)>>>
             <<<Displacing   5/coordinate 1 (-)>>>
             <<<Displacing   6/coordinate 3 (+)>>>
             <<<Displacing   5/coordinate 3 (-)>>>
             <<<Displacing   6/coordinate 2 (-)>>>
             <<<Displacing   6/coordinate 1 (-)>>>
             <<<Displacing   6/coordinate 3 (-)>>>
             <<<Displacing   7/coordinate 1 (+)>>>
             <<<Displacing   7/coordinate 2 (+)>>>
             <<<Displacing   8/coordinate 1 (+)>>>
             <<<Displacing   8/coordinate 3 (+)>>>
             <<<Displacing   7/coordinate 2 (-)>>>
             <<<Displacing   7/coordinate 1 (-)>>>
             <<<Displacing   7/coordinate 3 (+)>>>
             <<<Displacing   8/coordinate 1 (-)>>>
             <<<Displacing   8/coordinate 3 (-)>>>
             <<<Displacing   8/coordinate 2 (+)>>>
             <<<Displacing   7/coordinate 3 (-)>>>
             <<<Displacing   8/coordinate 2 (-)>>>
             <<<Displacing   9/coordinate 1 (+)>>>
             <<<Displacing   9/coordinate 2 (+)>>>
             <<<Displacing   9/coordinate 1 (-)>>>
             <<<Displacing  10/coordinate 1 (+)>>>
             <<<Displacing   9/coordinate 2 (-)>>>
             <<<Displacing   9/coordinate 3 (+)>>>
             <<<Displacing  10/coordinate 2 (+)>>>
             <<<Displacing  10/coordinate 1 (-)>>>
             <<<Displacing   9/coordinate 3 (-)>>>
             <<<Displacing  10/coordinate 3 (+)>>>
             <<<Displacing  10/coordinate 3 (-)>>>
             <<<Displacing  10/coordinate 2 (-)>>>
             <<<Displacing  11/coordinate 1 (+)>>>
             <<<Displacing  11/coordinate 2 (+)>>>
             <<<Displacing  11/coordinate 1 (-)>>>
             <<<Displacing  11/coordinate 2 (-)>>>
             <<<Displacing  12/coordinate 1 (+)>>>
             <<<Displacing  11/coordinate 3 (+)>>>
             <<<Displacing  12/coordinate 3 (+)>>>
             <<<Displacing  12/coordinate 1 (-)>>>
             <<<Displacing  11/coordinate 3 (-)>>>
             <<<Displacing  12/coordinate 3 (-)>>>
             <<<Displacing  12/coordinate 2 (+)>>>
             <<<Displacing  12/coordinate 2 (-)>>>
             <<<Displacing  13/coordinate 1 (+)>>>
             <<<Displacing  13/coordinate 2 (+)>>>
             <<<Displacing  13/coordinate 1 (-)>>>
             <<<Displacing  13/coordinate 3 (+)>>>
             <<<Displacing  13/coordinate 2 (-)>>>
             <<<Displacing  14/coordinate 1 (+)>>>
             <<<Displacing  14/coordinate 2 (+)>>>
             <<<Displacing  13/coordinate 3 (-)>>>
             <<<Displacing  14/coordinate 1 (-)>>>
             <<<Displacing  14/coordinate 2 (-)>>>
             <<<Displacing  14/coordinate 3 (+)>>>
             <<<Displacing  14/coordinate 3 (-)>>>
             <<<Displacing  15/coordinate 1 (+)>>>
             <<<Displacing  15/coordinate 2 (+)>>>
             <<<Displacing  15/coordinate 1 (-)>>>
             <<<Displacing  16/coordinate 2 (+)>>>
             <<<Displacing  16/coordinate 1 (+)>>>
             <<<Displacing  15/coordinate 2 (-)>>>
             <<<Displacing  15/coordinate 3 (+)>>>
             <<<Displacing  16/coordinate 1 (-)>>>
             <<<Displacing  16/coordinate 2 (-)>>>
             <<<Displacing  15/coordinate 3 (-)>>>
             <<<Displacing  16/coordinate 3 (+)>>>
             <<<Displacing  16/coordinate 3 (-)>>>
             <<<Displacing  17/coordinate 1 (+)>>>
             <<<Displacing  17/coordinate 2 (+)>>>
             <<<Displacing  17/coordinate 1 (-)>>>
             <<<Displacing  17/coordinate 2 (-)>>>
             <<<Displacing  17/coordinate 3 (+)>>>
             <<<Displacing  18/coordinate 2 (+)>>>
             <<<Displacing  18/coordinate 2 (-)>>>
             <<<Displacing  18/coordinate 1 (+)>>>
             <<<Displacing  17/coordinate 3 (-)>>>
             <<<Displacing  18/coordinate 1 (-)>>>
             <<<Displacing  18/coordinate 3 (+)>>>
             <<<Displacing  18/coordinate 3 (-)>>>
             <<<Displacing  19/coordinate 1 (+)>>>
             <<<Displacing  19/coordinate 1 (-)>>>
             <<<Displacing  20/coordinate 1 (+)>>>
             <<<Displacing  19/coordinate 2 (+)>>>
             <<<Displacing  19/coordinate 3 (+)>>>
             <<<Displacing  20/coordinate 1 (-)>>>
             <<<Displacing  19/coordinate 2 (-)>>>
             <<<Displacing  19/coordinate 3 (-)>>>
             <<<Displacing  20/coordinate 2 (+)>>>
             <<<Displacing  20/coordinate 2 (-)>>>
             <<<Displacing  20/coordinate 3 (+)>>>
             <<<Displacing  20/coordinate 3 (-)>>>
             <<<Displacing  21/coordinate 1 (+)>>>
             <<<Displacing  21/coordinate 1 (-)>>>
             <<<Displacing  21/coordinate 2 (+)>>>
             <<<Displacing  21/coordinate 2 (-)>>>
             <<<Displacing  21/coordinate 3 (+)>>>
             <<<Displacing  22/coordinate 1 (+)>>>
             <<<Displacing  21/coordinate 3 (-)>>>
             <<<Displacing  22/coordinate 1 (-)>>>
             <<<Displacing  22/coordinate 2 (+)>>>
             <<<Displacing  22/coordinate 2 (-)>>>
             <<<Displacing  22/coordinate 3 (+)>>>
             <<<Displacing  22/coordinate 3 (-)>>>
             <<<Displacing  23/coordinate 1 (+)>>>
             <<<Displacing  23/coordinate 1 (-)>>>
             <<<Displacing  23/coordinate 2 (+)>>>
             <<<Displacing  23/coordinate 2 (-)>>>
             <<<Displacing  24/coordinate 1 (+)>>>
             <<<Displacing  23/coordinate 3 (+)>>>
             <<<Displacing  24/coordinate 2 (+)>>>
             <<<Displacing  24/coordinate 1 (-)>>>
             <<<Displacing  23/coordinate 3 (-)>>>
             <<<Displacing  24/coordinate 2 (-)>>>
             <<<Displacing  24/coordinate 3 (+)>>>
             <<<Displacing  24/coordinate 3 (-)>>>
             <<<Displacing  25/coordinate 1 (+)>>>
             <<<Displacing  25/coordinate 1 (-)>>>
             <<<Displacing  25/coordinate 2 (+)>>>
             <<<Displacing  26/coordinate 1 (+)>>>
             <<<Displacing  25/coordinate 3 (+)>>>
             <<<Displacing  25/coordinate 2 (-)>>>
             <<<Displacing  26/coordinate 2 (+)>>>
             <<<Displacing  26/coordinate 1 (-)>>>
             <<<Displacing  25/coordinate 3 (-)>>>
             <<<Displacing  26/coordinate 2 (-)>>>
             <<<Displacing  26/coordinate 3 (+)>>>
             <<<Displacing  26/coordinate 3 (-)>>>
             <<<Displacing  27/coordinate 1 (+)>>>
             <<<Displacing  27/coordinate 2 (+)>>>
             <<<Displacing  28/coordinate 1 (+)>>>
             <<<Displacing  27/coordinate 2 (-)>>>
             <<<Displacing  27/coordinate 3 (+)>>>
             <<<Displacing  27/coordinate 1 (-)>>>
             <<<Displacing  28/coordinate 1 (-)>>>
             <<<Displacing  28/coordinate 2 (+)>>>
             <<<Displacing  27/coordinate 3 (-)>>>
             <<<Displacing  28/coordinate 2 (-)>>>
             <<<Displacing  28/coordinate 3 (+)>>>
             <<<Displacing  28/coordinate 3 (-)>>>
             <<<Displacing  29/coordinate 1 (+)>>>
             <<<Displacing  29/coordinate 1 (-)>>>
             <<<Displacing  29/coordinate 2 (+)>>>
             <<<Displacing  30/coordinate 1 (+)>>>
             <<<Displacing  29/coordinate 3 (+)>>>
             <<<Displacing  29/coordinate 2 (-)>>>
             <<<Displacing  30/coordinate 1 (-)>>>
             <<<Displacing  29/coordinate 3 (-)>>>
             <<<Displacing  30/coordinate 2 (+)>>>
             <<<Displacing  30/coordinate 2 (-)>>>
             <<<Displacing  30/coordinate 3 (+)>>>
             <<<Displacing  30/coordinate 3 (-)>>>
             <<<Displacing  31/coordinate 1 (+)>>>
             <<<Displacing  32/coordinate 1 (+)>>>
             <<<Displacing  31/coordinate 3 (+)>>>
             <<<Displacing  31/coordinate 1 (-)>>>
             <<<Displacing  31/coordinate 2 (+)>>>
             <<<Displacing  31/coordinate 3 (-)>>>
             <<<Displacing  32/coordinate 1 (-)>>>
             <<<Displacing  31/coordinate 2 (-)>>>
             <<<Displacing  32/coordinate 2 (+)>>>
             <<<Displacing  32/coordinate 2 (-)>>>
             <<<Displacing  32/coordinate 3 (+)>>>
             <<<Displacing  32/coordinate 3 (-)>>>
             <<<Displacing  33/coordinate 1 (+)>>>
             <<<Displacing  33/coordinate 2 (+)>>>
             <<<Displacing  33/coordinate 1 (-)>>>
             <<<Displacing  34/coordinate 1 (+)>>>
             <<<Displacing  33/coordinate 3 (+)>>>
             <<<Displacing  33/coordinate 2 (-)>>>
             <<<Displacing  34/coordinate 1 (-)>>>
             <<<Displacing  33/coordinate 3 (-)>>>
             <<<Displacing  34/coordinate 2 (+)>>>
             <<<Displacing  34/coordinate 2 (-)>>>
             <<<Displacing  34/coordinate 3 (+)>>>
             <<<Displacing  34/coordinate 3 (-)>>>
             <<<Displacing  35/coordinate 3 (+)>>>
             <<<Displacing  35/coordinate 1 (+)>>>
             <<<Displacing  35/coordinate 2 (+)>>>
             <<<Displacing  35/coordinate 3 (-)>>>
             <<<Displacing  35/coordinate 1 (-)>>>
             <<<Displacing  35/coordinate 2 (-)>>>
             <<<Displacing  36/coordinate 1 (+)>>>
             <<<Displacing  36/coordinate 2 (+)>>>
             <<<Displacing  36/coordinate 1 (-)>>>
             <<<Displacing  36/coordinate 2 (-)>>>
             <<<Displacing  36/coordinate 3 (+)>>>
             <<<Displacing  36/coordinate 3 (-)>>>
             <<<Displacing  37/coordinate 1 (+)>>>
             <<<Displacing  37/coordinate 3 (+)>>>
             <<<Displacing  37/coordinate 2 (+)>>>
             <<<Displacing  37/coordinate 3 (-)>>>
             <<<Displacing  37/coordinate 1 (-)>>>
             <<<Displacing  37/coordinate 2 (-)>>>
             <<<Displacing  38/coordinate 1 (+)>>>
             <<<Displacing  38/coordinate 2 (+)>>>
             <<<Displacing  38/coordinate 1 (-)>>>
             <<<Displacing  38/coordinate 2 (-)>>>
             <<<Displacing  38/coordinate 3 (+)>>>
             <<<Displacing  38/coordinate 3 (-)>>>
             <<<Displacing  39/coordinate 1 (+)>>>
             <<<Displacing  39/coordinate 2 (+)>>>
             <<<Displacing  39/coordinate 2 (-)>>>
             <<<Displacing  39/coordinate 3 (+)>>>
             <<<Displacing  39/coordinate 1 (-)>>>
             <<<Displacing  39/coordinate 3 (-)>>>
             <<<Displacing  40/coordinate 1 (+)>>>
             <<<Displacing  40/coordinate 2 (+)>>>
             <<<Displacing  40/coordinate 1 (-)>>>
             <<<Displacing  40/coordinate 2 (-)>>>
             <<<Displacing  40/coordinate 3 (+)>>>
             <<<Displacing  40/coordinate 3 (-)>>>
             <<<Displacing  41/coordinate 1 (+)>>>
             <<<Displacing  41/coordinate 2 (+)>>>
             <<<Displacing  41/coordinate 1 (-)>>>
             <<<Displacing  41/coordinate 3 (+)>>>
             <<<Displacing  41/coordinate 2 (-)>>>
             <<<Displacing  41/coordinate 3 (-)>>>
             <<<Displacing  42/coordinate 2 (+)>>>
             <<<Displacing  42/coordinate 1 (+)>>>
             <<<Displacing  42/coordinate 1 (-)>>>
             <<<Displacing  42/coordinate 2 (-)>>>
             <<<Displacing  42/coordinate 3 (+)>>>
             <<<Displacing  42/coordinate 3 (-)>>>
             <<<Displacing  43/coordinate 2 (+)>>>
             <<<Displacing  43/coordinate 1 (+)>>>
             <<<Displacing  43/coordinate 1 (-)>>>
             <<<Displacing  43/coordinate 2 (-)>>>
             <<<Displacing  43/coordinate 3 (+)>>>
             <<<Displacing  44/coordinate 1 (+)>>>
             <<<Displacing  43/coordinate 3 (-)>>>
             <<<Displacing  44/coordinate 2 (+)>>>
             <<<Displacing  44/coordinate 1 (-)>>>
             <<<Displacing  44/coordinate 2 (-)>>>
             <<<Displacing  44/coordinate 3 (+)>>>
             <<<Displacing  44/coordinate 3 (-)>>>
             <<<Displacing  45/coordinate 1 (+)>>>
             <<<Displacing  45/coordinate 2 (+)>>>
             <<<Displacing  45/coordinate 1 (-)>>>
             <<<Displacing  45/coordinate 2 (-)>>>
             <<<Displacing  46/coordinate 1 (+)>>>
             <<<Displacing  45/coordinate 3 (+)>>>
             <<<Displacing  45/coordinate 3 (-)>>>
             <<<Displacing  46/coordinate 1 (-)>>>
             <<<Displacing  46/coordinate 2 (+)>>>
             <<<Displacing  46/coordinate 2 (-)>>>
             <<<Displacing  46/coordinate 3 (+)>>>
             <<<Displacing  46/coordinate 3 (-)>>>
             <<<Displacing  47/coordinate 2 (+)>>>
             <<<Displacing  47/coordinate 1 (+)>>>
             <<<Displacing  47/coordinate 2 (-)>>>
             <<<Displacing  47/coordinate 1 (-)>>>
             <<<Displacing  48/coordinate 1 (+)>>>
             <<<Displacing  47/coordinate 3 (+)>>>
             <<<Displacing  47/coordinate 3 (-)>>>
             <<<Displacing  48/coordinate 1 (-)>>>
             <<<Displacing  48/coordinate 2 (+)>>>
             <<<Displacing  48/coordinate 2 (-)>>>
             <<<Displacing  48/coordinate 3 (+)>>>
             <<<Displacing  48/coordinate 3 (-)>>>
             <<<Displacing  49/coordinate 1 (+)>>>
             <<<Displacing  49/coordinate 1 (-)>>>
             <<<Displacing  49/coordinate 2 (+)>>>
             <<<Displacing  49/coordinate 2 (-)>>>
             <<<Displacing  49/coordinate 3 (+)>>>
             <<<Displacing  49/coordinate 3 (-)>>>

-----------------------
VIBRATIONAL FREQUENCIES
-----------------------

Scaling factor for frequencies =  1.000000000 (already applied!)

   0:         0.00 cm**-1
   1:         0.00 cm**-1
   2:         0.00 cm**-1
   3:         0.00 cm**-1
   4:         0.00 cm**-1
   5:         0.00 cm**-1
   6:       -36.73 cm**-1 ***imaginary mode***
   7:        21.93 cm**-1
   8:        28.86 cm**-1
   9:        34.30 cm**-1
  10:        38.53 cm**-1
  11:        40.55 cm**-1
  12:        45.39 cm**-1
  13:        49.24 cm**-1
  14:        65.94 cm**-1
  15:        70.97 cm**-1
  16:        83.97 cm**-1
  17:        92.02 cm**-1
  18:        92.60 cm**-1
  19:       105.69 cm**-1
  20:       125.49 cm**-1
  21:       128.15 cm**-1
  22:       138.86 cm**-1
  23:       149.26 cm**-1
  24:       155.52 cm**-1
  25:       190.31 cm**-1
  26:       197.27 cm**-1
  27:       215.54 cm**-1
  28:       217.28 cm**-1
  29:       238.10 cm**-1
  30:       268.10 cm**-1
  31:       268.80 cm**-1
  32:       270.19 cm**-1
  33:       322.00 cm**-1
  34:       334.72 cm**-1
  35:       380.31 cm**-1
  36:       393.87 cm**-1
  37:       394.69 cm**-1
  38:       415.40 cm**-1
  39:       417.30 cm**-1
  40:       429.35 cm**-1
  41:       444.41 cm**-1
  42:       477.81 cm**-1
  43:       587.21 cm**-1
  44:       625.88 cm**-1
  45:       660.11 cm**-1
  46:       733.23 cm**-1
  47:       745.82 cm**-1
  48:       768.37 cm**-1
  49:       774.57 cm**-1
  50:       821.76 cm**-1
  51:       826.25 cm**-1
  52:       832.28 cm**-1
  53:       879.81 cm**-1
  54:       898.30 cm**-1
  55:       922.98 cm**-1
  56:       925.29 cm**-1
  57:       929.59 cm**-1
  58:       933.07 cm**-1
  59:       934.59 cm**-1
  60:       937.44 cm**-1
  61:       940.49 cm**-1
  62:       978.12 cm**-1
  63:       984.90 cm**-1
  64:       999.22 cm**-1
  65:      1000.84 cm**-1
  66:      1003.56 cm**-1
  67:      1059.40 cm**-1
  68:      1065.10 cm**-1
  69:      1068.45 cm**-1
  70:      1095.44 cm**-1
  71:      1099.65 cm**-1
  72:      1111.10 cm**-1
  73:      1122.28 cm**-1
  74:      1123.09 cm**-1
  75:      1146.10 cm**-1
  76:      1151.62 cm**-1
  77:      1173.09 cm**-1
  78:      1179.76 cm**-1
  79:      1200.23 cm**-1
  80:      1200.52 cm**-1
  81:      1207.85 cm**-1
  82:      1233.77 cm**-1
  83:      1238.71 cm**-1
  84:      1267.39 cm**-1
  85:      1276.16 cm**-1
  86:      1277.31 cm**-1
  87:      1279.63 cm**-1
  88:      1280.90 cm**-1
  89:      1289.30 cm**-1
  90:      1295.02 cm**-1
  91:      1303.52 cm**-1
  92:      1351.12 cm**-1
  93:      1352.32 cm**-1
  94:      1358.43 cm**-1
  95:      1378.42 cm**-1
  96:      1382.75 cm**-1
  97:      1426.78 cm**-1
  98:      1427.11 cm**-1
  99:      1427.95 cm**-1
 100:      1448.23 cm**-1
 101:      1492.97 cm**-1
 102:      1502.40 cm**-1
 103:      1502.53 cm**-1
 104:      1505.12 cm**-1
 105:      1506.92 cm**-1
 106:      1507.03 cm**-1
 107:      1507.36 cm**-1
 108:      1509.25 cm**-1
 109:      1512.62 cm**-1
 110:      1514.29 cm**-1
 111:      1542.18 cm**-1
 112:      1548.43 cm**-1
 113:      1558.64 cm**-1
 114:      1563.46 cm**-1
 115:      1570.38 cm**-1
 116:      1666.45 cm**-1
 117:      2840.27 cm**-1
 118:      2847.61 cm**-1
 119:      2895.07 cm**-1
 120:      2933.17 cm**-1
 121:      2934.85 cm**-1
 122:      2940.95 cm**-1
 123:      2943.92 cm**-1
 124:      2959.10 cm**-1
 125:      2961.06 cm**-1
 126:      2963.01 cm**-1
 127:      2969.22 cm**-1
 128:      2973.16 cm**-1
 129:      2978.71 cm**-1
 130:      2980.59 cm**-1
 131:      2980.73 cm**-1
 132:      2985.58 cm**-1
 133:      2986.47 cm**-1
 134:      2994.76 cm**-1
 135:      2995.97 cm**-1
 136:      2998.01 cm**-1
 137:      3055.69 cm**-1
 138:      3061.94 cm**-1
 139:      3067.48 cm**-1
 140:      3074.22 cm**-1
 141:      3080.40 cm**-1
 142:      3365.92 cm**-1
 143:      3391.89 cm**-1
 144:      3415.63 cm**-1
 145:      3420.48 cm**-1
 146:      3592.67 cm**-1


------------
NORMAL MODES
------------

These modes are the cartesian displacements weighted by the diagonal matrix
M(i,i)=1/sqrt(m[i]) where m[i] is the mass of the displaced atom
Thus, these vectors are normalized but *not* orthogonal

                  0          1          2          3          4          5    
      0       0.000000   0.000000   0.000000   0.000000   0.000000   0.000000
      1       0.000000   0.000000   0.000000   0.000000   0.000000   0.000000
      2       0.000000   0.000000   0.000000   0.000000   0.000000   0.000000
      3       0.000000   0.000000   0.000000   0.000000   0.000000   0.000000
      4       0.000000   0.000000   0.000000   0.000000   0.000000   0.000000
      5       0.000000   0.000000   0.000000   0.000000   0.000000   0.000000
      6       0.000000   0.000000   0.000000   0.000000   0.000000   0.000000
      7       0.000000   0.000000   0.000000   0.000000   0.000000   0.000000
      8       0.000000   0.000000   0.000000   0.000000   0.000000   0.000000
      9       0.000000   0.000000   0.000000   0.000000   0.000000   0.000000
     10       0.000000   0.000000   0.000000   0.000000   0.000000   0.000000
     11       0.000000   0.000000   0.000000   0.000000   0.000000   0.000000
     12       0.000000   0.000000   0.000000   0.000000   0.000000   0.000000
     13       0.000000   0.000000   0.000000   0.000000   0.000000   0.000000
     14       0.000000   0.000000   0.000000   0.000000   0.000000   0.000000
     15       0.000000   0.000000   0.000000   0.000000   0.000000   0.000000
     16       0.000000   0.000000   0.000000   0.000000   0.000000   0.000000
     17       0.000000   0.000000   0.000000   0.000000   0.000000   0.000000
     18       0.000000   0.000000   0.000000   0.000000   0.000000   0.000000
     19       0.000000   0.000000   0.000000   0.000000   0.000000   0.000000
     20       0.000000   0.000000   0.000000   0.000000   0.000000   0.000000
     21       0.000000   0.000000   0.000000   0.000000   0.000000   0.000000
     22       0.000000   0.000000   0.000000   0.000000   0.000000   0.000000
     23       0.000000   0.000000   0.000000   0.000000   0.000000   0.000000
     24       0.000000   0.000000   0.000000   0.000000   0.000000   0.000000
     25       0.000000   0.000000   0.000000   0.000000   0.000000   0.000000
     26       0.000000   0.000000   0.000000   0.000000   0.000000   0.000000
     27       0.000000   0.000000   0.000000   0.000000   0.000000   0.000000
     28       0.000000   0.000000   0.000000   0.000000   0.000000   0.000000
     29       0.000000   0.000000   0.000000   0.000000   0.000000   0.000000
     30       0.000000   0.000000   0.000000   0.000000   0.000000   0.000000
     31       0.000000   0.000000   0.000000   0.000000   0.000000   0.000000
     32       0.000000   0.000000   0.000000   0.000000   0.000000   0.000000
     33       0.000000   0.000000   0.000000   0.000000   0.000000   0.000000
     34       0.000000   0.000000   0.000000   0.000000   0.000000   0.000000
     35       0.000000   0.000000   0.000000   0.000000   0.000000   0.000000
     36       0.000000   0.000000   0.000000   0.000000   0.000000   0.000000
     37       0.000000   0.000000   0.000000   0.000000   0.000000   0.000000
     38       0.000000   0.000000   0.000000   0.000000   0.000000   0.000000
     39       0.000000   0.000000   0.000000   0.000000   0.000000   0.000000
     40       0.000000   0.000000   0.000000   0.000000   0.000000   0.000000
     41       0.000000   0.000000   0.000000   0.000000   0.000000   0.000000
     42       0.000000   0.000000   0.000000   0.000000   0.000000   0.000000
     43       0.000000   0.000000   0.000000   0.000000   0.000000   0.000000
     44       0.000000   0.000000   0.000000   0.000000   0.000000   0.000000
     45       0.000000   0.000000   0.000000   0.000000   0.000000   0.000000
     46       0.000000   0.000000   0.000000   0.000000   0.000000   0.000000
     47       0.000000   0.000000   0.000000   0.000000   0.000000   0.000000
     48       0.000000   0.000000   0.000000   0.000000   0.000000   0.000000
     49       0.000000   0.000000   0.000000   0.000000   0.000000   0.000000
     50       0.000000   0.000000   0.000000   0.000000   0.000000   0.000000
     51       0.000000   0.000000   0.000000   0.000000   0.000000   0.000000
     52       0.000000   0.000000   0.000000   0.000000   0.000000   0.000000
     53       0.000000   0.000000   0.000000   0.000000   0.000000   0.000000
     54       0.000000   0.000000   0.000000   0.000000   0.000000   0.000000
     55       0.000000   0.000000   0.000000   0.000000   0.000000   0.000000
     56       0.000000   0.000000   0.000000   0.000000   0.000000   0.000000
     57       0.000000   0.000000   0.000000   0.000000   0.000000   0.000000
     58       0.000000   0.000000   0.000000   0.000000   0.000000   0.000000
     59       0.000000   0.000000   0.000000   0.000000   0.000000   0.000000
     60       0.000000   0.000000   0.000000   0.000000   0.000000   0.000000
     61       0.000000   0.000000   0.000000   0.000000   0.000000   0.000000
     62       0.000000   0.000000   0.000000   0.000000   0.000000   0.000000
     63       0.000000   0.000000   0.000000   0.000000   0.000000   0.000000
     64       0.000000   0.000000   0.000000   0.000000   0.000000   0.000000
     65       0.000000   0.000000   0.000000   0.000000   0.000000   0.000000
     66       0.000000   0.000000   0.000000   0.000000   0.000000   0.000000
     67       0.000000   0.000000   0.000000   0.000000   0.000000   0.000000
     68       0.000000   0.000000   0.000000   0.000000   0.000000   0.000000
     69       0.000000   0.000000   0.000000   0.000000   0.000000   0.000000
     70       0.000000   0.000000   0.000000   0.000000   0.000000   0.000000
     71       0.000000   0.000000   0.000000   0.000000   0.000000   0.000000
     72       0.000000   0.000000   0.000000   0.000000   0.000000   0.000000
     73       0.000000   0.000000   0.000000   0.000000   0.000000   0.000000
     74       0.000000   0.000000   0.000000   0.000000   0.000000   0.000000
     75       0.000000   0.000000   0.000000   0.000000   0.000000   0.000000
     76       0.000000   0.000000   0.000000   0.000000   0.000000   0.000000
     77       0.000000   0.000000   0.000000   0.000000   0.000000   0.000000
     78       0.000000   0.000000   0.000000   0.000000   0.000000   0.000000
     79       0.000000   0.000000   0.000000   0.000000   0.000000   0.000000
     80       0.000000   0.000000   0.000000   0.000000   0.000000   0.000000
     81       0.000000   0.000000   0.000000   0.000000   0.000000   0.000000
     82       0.000000   0.000000   0.000000   0.000000   0.000000   0.000000
     83       0.000000   0.000000   0.000000   0.000000   0.000000   0.000000
     84       0.000000   0.000000   0.000000   0.000000   0.000000   0.000000
     85       0.000000   0.000000   0.000000   0.000000   0.000000   0.000000
     86       0.000000   0.000000   0.000000   0.000000   0.000000   0.000000
     87       0.000000   0.000000   0.000000   0.000000   0.000000   0.000000
     88       0.000000   0.000000   0.000000   0.000000   0.000000   0.000000
     89       0.000000   0.000000   0.000000   0.000000   0.000000   0.000000
     90       0.000000   0.000000   0.000000   0.000000   0.000000   0.000000
     91       0.000000   0.000000   0.000000   0.000000   0.000000   0.000000
     92       0.000000   0.000000   0.000000   0.000000   0.000000   0.000000
     93       0.000000   0.000000   0.000000   0.000000   0.000000   0.000000
     94       0.000000   0.000000   0.000000   0.000000   0.000000   0.000000
     95       0.000000   0.000000   0.000000   0.000000   0.000000   0.000000
     96       0.000000   0.000000   0.000000   0.000000   0.000000   0.000000
     97       0.000000   0.000000   0.000000   0.000000   0.000000   0.000000
     98       0.000000   0.000000   0.000000   0.000000   0.000000   0.000000
     99       0.000000   0.000000   0.000000   0.000000   0.000000   0.000000
    100       0.000000   0.000000   0.000000   0.000000   0.000000   0.000000
    101       0.000000   0.000000   0.000000   0.000000   0.000000   0.000000
    102       0.000000   0.000000   0.000000   0.000000   0.000000   0.000000
    103       0.000000   0.000000   0.000000   0.000000   0.000000   0.000000
    104       0.000000   0.000000   0.000000   0.000000   0.000000   0.000000
    105       0.000000   0.000000   0.000000   0.000000   0.000000   0.000000
    106       0.000000   0.000000   0.000000   0.000000   0.000000   0.000000
    107       0.000000   0.000000   0.000000   0.000000   0.000000   0.000000
    108       0.000000   0.000000   0.000000   0.000000   0.000000   0.000000
    109       0.000000   0.000000   0.000000   0.000000   0.000000   0.000000
    110       0.000000   0.000000   0.000000   0.000000   0.000000   0.000000
    111       0.000000   0.000000   0.000000   0.000000   0.000000   0.000000
    112       0.000000   0.000000   0.000000   0.000000   0.000000   0.000000
    113       0.000000   0.000000   0.000000   0.000000   0.000000   0.000000
    114       0.000000   0.000000   0.000000   0.000000   0.000000   0.000000
    115       0.000000   0.000000   0.000000   0.000000   0.000000   0.000000
    116       0.000000   0.000000   0.000000   0.000000   0.000000   0.000000
    117       0.000000   0.000000   0.000000   0.000000   0.000000   0.000000
    118       0.000000   0.000000   0.000000   0.000000   0.000000   0.000000
    119       0.000000   0.000000   0.000000   0.000000   0.000000   0.000000
    120       0.000000   0.000000   0.000000   0.000000   0.000000   0.000000
    121       0.000000   0.000000   0.000000   0.000000   0.000000   0.000000
    122       0.000000   0.000000   0.000000   0.000000   0.000000   0.000000
    123       0.000000   0.000000   0.000000   0.000000   0.000000   0.000000
    124       0.000000   0.000000   0.000000   0.000000   0.000000   0.000000
    125       0.000000   0.000000   0.000000   0.000000   0.000000   0.000000
    126       0.000000   0.000000   0.000000   0.000000   0.000000   0.000000
    127       0.000000   0.000000   0.000000   0.000000   0.000000   0.000000
    128       0.000000   0.000000   0.000000   0.000000   0.000000   0.000000
    129       0.000000   0.000000   0.000000   0.000000   0.000000   0.000000
    130       0.000000   0.000000   0.000000   0.000000   0.000000   0.000000
    131       0.000000   0.000000   0.000000   0.000000   0.000000   0.000000
    132       0.000000   0.000000   0.000000   0.000000   0.000000   0.000000
    133       0.000000   0.000000   0.000000   0.000000   0.000000   0.000000
    134       0.000000   0.000000   0.000000   0.000000   0.000000   0.000000
    135       0.000000   0.000000   0.000000   0.000000   0.000000   0.000000
    136       0.000000   0.000000   0.000000   0.000000   0.000000   0.000000
    137       0.000000   0.000000   0.000000   0.000000   0.000000   0.000000
    138       0.000000   0.000000   0.000000   0.000000   0.000000   0.000000
    139       0.000000   0.000000   0.000000   0.000000   0.000000   0.000000
    140       0.000000   0.000000   0.000000   0.000000   0.000000   0.000000
    141       0.000000   0.000000   0.000000   0.000000   0.000000   0.000000
    142       0.000000   0.000000   0.000000   0.000000   0.000000   0.000000
    143       0.000000   0.000000   0.000000   0.000000   0.000000   0.000000
    144       0.000000   0.000000   0.000000   0.000000   0.000000   0.000000
    145       0.000000   0.000000   0.000000   0.000000   0.000000   0.000000
    146       0.000000   0.000000   0.000000   0.000000   0.000000   0.000000
                  6          7          8          9         10         11    
      0      -0.028170  -0.100350  -0.007434  -0.005095  -0.043511   0.069684
      1      -0.019323  -0.017443  -0.072293   0.008755  -0.007563   0.011027
      2      -0.118210   0.020881   0.031442  -0.049794   0.037399   0.048452
      3       0.000421  -0.096179  -0.007950  -0.017831  -0.109999   0.038036
      4      -0.057945   0.010679  -0.083487   0.014097  -0.086247  -0.028088
      5      -0.036482  -0.011958   0.045535  -0.069837   0.074899   0.068281
      6       0.010789  -0.104975  -0.012835  -0.016970  -0.102181   0.041910
      7      -0.074119   0.043529  -0.075395   0.004215  -0.178590  -0.072689
      8       0.013839  -0.041005   0.021688  -0.072270   0.053120   0.056314
      9      -0.002631  -0.118023  -0.017199  -0.003354  -0.029032   0.076912
     10      -0.060112   0.050624  -0.054955  -0.012247  -0.193923  -0.076715
     11       0.000058  -0.039966  -0.017309  -0.053277  -0.006369   0.020443
     12      -0.027619  -0.122177  -0.017177   0.009093   0.036293   0.107851
     13      -0.030467   0.024050  -0.041569  -0.017640  -0.115592  -0.035625
     14      -0.063684  -0.009732  -0.034759  -0.034128  -0.045178  -0.003024
     15      -0.040667  -0.113687  -0.012632   0.007985   0.029158   0.105277
     16      -0.008620  -0.009886  -0.049608  -0.006436  -0.022769   0.007239
     17      -0.127265   0.020916  -0.011559  -0.033389  -0.023906   0.011733
     18      -0.042498  -0.090568  -0.001266  -0.005558  -0.050964   0.066182
     19       0.004964  -0.058376  -0.084892   0.019238   0.092824   0.057546
     20      -0.169131   0.060435   0.060712  -0.046484   0.055139   0.068263
     21       0.013631  -0.086027  -0.003761  -0.028201  -0.166556   0.011750
     22      -0.072808   0.004267  -0.100439   0.026355  -0.072251  -0.024383
     23      -0.021941  -0.011316   0.076675  -0.082845   0.118764   0.094427
     24      -0.059451  -0.116025  -0.012915   0.016762   0.078428   0.129197
     25       0.017908  -0.032967  -0.039232  -0.009102   0.039934   0.039802
     26      -0.181111   0.049027  -0.025469  -0.021126  -0.056174  -0.006598
     27       0.005789  -0.124634  -0.020652  -0.002189  -0.022974   0.079413
     28      -0.074416   0.075956  -0.049301  -0.020914  -0.265466  -0.110899
     29       0.040831  -0.061205  -0.034326  -0.052637  -0.023676   0.009734
     30       0.064565  -0.025417   0.080592  -0.095844   0.038966  -0.116257
     31       0.000262   0.047760  -0.004971  -0.015228   0.069621  -0.064438
     32       0.334112   0.085133   0.031982  -0.069328  -0.075084   0.033189
     33       0.060020   0.005280   0.059627  -0.092644   0.085131  -0.109121
     34       0.017632   0.019662   0.014350  -0.023291   0.020316  -0.071149
     35       0.176107   0.041250   0.060870  -0.019093  -0.046678   0.022614
     36       0.104344  -0.035033   0.114124  -0.110044   0.001774  -0.110261
     37       0.028468   0.044340  -0.027171  -0.021803   0.047819  -0.067862
     38       0.362571   0.084873  -0.042837  -0.073317  -0.091327   0.020177
     39       0.000550  -0.019187   0.056285  -0.062434   0.068647  -0.127369
     40      -0.006605  -0.039566   0.089473  -0.036628  -0.020054  -0.079433
     41       0.091962   0.036727   0.010058   0.039524  -0.049318  -0.001553
     42       0.157234   0.027606   0.078500  -0.140996   0.088394  -0.090230
     43       0.091828   0.040445  -0.035516  -0.028020  -0.021016  -0.078570
     44       0.134683   0.030735   0.067062  -0.005143  -0.038643   0.018895
     45       0.004372   0.025757   0.025788  -0.063653   0.131936  -0.110099
     46      -0.015619   0.018678   0.028834  -0.019544   0.049280  -0.066096
     47       0.152654   0.021206   0.120137  -0.035791  -0.025332   0.034316
     48      -0.073469  -0.034949   0.044685  -0.012711   0.071758  -0.162150
     49      -0.031609  -0.038955   0.140639  -0.008805   0.050732  -0.141165
     50       0.116986   0.040825   0.002085   0.020001  -0.065682   0.021961
     51       0.031644  -0.054708   0.087910  -0.109113   0.001346  -0.085950
     52       0.003959  -0.048945   0.072894  -0.054217  -0.063876  -0.047710
     53       0.089870   0.044808  -0.050090   0.039036  -0.088989   0.032840
     54      -0.056010  -0.095023  -0.000691   0.002413   0.002960   0.104259
     55       0.075199  -0.091919  -0.094755   0.020621   0.153347   0.077185
     56      -0.290483   0.105172   0.075872  -0.037934   0.034750   0.089096
     57       0.003587   0.158699  -0.074730  -0.029356  -0.028055   0.024259
     58       0.044922  -0.019402  -0.119207   0.018948   0.116807   0.015648
     59       0.023724  -0.010313  -0.086718  -0.082637  -0.001419  -0.010488
     60       0.022648   0.156738  -0.030376  -0.037662  -0.033262   0.049066
     61       0.078902  -0.057347  -0.136768   0.026477   0.131679   0.027855
     62       0.087795  -0.082051  -0.125866  -0.067543   0.027244   0.008713
     63      -0.020741   0.184019  -0.124039  -0.079299  -0.024142   0.004240
     64       0.074907  -0.061153  -0.175139   0.017312   0.140257   0.015037
     65      -0.024682   0.050322  -0.067662  -0.118354  -0.021925  -0.024900
     66       0.041492   0.080776  -0.010091   0.083335  -0.020352   0.021091
     67      -0.076122   0.064989  -0.079128  -0.006804   0.080599  -0.036081
     68       0.065432   0.013644  -0.141938  -0.143686  -0.005423   0.005353
     69       0.025702   0.100488  -0.032067   0.054277  -0.022181   0.024596
     70      -0.019496   0.062586  -0.085161   0.006588   0.073503  -0.023300
     71       0.056101   0.002661  -0.127599  -0.131620  -0.002256  -0.001261
     72       0.032202   0.091932  -0.004571   0.150521  -0.029570   0.037661
     73      -0.105092   0.040811  -0.063621  -0.057040   0.097793  -0.064656
     74       0.038487   0.000049  -0.127135  -0.150751   0.003543  -0.009069
     75      -0.018681  -0.073369   0.002448  -0.015338  -0.116930   0.023565
     76      -0.058272  -0.063313  -0.089925   0.027583   0.112400   0.080676
     77      -0.002180   0.053045   0.068810  -0.059236   0.075722   0.051645
     78       0.111478  -0.001673   0.094869  -0.111501   0.051829  -0.105061
     79       0.029333   0.076375  -0.060554  -0.020122   0.093642  -0.065704
     80       0.390954   0.106415   0.084247  -0.090886  -0.067657   0.051617
     81       0.030058  -0.101843  -0.013331  -0.026670  -0.152280   0.017524
     82      -0.099982   0.063600  -0.084502   0.008744  -0.237537  -0.103549
     83       0.066009  -0.064046   0.033094  -0.087617   0.081030   0.072769
     84      -0.038572  -0.131792  -0.021156   0.019844   0.092195   0.133301
     85      -0.022746   0.029302  -0.024491  -0.030816  -0.126733  -0.036758
     86      -0.066482  -0.008863  -0.067165  -0.019470  -0.093283  -0.033635
     87       0.003439   0.023103   0.031407  -0.038463   0.134057  -0.153711
     88      -0.006822  -0.085265   0.115997  -0.065087  -0.092715  -0.049529
     89      -0.011334   0.019389   0.050524   0.121078   0.026028  -0.103985
     90      -0.019845   0.058502   0.009603   0.004844   0.204683  -0.198175
     91      -0.023921  -0.075480   0.124165  -0.043487  -0.051416  -0.079801
     92      -0.029019   0.010964   0.086454   0.131591   0.056541  -0.132483
     93       0.056398   0.035892   0.026033  -0.079486   0.118364  -0.109751
     94       0.034579  -0.084721   0.082467  -0.101824  -0.154690   0.007763
     95      -0.033578   0.016003   0.059021   0.139386   0.043202  -0.127422
     96      -0.011999   0.158105  -0.098154  -0.021643  -0.024705   0.008865
     97       0.068771  -0.016031  -0.029094   0.041700   0.097884   0.049862
     98      -0.006397  -0.006623  -0.037776  -0.009656  -0.017800  -0.020380
     99      -0.011290   0.175418  -0.132694  -0.077822  -0.022499   0.006869
    100       0.135126  -0.069979   0.002646   0.062234   0.120334   0.087558
    101      -0.013268  -0.013577  -0.017030   0.027060  -0.021086  -0.022431
    102      -0.042904   0.158364  -0.151526  -0.015577  -0.017316  -0.023083
    103       0.044411   0.006705  -0.032104   0.035601   0.086434   0.038115
    104      -0.058153   0.049066  -0.031147  -0.026070  -0.047813  -0.040563
    105       0.011798   0.134853  -0.008275   0.055012  -0.036144   0.036454
    106       0.040494   0.032464   0.028304   0.045490   0.060978   0.054969
    107       0.034621  -0.065423  -0.024577   0.040816   0.006835  -0.005503
    108       0.013379   0.099176   0.004494   0.126372  -0.044077   0.018790
    109      -0.015519   0.052315  -0.023413   0.050386   0.034177  -0.004466
    110       0.034910  -0.043620  -0.031231  -0.004059   0.012689   0.007308
    111       0.039222   0.171983   0.073669   0.022245  -0.039854   0.099781
    112       0.059846   0.020011   0.031380   0.042894   0.073125   0.067208
    113       0.082914  -0.099684  -0.020414   0.035793   0.039455   0.024229
    114       0.001097   0.114236  -0.043988   0.078891  -0.036569   0.004837
    115       0.059542   0.072740   0.147369   0.045421   0.043329   0.126257
    116       0.012859  -0.103187  -0.010402   0.154983  -0.021963  -0.047925
    117       0.004041   0.144741  -0.052334   0.004740  -0.021797   0.028895
    118       0.102543   0.063644   0.184429   0.045030   0.054933   0.160984
    119       0.008943  -0.121054  -0.007207   0.199457  -0.031352  -0.063929
    120      -0.020433   0.076761  -0.122351   0.111645  -0.034060  -0.058999
    121       0.045241   0.082044   0.149025   0.045428   0.036746   0.123084
    122      -0.021873  -0.077448  -0.001861   0.153085  -0.038856  -0.052498
    123      -0.032817   0.002022   0.043202  -0.017323   0.126741  -0.179108
    124      -0.034516  -0.142044   0.173201  -0.075060  -0.136444  -0.056090
    125      -0.053622   0.019792   0.034498   0.162136   0.040871  -0.141087
    126      -0.026884   0.029947   0.023449  -0.005343   0.161524  -0.186972
    127      -0.038312  -0.170612   0.192828  -0.089448  -0.174251  -0.045372
    128      -0.104968   0.007409   0.056382   0.203088   0.072852  -0.195297
    129      -0.020081  -0.029989   0.067883  -0.049965   0.075247  -0.150549
    130      -0.025742  -0.151322   0.170802  -0.089087  -0.164426  -0.038237
    131      -0.046436   0.029430   0.006716   0.162124   0.028453  -0.129233
    132      -0.076923  -0.009269   0.047435   0.018034   0.137863  -0.219055
    133      -0.059430  -0.145708   0.197620  -0.054284  -0.101928  -0.090725
    134      -0.039243   0.022970   0.029042   0.150417   0.031994  -0.125782
    135       0.014796   0.103661   0.032772   0.155122  -0.059382   0.025336
    136       0.039775   0.113441   0.212258   0.044801   0.021471   0.159422
    137       0.041299  -0.149540  -0.015459   0.211944  -0.018216  -0.064275
    138       0.009784   0.093201   0.013067   0.163893  -0.057421   0.010350
    139       0.048660   0.135300   0.281047   0.054031   0.006838   0.197098
    140       0.031227  -0.165513   0.003798   0.274218  -0.034083  -0.075722
    141       0.015954   0.080006   0.048247   0.217069  -0.070657   0.013781
    142       0.004138   0.131605   0.193301   0.030841   0.016235   0.146920
    143       0.042320  -0.137356  -0.023105   0.178459  -0.011764  -0.057306
    144       0.029649   0.130626   0.092338   0.138728  -0.066877   0.066992
    145       0.052432   0.102856   0.209217   0.049046   0.025498   0.158418
    146       0.071670  -0.180612  -0.032213   0.225372  -0.006895  -0.073180
                 12         13         14         15         16         17    
      0       0.023050  -0.048633   0.006392  -0.014200  -0.005668  -0.000577
      1      -0.040368   0.018044   0.015238   0.067353   0.004250   0.020072
      2      -0.017268  -0.009255   0.000740  -0.007469  -0.001656   0.010645
      3       0.092819  -0.054450  -0.009430  -0.061668  -0.030119   0.000536
      4      -0.046120   0.013884   0.032429   0.079897   0.062966  -0.015343
      5       0.060184  -0.009275  -0.037772  -0.071350  -0.103815   0.058498
      6       0.111180  -0.054584  -0.010141  -0.053571  -0.025472  -0.003578
      7      -0.041043   0.008677   0.027101   0.026940   0.049996  -0.014031
      8       0.178384  -0.012369  -0.046046  -0.059154  -0.083992   0.032941
      9       0.058653  -0.049215   0.005794   0.002892   0.004813  -0.008962
     10      -0.028737   0.006435   0.002872  -0.043840  -0.026468   0.023842
     11       0.217874  -0.014153  -0.013700   0.023590   0.045483  -0.042621
     12      -0.011497  -0.043280   0.022709   0.051017   0.028624  -0.007975
     13      -0.022979   0.009434  -0.017633  -0.061869  -0.085346   0.056236
     14       0.142995  -0.012322   0.029210   0.093457   0.144924  -0.083781
     15      -0.028578  -0.043541   0.023148   0.041884   0.022016  -0.002903
     16      -0.030514   0.015623  -0.011774  -0.005697  -0.066990   0.052735
     17       0.028377  -0.010176   0.036894   0.077743   0.118262  -0.054906
     18       0.007306  -0.049529   0.005078  -0.023348  -0.009830  -0.002844
     19      -0.050919   0.028085   0.025886   0.124966   0.015376   0.037634
     20      -0.134366  -0.019914   0.002730  -0.027620  -0.017714   0.003266
     21       0.133483  -0.061391  -0.021687  -0.106582  -0.054154   0.004051
     22      -0.055217   0.018896   0.050779   0.135135   0.120460  -0.040921
     23       0.026232  -0.009803  -0.061830  -0.132221  -0.196687   0.109687
     24      -0.082114  -0.038229   0.035864   0.078575   0.038513  -0.001299
     25      -0.028249   0.018724  -0.028235  -0.019079  -0.103575   0.076634
     26      -0.028697  -0.008760   0.071140   0.132482   0.183164  -0.084835
     27       0.072047  -0.049149   0.004920   0.009726   0.009843  -0.013243
     28      -0.022821   0.002594  -0.000480  -0.084997  -0.038831   0.026643
     29       0.304188  -0.016894  -0.021509   0.034528   0.066781  -0.066510
     30      -0.064544   0.058130  -0.000578   0.010063   0.009929  -0.020571
     31       0.022139  -0.228432  -0.000833   0.006777   0.012102   0.011128
     32      -0.092534  -0.150282   0.048760   0.003690   0.020968  -0.031405
     33      -0.083548  -0.007763   0.011032   0.024033  -0.000559  -0.017043
     34       0.040568  -0.166344  -0.014070  -0.010949   0.027072   0.008336
     35      -0.084320  -0.073537   0.058726   0.030381  -0.016422  -0.029737
     36      -0.071367   0.079080   0.013760  -0.005324   0.013743  -0.013703
     37       0.045373  -0.205859  -0.022569  -0.007717   0.029859   0.007667
     38      -0.036776  -0.119477  -0.012324  -0.014411   0.057143  -0.043090
     39      -0.032489   0.043834  -0.015838   0.005974   0.013202  -0.031699
     40       0.010343  -0.046157   0.002377   0.006719   0.002349   0.025932
     41       0.018253  -0.060694   0.004734  -0.010447   0.021395  -0.064510
     42      -0.151547  -0.053308   0.045487   0.045101  -0.016897   0.005531
     43       0.103362  -0.201107  -0.060512  -0.060070   0.084209  -0.022707
     44      -0.079948  -0.053994   0.059912   0.035984  -0.024746  -0.029022
     45      -0.066571  -0.052821   0.005628   0.028894  -0.005758  -0.024348
     46       0.011351  -0.168999   0.007326   0.012828  -0.000034   0.021787
     47      -0.160967  -0.038943   0.108938   0.077063  -0.068977   0.005310
     48       0.041785   0.087724  -0.044216  -0.014324   0.025981  -0.032112
     49       0.000350  -0.004619   0.051876   0.055281  -0.048868   0.111594
     50      -0.000048  -0.081951   0.001834  -0.015495   0.028862  -0.082742
     51      -0.081592   0.090543  -0.019144   0.001461   0.016999  -0.063692
     52       0.010839  -0.047824  -0.022508  -0.016578   0.026188  -0.017444
     53       0.058321  -0.101340  -0.045940  -0.056322   0.069345  -0.131143
     54      -0.040823  -0.053770   0.010573  -0.004493   0.000229  -0.005079
     55      -0.054020   0.048240   0.035474   0.172369   0.005382   0.076205
     56      -0.195202  -0.055824  -0.003824  -0.072498   0.012236  -0.057975
     57       0.019134   0.064635  -0.055912   0.000641  -0.007688   0.017420
     58      -0.000538   0.061871   0.003112  -0.144331   0.009843  -0.170342
     59      -0.011567   0.110590   0.063191  -0.033339  -0.013070   0.083576
     60       0.003644   0.086691  -0.118500  -0.043271   0.029426   0.064291
     61      -0.022701   0.107923  -0.020298  -0.178526   0.050975  -0.165098
     62      -0.050089   0.193812   0.027514  -0.092633   0.058403   0.084963
     63       0.036579   0.047438  -0.042432   0.002109  -0.028360   0.008503
     64      -0.018871   0.108256   0.000496  -0.179451   0.044848  -0.186692
     65       0.019789   0.050884   0.075493   0.003402  -0.063598   0.093072
     66      -0.004711   0.115922   0.317389  -0.133712   0.031895   0.055413
     67       0.081365  -0.178664   0.040119  -0.053819  -0.042297   0.088700
     68      -0.019127   0.145995  -0.192123   0.023863  -0.004981   0.026321
     69       0.002319   0.103940   0.185296  -0.083398   0.014963   0.045804
     70       0.063739  -0.144128   0.045359  -0.067635  -0.027854  -0.016658
     71      -0.016439   0.140475  -0.120025   0.000626   0.001011   0.074535
     72       0.003722   0.074296   0.389651  -0.161810   0.040911   0.079655
     73       0.083363  -0.159349   0.066767  -0.054302  -0.049989   0.167725
     74      -0.013542   0.141016  -0.136618   0.009995  -0.006742   0.099700
     75       0.042896  -0.051064  -0.001711  -0.052665  -0.020325  -0.007895
     76      -0.057282   0.024948   0.024998   0.127776   0.033777   0.024070
     77      -0.158210  -0.007115   0.014765   0.002573  -0.056787   0.049672
     78      -0.096376   0.004334   0.022043   0.011501   0.005277  -0.011044
     79       0.033510  -0.273764  -0.024553   0.006565   0.028246   0.006081
     80      -0.148061  -0.208933   0.096554   0.005619   0.005025  -0.013290
[...]
  28:       217.28    0.000000  (  0.000000   0.000000   0.000000)
  29:       238.10    0.000000  (  0.000000   0.000000   0.000000)
  30:       268.10    0.000000  (  0.000000   0.000000   0.000000)
  31:       268.80    0.000000  (  0.000000   0.000000   0.000000)
  32:       270.19    0.000000  (  0.000000   0.000000   0.000000)
  33:       322.00    0.000000  (  0.000000   0.000000   0.000000)
  34:       334.72    0.000000  (  0.000000   0.000000   0.000000)
  35:       380.31    0.000000  (  0.000000   0.000000   0.000000)
  36:       393.87    0.000000  (  0.000000   0.000000   0.000000)
  37:       394.69    0.000000  (  0.000000   0.000000   0.000000)
  38:       415.40    0.000000  (  0.000000   0.000000   0.000000)
  39:       417.30    0.000000  (  0.000000   0.000000   0.000000)
  40:       429.35    0.000000  (  0.000000   0.000000   0.000000)
  41:       444.41    0.000000  (  0.000000   0.000000   0.000000)
  42:       477.81    0.000000  (  0.000000   0.000000   0.000000)
  43:       587.21    0.000000  (  0.000000   0.000000   0.000000)
  44:       625.88    0.000000  (  0.000000   0.000000   0.000000)
  45:       660.11    0.000000  (  0.000000   0.000000   0.000000)
  46:       733.23    0.000000  (  0.000000   0.000000   0.000000)
  47:       745.82    0.000000  (  0.000000   0.000000   0.000000)
  48:       768.37    0.000000  (  0.000000   0.000000   0.000000)
  49:       774.57    0.000000  (  0.000000   0.000000   0.000000)
  50:       821.76    0.000000  (  0.000000   0.000000   0.000000)
  51:       826.25    0.000000  (  0.000000   0.000000   0.000000)
  52:       832.28    0.000000  (  0.000000   0.000000   0.000000)
  53:       879.81    0.000000  (  0.000000   0.000000   0.000000)
  54:       898.30    0.000000  (  0.000000   0.000000   0.000000)
  55:       922.98    0.000000  (  0.000000   0.000000   0.000000)
  56:       925.29    0.000000  (  0.000000   0.000000   0.000000)
  57:       929.59    0.000000  (  0.000000   0.000000   0.000000)
  58:       933.07    0.000000  (  0.000000   0.000000   0.000000)
  59:       934.59    0.000000  (  0.000000   0.000000   0.000000)
  60:       937.44    0.000000  (  0.000000   0.000000   0.000000)
  61:       940.49    0.000000  (  0.000000   0.000000   0.000000)
  62:       978.12    0.000000  (  0.000000   0.000000   0.000000)
  63:       984.90    0.000000  (  0.000000   0.000000   0.000000)
  64:       999.22    0.000000  (  0.000000   0.000000   0.000000)
  65:      1000.84    0.000000  (  0.000000   0.000000   0.000000)
  66:      1003.56    0.000000  (  0.000000   0.000000   0.000000)
  67:      1059.40    0.000000  (  0.000000   0.000000   0.000000)
  68:      1065.10    0.000000  (  0.000000   0.000000   0.000000)
  69:      1068.45    0.000000  (  0.000000   0.000000   0.000000)
  70:      1095.44    0.000000  (  0.000000   0.000000   0.000000)
  71:      1099.65    0.000000  (  0.000000   0.000000   0.000000)
  72:      1111.10    0.000000  (  0.000000   0.000000   0.000000)
  73:      1122.28    0.000000  (  0.000000   0.000000   0.000000)
  74:      1123.09    0.000000  (  0.000000   0.000000   0.000000)
  75:      1146.10    0.000000  (  0.000000   0.000000   0.000000)
  76:      1151.62    0.000000  (  0.000000   0.000000   0.000000)
  77:      1173.09    0.000000  (  0.000000   0.000000   0.000000)
  78:      1179.76    0.000000  (  0.000000   0.000000   0.000000)
  79:      1200.23    0.000000  (  0.000000   0.000000   0.000000)
  80:      1200.52    0.000000  (  0.000000   0.000000   0.000000)
  81:      1207.85    0.000000  (  0.000000   0.000000   0.000000)
  82:      1233.77    0.000000  (  0.000000   0.000000   0.000000)
  83:      1238.71    0.000000  (  0.000000   0.000000   0.000000)
  84:      1267.39    0.000000  (  0.000000   0.000000   0.000000)
  85:      1276.16    0.000000  (  0.000000   0.000000   0.000000)
  86:      1277.31    0.000000  (  0.000000   0.000000   0.000000)
  87:      1279.63    0.000000  (  0.000000   0.000000   0.000000)
  88:      1280.90    0.000000  (  0.000000   0.000000   0.000000)
  89:      1289.30    0.000000  (  0.000000   0.000000   0.000000)
  90:      1295.02    0.000000  (  0.000000   0.000000   0.000000)
  91:      1303.52    0.000000  (  0.000000   0.000000   0.000000)
  92:      1351.12    0.000000  (  0.000000   0.000000   0.000000)
  93:      1352.32    0.000000  (  0.000000   0.000000   0.000000)
  94:      1358.43    0.000000  (  0.000000   0.000000   0.000000)
  95:      1378.42    0.000000  (  0.000000   0.000000   0.000000)
  96:      1382.75    0.000000  (  0.000000   0.000000   0.000000)
  97:      1426.78    0.000000  (  0.000000   0.000000   0.000000)
  98:      1427.11    0.000000  (  0.000000   0.000000   0.000000)
  99:      1427.95    0.000000  (  0.000000   0.000000   0.000000)
 100:      1448.23    0.000000  (  0.000000   0.000000   0.000000)
 101:      1492.97    0.000000  (  0.000000   0.000000   0.000000)
 102:      1502.40    0.000000  (  0.000000   0.000000   0.000000)
 103:      1502.53    0.000000  (  0.000000   0.000000   0.000000)
 104:      1505.12    0.000000  (  0.000000   0.000000   0.000000)
 105:      1506.92    0.000000  (  0.000000   0.000000   0.000000)
 106:      1507.03    0.000000  (  0.000000   0.000000   0.000000)
 107:      1507.36    0.000000  (  0.000000   0.000000   0.000000)
 108:      1509.25    0.000000  (  0.000000   0.000000   0.000000)
 109:      1512.62    0.000000  (  0.000000   0.000000   0.000000)
 110:      1514.29    0.000000  (  0.000000   0.000000   0.000000)
 111:      1542.18    0.000000  (  0.000000   0.000000   0.000000)
 112:      1548.43    0.000000  (  0.000000   0.000000   0.000000)
 113:      1558.64    0.000000  (  0.000000   0.000000   0.000000)
 114:      1563.46    0.000000  (  0.000000   0.000000   0.000000)
 115:      1570.38    0.000000  (  0.000000   0.000000   0.000000)
 116:      1666.45    0.000000  (  0.000000   0.000000   0.000000)
 117:      2840.27    0.000000  (  0.000000   0.000000   0.000000)
 118:      2847.61    0.000000  (  0.000000   0.000000   0.000000)
 119:      2895.07    0.000000  (  0.000000   0.000000   0.000000)
 120:      2933.17    0.000000  (  0.000000   0.000000   0.000000)
 121:      2934.85    0.000000  (  0.000000   0.000000   0.000000)
 122:      2940.95    0.000000  (  0.000000   0.000000   0.000000)
 123:      2943.92    0.000000  (  0.000000   0.000000   0.000000)
 124:      2959.10    0.000000  (  0.000000   0.000000   0.000000)
 125:      2961.06    0.000000  (  0.000000   0.000000   0.000000)
 126:      2963.01    0.000000  (  0.000000   0.000000   0.000000)
 127:      2969.22    0.000000  (  0.000000   0.000000   0.000000)
 128:      2973.16    0.000000  (  0.000000   0.000000   0.000000)
 129:      2978.71    0.000000  (  0.000000   0.000000   0.000000)
 130:      2980.59    0.000000  (  0.000000   0.000000   0.000000)
 131:      2980.73    0.000000  (  0.000000   0.000000   0.000000)
 132:      2985.58    0.000000  (  0.000000   0.000000   0.000000)
 133:      2986.47    0.000000  (  0.000000   0.000000   0.000000)
 134:      2994.76    0.000000  (  0.000000   0.000000   0.000000)
 135:      2995.97    0.000000  (  0.000000   0.000000   0.000000)
 136:      2998.01    0.000000  (  0.000000   0.000000   0.000000)
 137:      3055.69    0.000000  (  0.000000   0.000000   0.000000)
 138:      3061.94    0.000000  (  0.000000   0.000000   0.000000)
 139:      3067.48    0.000000  (  0.000000   0.000000   0.000000)
 140:      3074.22    0.000000  (  0.000000   0.000000   0.000000)
 141:      3080.40    0.000000  (  0.000000   0.000000   0.000000)
 142:      3365.92    0.000000  (  0.000000   0.000000   0.000000)
 143:      3391.89    0.000000  (  0.000000   0.000000   0.000000)
 144:      3415.63    0.000000  (  0.000000   0.000000   0.000000)
 145:      3420.48    0.000000  (  0.000000   0.000000   0.000000)
 146:      3592.67    0.000000  (  0.000000   0.000000   0.000000)

The first frequency considered to be a vibration is 7
The total number of vibrations considered is 140


--------------------------
THERMOCHEMISTRY AT 298.15K
--------------------------

Temperature         ... 298.15 K
Pressure            ... 1.00 atm
Total Mass          ... 270.42 AMU

Throughout the following assumptions are being made:
  (1) The electronic state is orbitally nondegenerate
  (2) There are no thermally accessible electronically excited states
  (3) Hindered rotations indicated by low frequency modes are not
      treated as such but are treated as vibrations and this may
      cause some error
  (4) All equations used are the standard statistical mechanics
      equations for an ideal gas
  (5) All vibrations are strictly harmonic

freq.      21.93  E(vib)   ...       0.56 
freq.      28.86  E(vib)   ...       0.55 
freq.      34.30  E(vib)   ...       0.54 
freq.      38.53  E(vib)   ...       0.54 
freq.      40.55  E(vib)   ...       0.54 
freq.      45.39  E(vib)   ...       0.53 
freq.      49.24  E(vib)   ...       0.52 
freq.      65.94  E(vib)   ...       0.50 
freq.      70.97  E(vib)   ...       0.50 
freq.      83.97  E(vib)   ...       0.48 
freq.      92.02  E(vib)   ...       0.47 
freq.      92.60  E(vib)   ...       0.47 
freq.     105.69  E(vib)   ...       0.45 
freq.     125.49  E(vib)   ...       0.43 
freq.     128.15  E(vib)   ...       0.43 
freq.     138.86  E(vib)   ...       0.42 
freq.     149.26  E(vib)   ...       0.40 
freq.     155.52  E(vib)   ...       0.40 
freq.     190.31  E(vib)   ...       0.36 
freq.     197.27  E(vib)   ...       0.35 
freq.     215.54  E(vib)   ...       0.34 
freq.     217.28  E(vib)   ...       0.34 
freq.     238.10  E(vib)   ...       0.32 
freq.     268.10  E(vib)   ...       0.29 
freq.     268.80  E(vib)   ...       0.29 
freq.     270.19  E(vib)   ...       0.29 
freq.     322.00  E(vib)   ...       0.25 
freq.     334.72  E(vib)   ...       0.24 
freq.     380.31  E(vib)   ...       0.21 
freq.     393.87  E(vib)   ...       0.20 
freq.     394.69  E(vib)   ...       0.20 
freq.     415.40  E(vib)   ...       0.18 
freq.     417.30  E(vib)   ...       0.18 
freq.     429.35  E(vib)   ...       0.18 
freq.     444.41  E(vib)   ...       0.17 
freq.     477.81  E(vib)   ...       0.15 
freq.     587.21  E(vib)   ...       0.10 
freq.     625.88  E(vib)   ...       0.09 
freq.     660.11  E(vib)   ...       0.08 
freq.     733.23  E(vib)   ...       0.06 
freq.     745.82  E(vib)   ...       0.06 
freq.     768.37  E(vib)   ...       0.06 
freq.     774.57  E(vib)   ...       0.05 
freq.     821.76  E(vib)   ...       0.05 
freq.     826.25  E(vib)   ...       0.04 
freq.     832.28  E(vib)   ...       0.04 
freq.     879.81  E(vib)   ...       0.04 
freq.     898.30  E(vib)   ...       0.03 
freq.     922.98  E(vib)   ...       0.03 
freq.     925.29  E(vib)   ...       0.03 
freq.     929.59  E(vib)   ...       0.03 
freq.     933.07  E(vib)   ...       0.03 
freq.     934.59  E(vib)   ...       0.03 
freq.     937.44  E(vib)   ...       0.03 
freq.     940.49  E(vib)   ...       0.03 
freq.     978.12  E(vib)   ...       0.03 
freq.     984.90  E(vib)   ...       0.02 
freq.     999.22  E(vib)   ...       0.02 
freq.    1000.84  E(vib)   ...       0.02 
freq.    1003.56  E(vib)   ...       0.02 
freq.    1059.40  E(vib)   ...       0.02 
freq.    1065.10  E(vib)   ...       0.02 
freq.    1068.45  E(vib)   ...       0.02 
freq.    1095.44  E(vib)   ...       0.02 
freq.    1099.65  E(vib)   ...       0.02 
freq.    1111.10  E(vib)   ...       0.01 
freq.    1122.28  E(vib)   ...       0.01 
freq.    1123.09  E(vib)   ...       0.01 
freq.    1146.10  E(vib)   ...       0.01 
freq.    1151.62  E(vib)   ...       0.01 
freq.    1173.09  E(vib)   ...       0.01 
freq.    1179.76  E(vib)   ...       0.01 
freq.    1200.23  E(vib)   ...       0.01 
freq.    1200.52  E(vib)   ...       0.01 
freq.    1207.85  E(vib)   ...       0.01 
freq.    1233.77  E(vib)   ...       0.01 
freq.    1238.71  E(vib)   ...       0.01 
freq.    1267.39  E(vib)   ...       0.01 
freq.    1276.16  E(vib)   ...       0.01 
freq.    1277.31  E(vib)   ...       0.01 
freq.    1279.63  E(vib)   ...       0.01 
freq.    1280.90  E(vib)   ...       0.01 
freq.    1289.30  E(vib)   ...       0.01 
freq.    1295.02  E(vib)   ...       0.01 
freq.    1303.52  E(vib)   ...       0.01 
freq.    1351.12  E(vib)   ...       0.01 
freq.    1352.32  E(vib)   ...       0.01 
freq.    1358.43  E(vib)   ...       0.01 
freq.    1378.42  E(vib)   ...       0.01 
freq.    1382.75  E(vib)   ...       0.01 
freq.    1426.78  E(vib)   ...       0.00 
freq.    1427.11  E(vib)   ...       0.00 
freq.    1427.95  E(vib)   ...       0.00 
freq.    1448.23  E(vib)   ...       0.00 
freq.    1492.97  E(vib)   ...       0.00 
freq.    1502.40  E(vib)   ...       0.00 
freq.    1502.53  E(vib)   ...       0.00 
freq.    1505.12  E(vib)   ...       0.00 
freq.    1506.92  E(vib)   ...       0.00 
freq.    1507.03  E(vib)   ...       0.00 
freq.    1507.36  E(vib)   ...       0.00 
freq.    1509.25  E(vib)   ...       0.00 
freq.    1512.62  E(vib)   ...       0.00 
freq.    1514.29  E(vib)   ...       0.00 
freq.    1542.18  E(vib)   ...       0.00 
freq.    1548.43  E(vib)   ...       0.00 
freq.    1558.64  E(vib)   ...       0.00 
freq.    1563.46  E(vib)   ...       0.00 
freq.    1570.38  E(vib)   ...       0.00 
freq.    1666.45  E(vib)   ...       0.00 
freq.    2840.27  E(vib)   ...       0.00 
freq.    2847.61  E(vib)   ...       0.00 
freq.    2895.07  E(vib)   ...       0.00 
freq.    2933.17  E(vib)   ...       0.00 
freq.    2934.85  E(vib)   ...       0.00 
freq.    2940.95  E(vib)   ...       0.00 
freq.    2943.92  E(vib)   ...       0.00 
freq.    2959.10  E(vib)   ...       0.00 
freq.    2961.06  E(vib)   ...       0.00 
freq.    2963.01  E(vib)   ...       0.00 
freq.    2969.22  E(vib)   ...       0.00 
freq.    2973.16  E(vib)   ...       0.00 
freq.    2978.71  E(vib)   ...       0.00 
freq.    2980.59  E(vib)   ...       0.00 
freq.    2980.73  E(vib)   ...       0.00 
freq.    2985.58  E(vib)   ...       0.00 
freq.    2986.47  E(vib)   ...       0.00 
freq.    2994.76  E(vib)   ...       0.00 
freq.    2995.97  E(vib)   ...       0.00 
freq.    2998.01  E(vib)   ...       0.00 
freq.    3055.69  E(vib)   ...       0.00 
freq.    3061.94  E(vib)   ...       0.00 
freq.    3067.48  E(vib)   ...       0.00 
freq.    3074.22  E(vib)   ...       0.00 
freq.    3080.40  E(vib)   ...       0.00 
freq.    3365.92  E(vib)   ...       0.00 
freq.    3391.89  E(vib)   ...       0.00 
freq.    3415.63  E(vib)   ...       0.00 
freq.    3420.48  E(vib)   ...       0.00 
freq.    3592.67  E(vib)   ...       0.00 

------------
INNER ENERGY
------------

The inner energy is: U= E(el) + E(ZPE) + E(vib) + E(rot) + E(trans)
    E(el)   - is the total energy from the electronic structure calculation
              = E(kin-el) + E(nuc-el) + E(el-el) + E(nuc-nuc)
    E(ZPE)  - the the zero temperature vibrational energy from the frequency calculation
    E(vib)  - the the finite temperature correction to E(ZPE) due to population
              of excited vibrational states
    E(rot)  - is the rotational thermal energy
    E(trans)- is the translational thermal energy

Summary of contributions to the inner energy U:
Electronic energy                ...    -61.36467027 Eh
Zero point energy                ...      0.42461271 Eh     266.45 kcal/mol
Thermal vibrational correction   ...      0.02339798 Eh      14.68 kcal/mol
Thermal rotational correction    ...      0.00141627 Eh       0.89 kcal/mol
Thermal translational correction ...      0.00141627 Eh       0.89 kcal/mol
-----------------------------------------------------------------------
Total thermal energy                    -60.91382703 Eh


Summary of corrections to the electronic energy:
(perhaps to be used in another calculation)
Total thermal correction                  0.02623052 Eh      16.46 kcal/mol
Non-thermal (ZPE) correction              0.42461271 Eh     266.45 kcal/mol
-----------------------------------------------------------------------
Total correction                          0.45084324 Eh     282.91 kcal/mol


--------
ENTHALPY
--------

The enthalpy is H = U + kB*T
                kB is Boltzmann's constant
Total free energy                 ...    -60.91382703 Eh 
Thermal Enthalpy correction       ...      0.00094421 Eh       0.59 kcal/mol
-----------------------------------------------------------------------
Total Enthalpy                    ...    -60.91288282 Eh


Note: Only C1 symmetry has been detected, increase convergence thresholds 
      if your molecule has a higher symmetry. Symmetry factor of 1.0 is   
      used for the rotational entropy correction. 
 

Note: Rotational entropy computed according to Herzberg 
Infrared and Raman Spectra, Chapter V,1, Van Nostrand Reinhold, 1945 
Point Group:  C1, Symmetry Number:   1  
Rotational constants in cm-1:     0.014070     0.006751     0.005690 

Vibrational entropy computed according to the QRRHO of S. Grimme
Chem.Eur.J. 2012 18 9955


-------
ENTROPY
-------

The entropy contributions are T*S = T*(S(el)+S(vib)+S(rot)+S(trans))
     S(el)   - electronic entropy
     S(vib)  - vibrational entropy
     S(rot)  - rotational entropy
     S(trans)- translational entropy
The entropies will be listed as mutliplied by the temperature to get
units of energy

Electronic entropy                ...      0.00000000 Eh      0.00 kcal/mol
Vibrational entropy               ...      0.04344182 Eh     27.26 kcal/mol
Rotational entropy                ...      0.01632345 Eh     10.24 kcal/mol
Translational entropy             ...      0.02028014 Eh     12.73 kcal/mol
-----------------------------------------------------------------------
Final entropy term                ...      0.08004541 Eh     50.23 kcal/mol

In case the symmetry of your molecule has not been determined correctly
or in case you have a reason to use a different symmetry number we print 
out the resulting rotational entropy values for sn=1,12 :
 --------------------------------------------------------
|  sn= 1 | S(rot)=       0.01632345 Eh     10.24 kcal/mol|
|  sn= 2 | S(rot)=       0.01566899 Eh      9.83 kcal/mol|
|  sn= 3 | S(rot)=       0.01528616 Eh      9.59 kcal/mol|
|  sn= 4 | S(rot)=       0.01501454 Eh      9.42 kcal/mol|
|  sn= 5 | S(rot)=       0.01480385 Eh      9.29 kcal/mol|
|  sn= 6 | S(rot)=       0.01463170 Eh      9.18 kcal/mol|
|  sn= 7 | S(rot)=       0.01448616 Eh      9.09 kcal/mol|
|  sn= 8 | S(rot)=       0.01436008 Eh      9.01 kcal/mol|
|  sn= 9 | S(rot)=       0.01424887 Eh      8.94 kcal/mol|
|  sn=10 | S(rot)=       0.01414939 Eh      8.88 kcal/mol|
|  sn=11 | S(rot)=       0.01405940 Eh      8.82 kcal/mol|
|  sn=12 | S(rot)=       0.01397725 Eh      8.77 kcal/mol|
 --------------------------------------------------------


-------------------
GIBBS FREE ENERGY
-------------------

The Gibbs free energy is G = H - T*S

Total enthalpy                    ...    -60.91288282 Eh 
Total entropy correction          ...     -0.08004541 Eh    -50.23 kcal/mol
-----------------------------------------------------------------------
Final Gibbs free energy         ...    -60.99292823 Eh

For completeness - the Gibbs free energy minus the electronic energy
G-E(el)                           ...      0.37174204 Eh    233.27 kcal/mol


Total Time for Numerical Frequencies  :       187.072 sec
Time for Reference State(s)           :         0.187 sec
Time for Displacements                :       174.446 sec

Timings for individual modules:

Sum of individual times         ...        0.422 sec (=   0.007 min)
XTB module                      ...        0.422 sec (=   0.007 min) 100.0 %
                             ****ORCA TERMINATED NORMALLY****
TOTAL RUN TIME: 0 days 0 hours 3 minutes 8 seconds 221 msec
(SLURM) EXECUTION TIME: 188.245525427 seconds.
