(SLURM) JOB ID:         327

                                 *****************
                                 * O   R   C   A *
                                 *****************

           --- An Ab Initio, DFT and Semiempirical electronic structure package ---

                  #######################################################
                  #                        -***-                        #
                  #          Department of theory and spectroscopy      #
                  #               Directorship: Frank Neese             #
                  #        Max Planck Institute fuer Kohlenforschung    #
                  #                Kaiser Wilhelm Platz 1               #
                  #                 D-45470 Muelheim/Ruhr               #
                  #                      Germany                        #
                  #                                                     #
                  #                  All rights reserved                #
                  #                        -***-                        #
                  #######################################################


                         Program Version 4.2.1 -  RELEASE  -


 With contributions from (in alphabetic order):
   Daniel Aravena         : Magnetic Suceptibility
   Michael Atanasov       : Ab Initio Ligand Field Theory (pilot matlab implementation)
   Alexander A. Auer      : GIAO ZORA, VPT2
   Ute Becker             : Parallelization
   Giovanni Bistoni       : ED, misc. LED, open-shell LED, HFLD
   Martin Brehm           : Molecular dynamics
   Dmytro Bykov           : SCF Hessian
   Vijay G. Chilkuri      : MRCI spin determinant printing, contributions to CSF-ICE
   Dipayan Datta          : RHF DLPNO-CCSD density
   Achintya Kumar Dutta   : EOM-CC, STEOM-CC
   Dmitry Ganyushin       : Spin-Orbit,Spin-Spin,Magnetic field MRCI
   Miquel Garcia          : C-PCM Hessian, Gaussian charge scheme
   Yang Guo               : DLPNO-NEVPT2, CIM, IAO-localization
   Andreas Hansen         : Spin unrestricted coupled pair/coupled cluster methods
   Benjamin Helmich-Paris : CASSCF linear response (MC-RPA)
   Lee Huntington         : MR-EOM, pCC
   Robert Izsak           : Overlap fitted RIJCOSX, COSX-SCS-MP3, EOM
   Christian Kollmar      : KDIIS, OOCD, Brueckner-CCSD(T), CCSD density
   Simone Kossmann        : Meta GGA functionals, TD-DFT gradient, OOMP2, MP2 Hessian
   Martin Krupicka        : AUTO-CI
   Lucas Lang             : DCDCAS
   Dagmar Lenk            : GEPOL surface, SMD
   Dimitrios Liakos       : Extrapolation schemes; Compound Job, initial MDCI parallelization
   Dimitrios Manganas     : Further ROCIS development; embedding schemes
   Dimitrios Pantazis     : SARC Basis sets
   Taras Petrenko         : DFT Hessian,TD-DFT gradient, ASA, ECA, R-Raman, ABS, FL, XAS/XES, NRVS
   Peter Pinski           : DLPNO-MP2, DLPNO-MP2 Gradient
   Christoph Reimann      : Effective Core Potentials
   Marius Retegan         : Local ZFS, SOC
   Christoph Riplinger    : Optimizer, TS searches, QM/MM, DLPNO-CCSD(T), (RO)-DLPNO pert. Triples
   Tobias Risthaus        : Range-separated hybrids, TD-DFT gradient, RPA, STAB
   Michael Roemelt        : Original ROCIS implementation
   Masaaki Saitow         : Open-shell DLPNO-CCSD energy and density
   Barbara Sandhoefer     : DKH picture change effects
   Avijit Sen             : IP-ROCIS
   Kantharuban Sivalingam : CASSCF convergence, NEVPT2, FIC-MRCI
   Bernardo de Souza      : ESD, SOC TD-DFT
   Georgi Stoychev        : AutoAux, RI-MP2 NMR
   Willem Van den Heuvel  : Paramagnetic NMR
   Boris Wezisla          : Elementary symmetry handling
   Frank Wennmohs         : Technical directorship


 We gratefully acknowledge several colleagues who have allowed us to
 interface, adapt or use parts of their codes:
   Stefan Grimme, W. Hujo, H. Kruse,             : VdW corrections, initial TS optimization,
                  C. Bannwarth                     DFT functionals, gCP, sTDA/sTD-DF
   Ed Valeev, F. Pavosevic, A. Kumar             : LibInt (2-el integral package), F12 methods
   Garnet Chan, S. Sharma, J. Yang, R. Olivares  : DMRG
   Ulf Ekstrom                                   : XCFun DFT Library
   Mihaly Kallay                                 : mrcc  (arbitrary order and MRCC methods)
   Andreas Klamt, Michael Diedenhofen            : otool_cosmo (COSMO solvation model)
   Jiri Pittner, Ondrej Demel                    : Mk-CCSD
   Frank Weinhold                                : gennbo (NPA and NBO analysis)
   Christopher J. Cramer and Donald G. Truhlar   : smd solvation model
   Lars Goerigk                                  : TD-DFT with DH, B97 family of functionals
   V. Asgeirsson, H. Jonsson                     : NEB implementation
   FAccTs GmbH                                   : IRC, NEB, NEB-TS, Multilevel, MM, QM/MM, CI optimization
   S Lehtola, MJT Oliveira, MAL Marques          : LibXC Library


 Your calculation uses the libint2 library for the computation of 2-el integrals
 For citations please refer to: http://libint.valeyev.net

 Your ORCA version has been built with support for libXC version: 4.2.3
 For citations please refer to: https://tddft.org/programs/libxc/

 This ORCA versions uses:
   CBLAS   interface :  Fast vector & matrix operations
   LAPACKE interface :  Fast linear algebra routines
   SCALAPACK package :  Parallel linear algebra routines




***************************************
The coordinates will be read from file: init.xyz
***************************************


Your calculation utilizes the SMD solvation module
Please cite in your paper:
A.V. Marenich, C.J. Cramer, D.G. Truhlar J. Phys. Chem. B, 113, (2009), 6378 

Your calculation utilizes the semiempirical GFN2-xTB method
Please cite in your paper:
C. Bannwarth, Ehlert S., S. Grimme,  J. Chem. Theory Comput., 15, (2019), 1652.
   

----- Orbital basis set information -----
Your calculation utilizes the basis: def2-SVP
   F. Weigend and R. Ahlrichs, Phys. Chem. Chem. Phys. 7, 3297 (2005).

================================================================================
                                        WARNINGS
                       Please study these warnings very carefully!
================================================================================

WARNING: Gradients needed for Numerical Frequencies
  ===> : Setting RunTyp to EnGrad

WARNING: The environment variable RSH_COMMAND is not set!
  ===> : All Displacements for the Numerical Hessian calculation
         will be started on localhost

WARNING: Found dipole moment calculation with XTB calculation
  ===> : Switching off dipole moment calculation


INFO   : the flag for use of LIBINT has been found!

================================================================================
                                       INPUT FILE
================================================================================
NAME = /tmp/slurm-scratch/freq.327/freq.inp
|  1> ! XTB2 NumFreq
|  2> %maxcore 1450
|  3> 
|  4> * xyzfile 0 1 init.xyz
|  5> 
|  6> %cpcm
|  7>  smd true
|  8>  smdsolvent "ch2cl2"
|  9> end
| 10> %pal nprocs 8 end
| 11> 
| 12>                          ****END OF INPUT****
================================================================================

                     *******************************
                     * Energy+Gradient Calculation *
                     *******************************

      -----------------------------------------------------------      
     |                   =====================                   |     
     |                           x T B                           |     
     |                   =====================                   |     
     |                         S. Grimme                         |     
     |          Mulliken Center for Theoretical Chemistry        |     
     |                    University of Bonn                     |     
      -----------------------------------------------------------      

   * xtb version 6.3.0 (preview) compiled by 'ehlert@majestix' on 2020-01-15

   This program is distributed in the hope that it will be useful,
   but WITHOUT ANY WARRANTY; without even the implied warranty of
   MERCHANTABILITY or FITNESS FOR A PARTICULAR PURPOSE.
   
   FOR NON-COMMERCIAL, ACADEMIA USE ONLY.
   
   Cite this work as:
   * S. Grimme, C. Bannwarth, P. Shushkov, J. Chem. Theory Comput., 2017,
     13, 1989-2009. DOI: 10.1021/acs.jctc.7b00118
   * C. Bannwarth, S. Ehlert and S. Grimme., J. Chem. Theory Comput., 2019,
     15, 1652-1671. DOI: 10.1021/acs.jctc.8b01176
   * P. Pracht, E. Caldeweyher, S. Ehlert, S. Grimme, ChemRxiv, 2019, preprint.
     DOI: 10.26434/chemrxiv.8326202.v1
   * S. Grimme, S. Spicher unpublished
   
   for DFT-D4:
   * E. Caldeweyher, C. Bannwarth and S. Grimme, J. Chem. Phys., 2017,
     147, 034112. DOI: 10.1063/1.4993215
   * E. Caldeweyher, S. Ehlert, A. Hansen, H. Neugebauer, S. Spicher,
     C. Bannwarth and S. Grimme, J. Chem. Phys., 2019, 150, 154122.
     DOI: 10.1063/1.5090222
   
   for sTDA-xTB:
   * S. Grimme and C. Bannwarth, J. Chem. Phys., 2016, 145, 054103.
     DOI: 10.1063/1.4959605
   
   in the mass-spec context:
   * V. Asgeirsson, C. Bauer and S. Grimme, Chem. Sci., 2017, 8, 4879.
     DOI: 10.1039/c7sc00601b
   
   for metadynamics refer to:
   * S. Grimme, J. Chem. Theory Comput., 2019, 155, 2847-2862
     DOI: 10.1021/acs.jctc.9b00143
   
   with help from (in alphabetical order)
   C. Bannwarth, F. Bohle, G. Brandenburg, E. Caldeweyher, M. Checinski,
   S. Dohm, S. Ehlert, S. Ehrlich, F. März, H. Neugebauer, J. Pisarek,
   P. Pracht, P. Shushkov, and S. Spicher.
   
 * started run on 2020/11/28 at 13:55:04.048     

           -------------------------------------------------
          |                Calculation Setup                |
           -------------------------------------------------

          program call               : /opt/orca/otool_xtb /tmp/slurm-scratch/freq.327/freq_XTB.xyz --grad -c 0 -u 0 -P 8 --namespace /tmp/slurm-scratch/freq.327/freq --gbsa CH2Cl2
          hostname                   : headnode-pbs
          calculation namespace      : /tmp/slurm-scratch/freq.327/freq
          coordinate file            : /tmp/slurm-scratch/freq.327/freq_XTB.xyz
          omp threads                :                     8
          number of atoms            :                    46
          number of electrons        :                   104
          charge                     :                     0
          spin                       :                   0.0
          first test random number   :      0.13980472548092


molecular fragmentation (1/2 indicates fragments):
1111111111111112222221112221111122211122221111
# atoms in fragment 1/2:    30    16
 fragment masses (1/2) :      179.26       73.14
CMA distance (Bohr)    :   9.216
constraining FC (au)   :  0.0500

########################################################################
# WARNING! Please study the warnings concerning your input carefully
#  - Process number higher than OMP_NUM_THREADS, I hope you know what you are doing.
########################################################################

           ------------------------------------------------- 
          |                 G F N 2 - x T B                 |
          | Geometry, Frequencies, Noncovalent interactions |
          |            JCTC 2019 parametrisation            |
           ------------------------------------------------- 
             k(s)              :                1.8500
             k(p)              :                2.2300
             k(d)              :                2.2300
             k(f)              :                2.0000
             kEN (H0ij)        :               -2.0000
             D4 a1             :                0.5200
             D4 a2             :                5.0000
             D4 s6             :                1.0000
             D4 s8             :                2.7000
             D4 s9             :                5.0000
             alphaj            :                2.0000

  Z AO/shell   Hii/eV     exponent
  1     Wed Apr 25 08:07:45 CEST 2018   EN: 2.200 GM2: 0.406  GM3: 0.0800  RAES: 1.40
     1s    -10.707211    1.230000
  6     Wed Apr 25 08:07:45 CEST 2018   EN: 2.550 GM2: 0.538  GM3: 0.1500  RAES: 3.00
     2s    -13.970922    2.096432
     2p    -10.063292    1.800000
  7     Wed Apr 25 08:07:45 CEST 2018   EN: 3.040 GM2: 0.461  GM3:-0.0640  RAES: 1.90
     2s    -16.686243    2.339881
     2p    -12.523956    2.014332
  8     Wed Apr 25 08:07:45 CEST 2018   EN: 3.440 GM2: 0.452  GM3:-0.0517  RAES: 1.80
     2s    -20.229985    2.439742
     2p    -15.503117    2.137023

 Solvent             : CH2Cl2
 Using internal parameter file: .param_gbsa2_CH2Cl2
 Gsolv ref. state (COSMO-RS): gsolv [1 M gas/solution]
 temperature (mdtemp)       :    298.150000000000     
 dielectric constant        :    8.93000000000000     
 rho                        :    1.33000000000000     
 mass                       :    84.9300000000000     
 surface tension            :    15.5689454083859     
 probe radius               :   0.719875900000000     
 Gshift (Eh)                :   4.440829173451759E-003
 c1                         :    1.49173776000000     
 soset                      :   0.000000000000000E+000
 HB correction              :  F
           ------------------------------------------------- 
          |        Self-Consistent Charge Iterations        |
           ------------------------------------------------- 

          ...................................................
          :                      SETUP                      :
          :.................................................:
          :  # basis functions                 100          :
          :  # atomic orbitals                 100          :
          :  # shells                           64          :
          :  # electrons                       104          :
          :  max. iterations                   250          :
          :  Hamiltonian                  GFN2-xTB          :
          :  GBSA solvation                   true          :
          :  PC potential                    false          :
          :  electronic temp.          300.0000000     K    :
          :  accuracy                    1.0000000          :
          :  -> integral cutoff          0.2500000E+02      :
          :  -> integral neglect         0.1000000E-07      :
          :  -> SCF convergence          0.1000000E-05 Eh   :
          :  -> wf. convergence          0.1000000E-03 e    :
          :  Broyden damping             0.4000000          :
          ...................................................
  Checking positiv definite overlap ...  done.
 

 iter      E             dE          RMSdq      gap      omega  full diag
   1    -56.9016218 -0.569016E+02  0.348E+00    3.72       0.0  T
   2    -57.0333021 -0.131680E+00  0.190E+00    3.42       1.0  T
   3    -57.0380690 -0.476689E-02  0.855E-01    2.69       1.0  T
   4    -57.0378506  0.218372E-03  0.351E-01    2.57       1.0  T
   5    -57.0421209 -0.427033E-02  0.833E-02    2.71       1.0  T
   6    -57.0421802 -0.592416E-04  0.395E-02    2.75       1.0  T
   7    -57.0421931 -0.129521E-04  0.163E-02    2.76       1.0  T
   8    -57.0421955 -0.239975E-05  0.631E-03    2.76       2.3  T
   9    -57.0421961 -0.602579E-06  0.287E-03    2.76       5.1  T
  10    -57.0421962 -0.482785E-07  0.122E-03    2.76      12.1  T
  11    -57.0421962 -0.816864E-08  0.607E-04    2.76      24.3  T
  12    -57.0421962 -0.502025E-08  0.161E-04    2.76      91.5  T

   *** convergence criteria satisfied after 12 iterations ***

         #    Occupation            Energy/Eh            Energy/eV
      -------------------------------------------------------------
         1        2.0000           -0.6719418             -18.2845
       ...           ...                  ...                  ...
        46        2.0000           -0.4264076             -11.6031
        47        2.0000           -0.4203046             -11.4371
        48        2.0000           -0.4052778             -11.0282
        49        2.0000           -0.4026672             -10.9571
        50        2.0000           -0.3948153             -10.7435
        51        2.0000           -0.3427388              -9.3264
        52        2.0000           -0.3283360              -8.9345 (HOMO)
        53                         -0.2269857              -6.1766 (LUMO)
        54                         -0.2246142              -6.1121
        55                         -0.1028593              -2.7989
        56                         -0.0511459              -1.3918
        57                         -0.0241336              -0.6567
       ...                                ...                  ...
       100                          0.6429421              17.4953
      -------------------------------------------------------------
                  HL-Gap            0.1013504 Eh            2.7579 eV
             Fermi-level           -0.2776609 Eh           -7.5555 eV

 SCC (total)                   0 d,  0 h,  0 min,  0.059 sec
 SCC setup                      ...        0 min,  0.002 sec (  3.354%)
 Dispersion                     ...        0 min,  0.001 sec (  1.270%)
 integral evaluation            ...        0 min,  0.013 sec ( 21.162%)
 zeroth order Hamiltonian       ...        0 min,  0.000 sec (  0.025%)
 iterations                     ...        0 min,  0.028 sec ( 46.438%)
 molecular gradient             ...        0 min,  0.016 sec ( 26.871%)
 printout                       ...        0 min,  0.000 sec (  0.812%)

         :::::::::::::::::::::::::::::::::::::::::::::::::::::
         ::                     SUMMARY                     ::
         :::::::::::::::::::::::::::::::::::::::::::::::::::::
         :: total energy             -56.277507968575 Eh    ::
         :: total w/o Gsasa/hb       -56.254934351119 Eh    ::
         :: gradient norm              0.035050013007 Eh/a0 ::
         :: HOMO-LUMO gap              2.757883853169 eV    ::
         ::.................................................::
         :: SCC energy               -57.064769794104 Eh    ::
         :: -> isotropic ES            0.117283844225 Eh    ::
         :: -> anisotropic ES          0.002534877015 Eh    ::
         :: -> anisotropic XC          0.029698221491 Eh    ::
         :: -> dispersion             -0.038249475530 Eh    ::
         :: -> Gsolv                  -0.041163507022 Eh    ::
         ::    -> Gborn               -0.018589889566 Eh    ::
         ::    -> Gsasa               -0.027014446630 Eh    ::
         ::    -> Ghb                  0.000000000000 Eh    ::
         ::    -> Gshift               0.004440829173 Eh    ::
         :: repulsion energy           0.786701153143 Eh    ::
         :: add. restraining           0.000000000000 Eh    ::
         :::::::::::::::::::::::::::::::::::::::::::::::::::::

           -------------------------------------------------
          |                Property Printout                |
           -------------------------------------------------

    * Orbital Energies and Occupations

         #    Occupation            Energy/Eh            Energy/eV
      -------------------------------------------------------------
         1        2.0000           -0.6719418             -18.2845
       ...           ...                  ...                  ...
        40        2.0000           -0.4504622             -12.2577
        41        2.0000           -0.4467441             -12.1565
        42        2.0000           -0.4430096             -12.0549
        43        2.0000           -0.4423937             -12.0381
        44        2.0000           -0.4304923             -11.7143
        45        2.0000           -0.4293719             -11.6838
        46        2.0000           -0.4264076             -11.6031
        47        2.0000           -0.4203046             -11.4371
        48        2.0000           -0.4052778             -11.0282
        49        2.0000           -0.4026672             -10.9571
        50        2.0000           -0.3948153             -10.7435
        51        2.0000           -0.3427388              -9.3264
        52        2.0000           -0.3283360              -8.9345 (HOMO)
        53                         -0.2269857              -6.1766 (LUMO)
        54                         -0.2246142              -6.1121
        55                         -0.1028593              -2.7989
        56                         -0.0511459              -1.3918
        57                         -0.0241336              -0.6567
        58                          0.0310790               0.8457
        59                          0.0493575               1.3431
        60                          0.0746048               2.0301
        61                          0.0872835               2.3751
        62                          0.0934117               2.5419
        63                          0.1016642               2.7664
       ...                                ...                  ...
       100                          0.6429421              17.4953
      -------------------------------------------------------------
                  HL-Gap            0.1013504 Eh            2.7579 eV
             Fermi-level           -0.2776609 Eh           -7.5555 eV

     #   Z        covCN         q      C6AA      α(0)
     1   6 C      2.914    -0.035    28.862     8.810
     2   6 C      2.919    -0.046    29.139     8.852
     3   6 C      2.962    -0.031    28.766     8.797
     4   6 C      2.920    -0.034    28.844     8.807
     5   6 C      2.914    -0.035    28.877     8.812
     6   6 C      2.915    -0.036    28.884     8.813
     7   1 H      0.925     0.016     2.787     2.611
     8   1 H      0.925     0.036     2.500     2.473
     9   1 H      0.925     0.036     2.507     2.476
    10   7 N      3.121    -0.268    26.929     7.707
    11   1 H      1.197     0.253     0.860     1.448
    12   6 C      3.734     0.004    20.604     6.478
    13   1 H      0.924     0.040     2.445     2.445
    14   1 H      0.924     0.053     2.288     2.365
    15   1 H      0.860     0.161     1.332     1.808
    16   7 N      3.363    -0.250    26.487     7.644
    17   1 H      0.860     0.199     1.112     1.652
    18   1 H      0.858     0.248     0.892     1.479
    19   6 C      3.732    -0.006    20.781     6.507
    20   1 H      0.925     0.063     2.170     2.303
    21   1 H      0.924     0.062     2.181     2.309
    22   6 C      3.648     0.212    17.562     6.021
    23   1 H      0.921    -0.051     4.113     3.172
    24   8 O      0.855    -0.749    30.070     7.352
    25   6 C      3.802    -0.073    21.899     6.662
    26   1 H      0.924     0.053     2.288     2.366
    27   1 H      0.924     0.047     2.359     2.402
    28   6 C      3.801    -0.061    21.673     6.628
    29   1 H      0.924     0.031     2.567     2.505
    30   1 H      0.924     0.035     2.517     2.481
    31   1 H      0.925     0.034     2.525     2.485
    32   1 H      0.925     0.034     2.536     2.490
    33   6 C      3.800    -0.057    21.591     6.616
    34   1 H      0.924     0.038     2.479     2.462
    35   1 H      0.924     0.041     2.434     2.440
    36   6 C      3.800    -0.055    21.561     6.611
    37   1 H      0.924     0.033     2.545     2.495
    38   1 H      0.924     0.037     2.485     2.465
    39   6 C      3.750    -0.106    22.595     6.779
    40   1 H      0.924     0.038     2.473     2.459
    41   1 H      0.924     0.040     2.448     2.447
    42   1 H      0.924     0.040     2.447     2.446
    43   6 C      3.750    -0.103    22.525     6.769
    44   1 H      0.924     0.040     2.450     2.448
    45   1 H      0.924     0.034     2.530     2.487
    46   1 H      0.924     0.038     2.479     2.462

 Mol. C6AA /au·bohr⁶  :      17256.259227
 Mol. C8AA /au·bohr⁸  :     377840.603902
 Mol. α(0) /au        :        200.548152


Wiberg/Mayer (AO) data.
largest (>0.10) Wiberg bond orders for each atom
          total WBO             WBO to atom ...
     1  C   3.991        C    2 1.451    C    6 1.430    H   32 0.971    C    4 0.110
     2  C   3.991        C    1 1.451    C    3 1.406    H    7 0.967    C    5 0.112
     3  C   3.980        C    4 1.423    C    2 1.406    C   22 0.946    C    6 0.110
     4  C   3.991        C    5 1.435    C    3 1.423    H    8 0.965    C    1 0.110
     5  C   3.991        C    6 1.445    C    4 1.435    H   31 0.971    C    2 0.112
     6  C   3.991        C    5 1.445    C    1 1.430    H    9 0.971    C    3 0.110
     7  H   1.000        C    2 0.967
     8  H   0.999        C    4 0.965
     9  H   0.998        C    6 0.971
    10  N   3.421        C   12 0.995    H   15 0.946    C   22 0.816    H   11 0.379    N   16 0.131
    11  H   0.936        N   16 0.532    N   10 0.379
    12  C   3.973        C   28 1.005    N   10 0.995    H   14 0.972    H   13 0.971
    13  H   0.998        C   12 0.971
    14  H   0.997        C   12 0.972
    15  H   0.974        N   10 0.946
    16  N   3.511        C   19 0.983    H   17 0.945    H   18 0.850    H   11 0.532    N   10 0.131
    17  H   0.960        N   16 0.945
    18  H   0.938        N   16 0.850
    19  C   3.953        C   25 1.007    N   16 0.983    H   21 0.971    H   20 0.971
    20  H   0.996        C   19 0.971
    21  H   0.996        C   19 0.971
    22  C   3.958        O   24 1.217    C    3 0.946    H   23 0.926    N   10 0.816
    23  H   0.997        C   22 0.926
    24  O   1.531        C   22 1.217
    25  C   3.992        C   19 1.007    C   33 1.005    H   27 0.975    H   26 0.974
    26  H   0.997        C   25 0.974
    27  H   0.998        C   25 0.975
    28  C   3.996        C   36 1.005    C   12 1.005    H   30 0.975    H   29 0.973
    29  H   0.999        C   28 0.973
    30  H   0.999        C   28 0.975
    31  H   0.998        C    5 0.971
    32  H   0.998        C    1 0.971
    33  C   3.995        C   39 1.020    C   25 1.005    H   34 0.977    H   35 0.977
    34  H   0.999        C   33 0.977
    35  H   0.998        C   33 0.977
    36  C   3.996        C   43 1.020    C   28 1.005    H   37 0.978    H   38 0.977
    37  H   0.999        C   36 0.978
    38  H   0.999        C   36 0.977
    39  C   3.995        C   33 1.020    H   40 0.987    H   42 0.987    H   41 0.987
    40  H   0.999        C   39 0.987
    41  H   0.998        C   39 0.987
    42  H   0.998        C   39 0.987
    43  C   3.996        C   36 1.020    H   45 0.988    H   46 0.987    H   44 0.987
    44  H   0.998        C   43 0.987
    45  H   0.999        C   43 0.988
    46  H   0.999        C   43 0.987

molecular dipole:
                 x           y           z       tot (Debye)
 q only:       -1.158      -2.772      -1.616
   full:       -1.380      -2.406      -1.619       8.163
molecular quadrupole (traceless):
                xx          xy          yy          xz          yz          zz
 q only:       -2.269     -10.480      32.061     -22.992     -17.939     -29.792
  q+dip:       -1.273     -10.503      30.775     -24.186     -19.325     -29.503
   full:       -2.073      -9.466      31.783     -24.281     -17.526     -29.711

           -------------------------------------------------
          |                Property Printout                |
           -------------------------------------------------

    * Orbital Energies and Occupations

         #    Occupation            Energy/Eh            Energy/eV
      -------------------------------------------------------------
         1        2.0000           -0.6719418             -18.2845
       ...           ...                  ...                  ...
        40        2.0000           -0.4504622             -12.2577
        41        2.0000           -0.4467441             -12.1565
        42        2.0000           -0.4430096             -12.0549
        43        2.0000           -0.4423937             -12.0381
        44        2.0000           -0.4304923             -11.7143
        45        2.0000           -0.4293719             -11.6838
        46        2.0000           -0.4264076             -11.6031
        47        2.0000           -0.4203046             -11.4371
        48        2.0000           -0.4052778             -11.0282
        49        2.0000           -0.4026672             -10.9571
        50        2.0000           -0.3948153             -10.7435
        51        2.0000           -0.3427388              -9.3264
        52        2.0000           -0.3283360              -8.9345 (HOMO)
        53                         -0.2269857              -6.1766 (LUMO)
        54                         -0.2246142              -6.1121
        55                         -0.1028593              -2.7989
        56                         -0.0511459              -1.3918
        57                         -0.0241336              -0.6567
        58                          0.0310790               0.8457
        59                          0.0493575               1.3431
        60                          0.0746048               2.0301
        61                          0.0872835               2.3751
        62                          0.0934117               2.5419
        63                          0.1016642               2.7664
       ...                                ...                  ...
       100                          0.6429421              17.4953
      -------------------------------------------------------------
                  HL-Gap            0.1013504 Eh            2.7579 eV
             Fermi-level           -0.2776609 Eh           -7.5555 eV

     #   Z        covCN         q      C6AA      α(0)
     1   6 C      2.914    -0.035    28.862     8.810
     2   6 C      2.919    -0.046    29.139     8.852
     3   6 C      2.962    -0.031    28.766     8.797
     4   6 C      2.920    -0.034    28.844     8.807
     5   6 C      2.914    -0.035    28.877     8.812
     6   6 C      2.915    -0.036    28.884     8.813
     7   1 H      0.925     0.016     2.787     2.611
     8   1 H      0.925     0.036     2.500     2.473
     9   1 H      0.925     0.036     2.507     2.476
    10   7 N      3.121    -0.268    26.929     7.707
    11   1 H      1.197     0.253     0.860     1.448
    12   6 C      3.734     0.004    20.604     6.478
    13   1 H      0.924     0.040     2.445     2.445
    14   1 H      0.924     0.053     2.288     2.365
    15   1 H      0.860     0.161     1.332     1.808
    16   7 N      3.363    -0.250    26.487     7.644
    17   1 H      0.860     0.199     1.112     1.652
    18   1 H      0.858     0.248     0.892     1.479
    19   6 C      3.732    -0.006    20.781     6.507
    20   1 H      0.925     0.063     2.170     2.303
    21   1 H      0.924     0.062     2.181     2.309
    22   6 C      3.648     0.212    17.562     6.021
    23   1 H      0.921    -0.051     4.113     3.172
    24   8 O      0.855    -0.749    30.070     7.352
    25   6 C      3.802    -0.073    21.899     6.662
    26   1 H      0.924     0.053     2.288     2.366
    27   1 H      0.924     0.047     2.359     2.402
    28   6 C      3.801    -0.061    21.673     6.628
    29   1 H      0.924     0.031     2.567     2.505
    30   1 H      0.924     0.035     2.517     2.481
    31   1 H      0.925     0.034     2.525     2.485
    32   1 H      0.925     0.034     2.536     2.490
    33   6 C      3.800    -0.057    21.591     6.616
    34   1 H      0.924     0.038     2.479     2.462
    35   1 H      0.924     0.041     2.434     2.440
    36   6 C      3.800    -0.055    21.561     6.611
    37   1 H      0.924     0.033     2.545     2.495
    38   1 H      0.924     0.037     2.485     2.465
    39   6 C      3.750    -0.106    22.595     6.779
    40   1 H      0.924     0.038     2.473     2.459
    41   1 H      0.924     0.040     2.448     2.447
    42   1 H      0.924     0.040     2.447     2.446
    43   6 C      3.750    -0.103    22.525     6.769
    44   1 H      0.924     0.040     2.450     2.448
    45   1 H      0.924     0.034     2.530     2.487
    46   1 H      0.924     0.038     2.479     2.462

 Mol. C6AA /au·bohr⁶  :      17256.259227
 Mol. C8AA /au·bohr⁸  :     377840.603902
 Mol. α(0) /au        :        200.548152


Wiberg/Mayer (AO) data.
largest (>0.10) Wiberg bond orders for each atom
          total WBO             WBO to atom ...
     1  C   3.991        C    2 1.451    C    6 1.430    H   32 0.971    C    4 0.110
     2  C   3.991        C    1 1.451    C    3 1.406    H    7 0.967    C    5 0.112
     3  C   3.980        C    4 1.423    C    2 1.406    C   22 0.946    C    6 0.110
     4  C   3.991        C    5 1.435    C    3 1.423    H    8 0.965    C    1 0.110
     5  C   3.991        C    6 1.445    C    4 1.435    H   31 0.971    C    2 0.112
     6  C   3.991        C    5 1.445    C    1 1.430    H    9 0.971    C    3 0.110
     7  H   1.000        C    2 0.967
     8  H   0.999        C    4 0.965
     9  H   0.998        C    6 0.971
    10  N   3.421        C   12 0.995    H   15 0.946    C   22 0.816    H   11 0.379    N   16 0.131
    11  H   0.936        N   16 0.532    N   10 0.379
    12  C   3.973        C   28 1.005    N   10 0.995    H   14 0.972    H   13 0.971
    13  H   0.998        C   12 0.971
    14  H   0.997        C   12 0.972
    15  H   0.974        N   10 0.946
    16  N   3.511        C   19 0.983    H   17 0.945    H   18 0.850    H   11 0.532    N   10 0.131
    17  H   0.960        N   16 0.945
    18  H   0.938        N   16 0.850
    19  C   3.953        C   25 1.007    N   16 0.983    H   21 0.971    H   20 0.971
    20  H   0.996        C   19 0.971
    21  H   0.996        C   19 0.971
    22  C   3.958        O   24 1.217    C    3 0.946    H   23 0.926    N   10 0.816
    23  H   0.997        C   22 0.926
    24  O   1.531        C   22 1.217
    25  C   3.992        C   19 1.007    C   33 1.005    H   27 0.975    H   26 0.974
    26  H   0.997        C   25 0.974
    27  H   0.998        C   25 0.975
    28  C   3.996        C   36 1.005    C   12 1.005    H   30 0.975    H   29 0.973
    29  H   0.999        C   28 0.973
    30  H   0.999        C   28 0.975
    31  H   0.998        C    5 0.971
    32  H   0.998        C    1 0.971
    33  C   3.995        C   39 1.020    C   25 1.005    H   34 0.977    H   35 0.977
    34  H   0.999        C   33 0.977
    35  H   0.998        C   33 0.977
    36  C   3.996        C   43 1.020    C   28 1.005    H   37 0.978    H   38 0.977
    37  H   0.999        C   36 0.978
    38  H   0.999        C   36 0.977
    39  C   3.995        C   33 1.020    H   40 0.987    H   42 0.987    H   41 0.987
    40  H   0.999        C   39 0.987
    41  H   0.998        C   39 0.987
    42  H   0.998        C   39 0.987
    43  C   3.996        C   36 1.020    H   45 0.988    H   46 0.987    H   44 0.987
    44  H   0.998        C   43 0.987
    45  H   0.999        C   43 0.988
    46  H   0.999        C   43 0.987

molecular dipole:
                 x           y           z       tot (Debye)
 q only:       -1.158      -2.772      -1.616
   full:       -1.380      -2.406      -1.619       8.163
molecular quadrupole (traceless):
                xx          xy          yy          xz          yz          zz
 q only:       -2.269     -10.480      32.061     -22.992     -17.939     -29.792
  q+dip:       -1.273     -10.503      30.775     -24.186     -19.325     -29.503
   full:       -2.073      -9.466      31.783     -24.281     -17.526     -29.711


           -------------------------------------------------
          | TOTAL ENERGY              -56.277507968575 Eh   |
          | GRADIENT NORM               0.035050013007 Eh/α |
          | HOMO-LUMO GAP               2.757883853169 eV   |
           -------------------------------------------------

------------------------------------------------------------------------
 * finished run on 2020/11/28 at 13:55:04.154     
------------------------------------------------------------------------
 total:
 * wall-time:     0 d,  0 h,  0 min,  0.106 sec
 *  cpu-time:     0 d,  0 h,  0 min,  0.871 sec
 * ratio c/w:     8.249 speedup
 SCF:
 * wall-time:     0 d,  0 h,  0 min,  0.060 sec
 *  cpu-time:     0 d,  0 h,  0 min,  0.516 sec
 * ratio c/w:     8.604 speedup


-------------------------   --------------------
FINAL SINGLE POINT ENERGY       -56.277507968570
-------------------------   --------------------


----------------------------------------------------------------------------
                           ORCA NUMERICAL FREQUENCIES
                              (8-process run)
----------------------------------------------------------------------------

Number of atoms                ... 46
Central differences            ... used
Number of displacements        ... 276
Numerical increment            ... 5.000e-03 bohr
IR-spectrum generation         ... on
Raman-spectrum generation      ... off
Surface Crossing Hessian       ... off
List of participating nodes    ...  /tmp/slurm-scratch/freq.327/freq.hostnames

The output will be reduced. Please look at the following files:
SCF program output             ... >/tmp/slurm-scratch/freq.327/freq.lastscf
Integral program output        ... >/tmp/slurm-scratch/freq.327/freq.lastint
Gradient program output        ... >/tmp/slurm-scratch/freq.327/freq.lastgrad
Dipole moment program output   ... >/tmp/slurm-scratch/freq.327/freq.lastmom
AutoCI program output          ... >/tmp/slurm-scratch/freq.327/freq.lastautoci


         <<< Energy and Gradient at the input geometry >>>

        <<< Energy and Gradient at displaced geometries >>>
             <<<Displacing   1/coordinate 3 (+)>>>
             <<<Displacing   3/coordinate 2 (+)>>>
             <<<Displacing   2/coordinate 3 (+)>>>
             <<<Displacing   3/coordinate 1 (+)>>>
             <<<Displacing   2/coordinate 2 (+)>>>
             <<<Displacing   1/coordinate 2 (+)>>>
             <<<Displacing   3/coordinate 2 (-)>>>
             <<<Displacing   2/coordinate 2 (-)>>>
             <<<Displacing   1/coordinate 3 (-)>>>
             <<<Displacing   2/coordinate 3 (-)>>>
             <<<Displacing   1/coordinate 2 (-)>>>
             <<<Displacing   3/coordinate 1 (-)>>>
             <<<Displacing   1/coordinate 1 (+)>>>
             <<<Displacing   2/coordinate 1 (+)>>>
             <<<Displacing   1/coordinate 1 (-)>>>
             <<<Displacing   2/coordinate 1 (-)>>>
             <<<Displacing   4/coordinate 2 (+)>>>
             <<<Displacing   4/coordinate 3 (+)>>>
             <<<Displacing   5/coordinate 1 (+)>>>
             <<<Displacing   4/coordinate 2 (-)>>>
             <<<Displacing   5/coordinate 2 (+)>>>
             <<<Displacing   5/coordinate 1 (-)>>>
             <<<Displacing   4/coordinate 1 (+)>>>
             <<<Displacing   4/coordinate 3 (-)>>>
             <<<Displacing   3/coordinate 3 (+)>>>
             <<<Displacing   5/coordinate 2 (-)>>>
             <<<Displacing   4/coordinate 1 (-)>>>
             <<<Displacing   3/coordinate 3 (-)>>>
             <<<Displacing   5/coordinate 3 (+)>>>
             <<<Displacing   6/coordinate 1 (+)>>>
             <<<Displacing   5/coordinate 3 (-)>>>
             <<<Displacing   6/coordinate 1 (-)>>>
             <<<Displacing   6/coordinate 2 (+)>>>
             <<<Displacing   7/coordinate 1 (+)>>>
             <<<Displacing   6/coordinate 2 (-)>>>
             <<<Displacing   7/coordinate 1 (-)>>>
             <<<Displacing   7/coordinate 3 (+)>>>
             <<<Displacing   8/coordinate 1 (+)>>>
             <<<Displacing   7/coordinate 2 (+)>>>
             <<<Displacing   7/coordinate 3 (-)>>>
             <<<Displacing   8/coordinate 1 (-)>>>
             <<<Displacing   7/coordinate 2 (-)>>>
             <<<Displacing   6/coordinate 3 (+)>>>
             <<<Displacing   6/coordinate 3 (-)>>>
             <<<Displacing   8/coordinate 3 (+)>>>
             <<<Displacing   8/coordinate 2 (+)>>>
             <<<Displacing   8/coordinate 3 (-)>>>
             <<<Displacing   8/coordinate 2 (-)>>>
             <<<Displacing   9/coordinate 1 (+)>>>
             <<<Displacing   9/coordinate 2 (+)>>>
             <<<Displacing   9/coordinate 1 (-)>>>
             <<<Displacing   9/coordinate 2 (-)>>>
             <<<Displacing   9/coordinate 3 (+)>>>
             <<<Displacing   9/coordinate 3 (-)>>>
             <<<Displacing  10/coordinate 1 (+)>>>
             <<<Displacing  10/coordinate 1 (-)>>>
             <<<Displacing  10/coordinate 2 (+)>>>
             <<<Displacing  11/coordinate 2 (+)>>>
             <<<Displacing  11/coordinate 1 (+)>>>
             <<<Displacing  10/coordinate 2 (-)>>>
             <<<Displacing  11/coordinate 2 (-)>>>
             <<<Displacing  11/coordinate 1 (-)>>>
             <<<Displacing  10/coordinate 3 (+)>>>
             <<<Displacing  10/coordinate 3 (-)>>>
             <<<Displacing  12/coordinate 1 (+)>>>
             <<<Displacing  12/coordinate 1 (-)>>>
             <<<Displacing  11/coordinate 3 (+)>>>
             <<<Displacing  12/coordinate 2 (+)>>>
             <<<Displacing  12/coordinate 3 (+)>>>
             <<<Displacing  11/coordinate 3 (-)>>>
             <<<Displacing  12/coordinate 2 (-)>>>
             <<<Displacing  12/coordinate 3 (-)>>>
             <<<Displacing  13/coordinate 1 (+)>>>
             <<<Displacing  13/coordinate 2 (+)>>>
             <<<Displacing  13/coordinate 2 (-)>>>
             <<<Displacing  13/coordinate 1 (-)>>>
             <<<Displacing  14/coordinate 1 (+)>>>
             <<<Displacing  14/coordinate 1 (-)>>>
             <<<Displacing  13/coordinate 3 (+)>>>
             <<<Displacing  13/coordinate 3 (-)>>>
             <<<Displacing  14/coordinate 2 (+)>>>
             <<<Displacing  15/coordinate 1 (+)>>>
             <<<Displacing  14/coordinate 2 (-)>>>
             <<<Displacing  15/coordinate 1 (-)>>>
             <<<Displacing  15/coordinate 2 (+)>>>
             <<<Displacing  15/coordinate 2 (-)>>>
             <<<Displacing  14/coordinate 3 (+)>>>
             <<<Displacing  15/coordinate 3 (+)>>>
             <<<Displacing  16/coordinate 1 (+)>>>
             <<<Displacing  14/coordinate 3 (-)>>>
             <<<Displacing  15/coordinate 3 (-)>>>
             <<<Displacing  16/coordinate 1 (-)>>>
             <<<Displacing  16/coordinate 2 (+)>>>
             <<<Displacing  16/coordinate 2 (-)>>>
             <<<Displacing  16/coordinate 3 (+)>>>
             <<<Displacing  16/coordinate 3 (-)>>>
             <<<Displacing  17/coordinate 2 (+)>>>
             <<<Displacing  18/coordinate 1 (+)>>>
             <<<Displacing  17/coordinate 2 (-)>>>
             <<<Displacing  18/coordinate 1 (-)>>>
             <<<Displacing  17/coordinate 1 (+)>>>
             <<<Displacing  18/coordinate 3 (+)>>>
             <<<Displacing  18/coordinate 2 (+)>>>
             <<<Displacing  19/coordinate 1 (+)>>>
             <<<Displacing  17/coordinate 3 (+)>>>
             <<<Displacing  17/coordinate 1 (-)>>>
             <<<Displacing  18/coordinate 3 (-)>>>
             <<<Displacing  18/coordinate 2 (-)>>>
             <<<Displacing  19/coordinate 1 (-)>>>
             <<<Displacing  17/coordinate 3 (-)>>>
             <<<Displacing  19/coordinate 2 (+)>>>
             <<<Displacing  19/coordinate 2 (-)>>>
             <<<Displacing  19/coordinate 3 (+)>>>
             <<<Displacing  19/coordinate 3 (-)>>>
             <<<Displacing  20/coordinate 2 (+)>>>
             <<<Displacing  20/coordinate 3 (+)>>>
             <<<Displacing  21/coordinate 2 (+)>>>
             <<<Displacing  20/coordinate 2 (-)>>>
             <<<Displacing  20/coordinate 3 (-)>>>
             <<<Displacing  21/coordinate 3 (+)>>>
             <<<Displacing  21/coordinate 2 (-)>>>
             <<<Displacing  22/coordinate 1 (+)>>>
             <<<Displacing  21/coordinate 3 (-)>>>
             <<<Displacing  22/coordinate 1 (-)>>>
             <<<Displacing  21/coordinate 1 (+)>>>
             <<<Displacing  20/coordinate 1 (+)>>>
             <<<Displacing  21/coordinate 1 (-)>>>
             <<<Displacing  20/coordinate 1 (-)>>>
             <<<Displacing  22/coordinate 2 (+)>>>
             <<<Displacing  22/coordinate 2 (-)>>>
             <<<Displacing  23/coordinate 1 (+)>>>
             <<<Displacing  22/coordinate 3 (+)>>>
             <<<Displacing  23/coordinate 2 (+)>>>
             <<<Displacing  23/coordinate 1 (-)>>>
             <<<Displacing  22/coordinate 3 (-)>>>
             <<<Displacing  23/coordinate 2 (-)>>>
             <<<Displacing  23/coordinate 3 (+)>>>
             <<<Displacing  24/coordinate 1 (+)>>>
             <<<Displacing  23/coordinate 3 (-)>>>
             <<<Displacing  24/coordinate 1 (-)>>>
             <<<Displacing  24/coordinate 3 (+)>>>
             <<<Displacing  24/coordinate 3 (-)>>>
             <<<Displacing  24/coordinate 2 (+)>>>
             <<<Displacing  24/coordinate 2 (-)>>>
             <<<Displacing  25/coordinate 1 (+)>>>
             <<<Displacing  25/coordinate 1 (-)>>>
             <<<Displacing  25/coordinate 2 (+)>>>
             <<<Displacing  25/coordinate 3 (+)>>>
             <<<Displacing  25/coordinate 2 (-)>>>
             <<<Displacing  25/coordinate 3 (-)>>>
             <<<Displacing  26/coordinate 1 (+)>>>
             <<<Displacing  26/coordinate 1 (-)>>>
             <<<Displacing  27/coordinate 1 (+)>>>
             <<<Displacing  27/coordinate 1 (-)>>>
             <<<Displacing  26/coordinate 2 (+)>>>
             <<<Displacing  26/coordinate 3 (+)>>>
             <<<Displacing  26/coordinate 3 (-)>>>
             <<<Displacing  26/coordinate 2 (-)>>>
             <<<Displacing  27/coordinate 2 (+)>>>
             <<<Displacing  27/coordinate 2 (-)>>>
             <<<Displacing  27/coordinate 3 (+)>>>
             <<<Displacing  27/coordinate 3 (-)>>>
             <<<Displacing  28/coordinate 1 (+)>>>
             <<<Displacing  28/coordinate 1 (-)>>>
             <<<Displacing  28/coordinate 2 (+)>>>
             <<<Displacing  28/coordinate 2 (-)>>>
             <<<Displacing  28/coordinate 3 (+)>>>
             <<<Displacing  28/coordinate 3 (-)>>>
             <<<Displacing  29/coordinate 1 (+)>>>
             <<<Displacing  29/coordinate 1 (-)>>>
             <<<Displacing  29/coordinate 2 (+)>>>
             <<<Displacing  29/coordinate 3 (+)>>>
             <<<Displacing  29/coordinate 2 (-)>>>
             <<<Displacing  29/coordinate 3 (-)>>>
             <<<Displacing  30/coordinate 1 (+)>>>
             <<<Displacing  30/coordinate 1 (-)>>>
             <<<Displacing  30/coordinate 2 (+)>>>
             <<<Displacing  30/coordinate 2 (-)>>>
             <<<Displacing  30/coordinate 3 (+)>>>
             <<<Displacing  30/coordinate 3 (-)>>>
             <<<Displacing  31/coordinate 2 (+)>>>
             <<<Displacing  31/coordinate 3 (+)>>>
             <<<Displacing  31/coordinate 1 (+)>>>
             <<<Displacing  31/coordinate 2 (-)>>>
             <<<Displacing  31/coordinate 3 (-)>>>
             <<<Displacing  31/coordinate 1 (-)>>>
             <<<Displacing  32/coordinate 1 (+)>>>
             <<<Displacing  32/coordinate 1 (-)>>>
             <<<Displacing  32/coordinate 2 (+)>>>
             <<<Displacing  32/coordinate 3 (+)>>>
             <<<Displacing  32/coordinate 2 (-)>>>
             <<<Displacing  32/coordinate 3 (-)>>>
             <<<Displacing  33/coordinate 1 (+)>>>
             <<<Displacing  33/coordinate 2 (+)>>>
             <<<Displacing  33/coordinate 1 (-)>>>
             <<<Displacing  33/coordinate 2 (-)>>>
             <<<Displacing  33/coordinate 3 (+)>>>
             <<<Displacing  33/coordinate 3 (-)>>>
             <<<Displacing  34/coordinate 1 (+)>>>
             <<<Displacing  34/coordinate 2 (+)>>>
             <<<Displacing  34/coordinate 1 (-)>>>
             <<<Displacing  34/coordinate 2 (-)>>>
             <<<Displacing  34/coordinate 3 (+)>>>
             <<<Displacing  34/coordinate 3 (-)>>>
             <<<Displacing  35/coordinate 1 (+)>>>
             <<<Displacing  35/coordinate 2 (+)>>>
             <<<Displacing  35/coordinate 1 (-)>>>
             <<<Displacing  35/coordinate 2 (-)>>>
             <<<Displacing  35/coordinate 3 (+)>>>
             <<<Displacing  36/coordinate 1 (+)>>>
             <<<Displacing  35/coordinate 3 (-)>>>
             <<<Displacing  36/coordinate 1 (-)>>>
             <<<Displacing  36/coordinate 2 (+)>>>
             <<<Displacing  36/coordinate 2 (-)>>>
             <<<Displacing  36/coordinate 3 (+)>>>
             <<<Displacing  36/coordinate 3 (-)>>>
             <<<Displacing  37/coordinate 1 (+)>>>
             <<<Displacing  37/coordinate 2 (+)>>>
             <<<Displacing  37/coordinate 1 (-)>>>
             <<<Displacing  37/coordinate 2 (-)>>>
             <<<Displacing  38/coordinate 1 (+)>>>
             <<<Displacing  37/coordinate 3 (+)>>>
             <<<Displacing  38/coordinate 1 (-)>>>
             <<<Displacing  37/coordinate 3 (-)>>>
             <<<Displacing  38/coordinate 2 (+)>>>
             <<<Displacing  38/coordinate 2 (-)>>>
             <<<Displacing  38/coordinate 3 (+)>>>
             <<<Displacing  38/coordinate 3 (-)>>>
             <<<Displacing  39/coordinate 1 (+)>>>
             <<<Displacing  39/coordinate 1 (-)>>>
             <<<Displacing  39/coordinate 2 (+)>>>
             <<<Displacing  39/coordinate 2 (-)>>>
             <<<Displacing  39/coordinate 3 (+)>>>
             <<<Displacing  39/coordinate 3 (-)>>>
             <<<Displacing  40/coordinate 1 (+)>>>
             <<<Displacing  40/coordinate 1 (-)>>>
             <<<Displacing  40/coordinate 2 (+)>>>
             <<<Displacing  40/coordinate 2 (-)>>>
             <<<Displacing  40/coordinate 3 (+)>>>
             <<<Displacing  40/coordinate 3 (-)>>>
             <<<Displacing  41/coordinate 1 (+)>>>
             <<<Displacing  41/coordinate 2 (+)>>>
             <<<Displacing  41/coordinate 1 (-)>>>
             <<<Displacing  41/coordinate 2 (-)>>>
             <<<Displacing  41/coordinate 3 (+)>>>
             <<<Displacing  41/coordinate 3 (-)>>>
             <<<Displacing  42/coordinate 1 (+)>>>
             <<<Displacing  42/coordinate 1 (-)>>>
             <<<Displacing  42/coordinate 2 (+)>>>
             <<<Displacing  42/coordinate 3 (+)>>>
             <<<Displacing  42/coordinate 2 (-)>>>
             <<<Displacing  42/coordinate 3 (-)>>>
             <<<Displacing  43/coordinate 1 (+)>>>
             <<<Displacing  43/coordinate 1 (-)>>>
             <<<Displacing  43/coordinate 2 (+)>>>
             <<<Displacing  43/coordinate 2 (-)>>>
             <<<Displacing  43/coordinate 3 (+)>>>
             <<<Displacing  44/coordinate 1 (+)>>>
             <<<Displacing  43/coordinate 3 (-)>>>
             <<<Displacing  44/coordinate 1 (-)>>>
             <<<Displacing  44/coordinate 2 (+)>>>
             <<<Displacing  44/coordinate 3 (+)>>>
             <<<Displacing  44/coordinate 2 (-)>>>
             <<<Displacing  44/coordinate 3 (-)>>>
             <<<Displacing  45/coordinate 2 (+)>>>
             <<<Displacing  45/coordinate 2 (-)>>>
             <<<Displacing  45/coordinate 1 (+)>>>
             <<<Displacing  45/coordinate 3 (+)>>>
             <<<Displacing  45/coordinate 3 (-)>>>
             <<<Displacing  45/coordinate 1 (-)>>>
             <<<Displacing  46/coordinate 1 (+)>>>
             <<<Displacing  46/coordinate 1 (-)>>>
             <<<Displacing  46/coordinate 3 (+)>>>
             <<<Displacing  46/coordinate 3 (-)>>>
             <<<Displacing  46/coordinate 2 (+)>>>
             <<<Displacing  46/coordinate 2 (-)>>>

-----------------------
VIBRATIONAL FREQUENCIES
-----------------------

Scaling factor for frequencies =  1.000000000 (already applied!)

   0:         0.00 cm**-1
   1:         0.00 cm**-1
   2:         0.00 cm**-1
   3:         0.00 cm**-1
   4:         0.00 cm**-1
   5:         0.00 cm**-1
   6:      -872.47 cm**-1 ***imaginary mode***
   7:        26.28 cm**-1
   8:        30.74 cm**-1
   9:        43.59 cm**-1
  10:        48.75 cm**-1
  11:        72.95 cm**-1
  12:        79.72 cm**-1
  13:        84.83 cm**-1
  14:        88.62 cm**-1
  15:       110.11 cm**-1
  16:       125.52 cm**-1
  17:       127.15 cm**-1
  18:       138.71 cm**-1
  19:       169.73 cm**-1
  20:       192.50 cm**-1
  21:       213.00 cm**-1
  22:       219.61 cm**-1
  23:       235.55 cm**-1
  24:       264.04 cm**-1
  25:       269.20 cm**-1
  26:       281.12 cm**-1
  27:       379.41 cm**-1
  28:       381.05 cm**-1
  29:       385.49 cm**-1
  30:       390.80 cm**-1
  31:       405.15 cm**-1
  32:       422.77 cm**-1
  33:       484.46 cm**-1
  34:       504.75 cm**-1
  35:       582.43 cm**-1
  36:       589.35 cm**-1
  37:       618.68 cm**-1
  38:       643.65 cm**-1
  39:       671.46 cm**-1
  40:       736.60 cm**-1
  41:       766.68 cm**-1
  42:       773.34 cm**-1
  43:       785.00 cm**-1
  44:       817.96 cm**-1
  45:       825.92 cm**-1
  46:       837.12 cm**-1
  47:       872.16 cm**-1
  48:       886.05 cm**-1
  49:       909.50 cm**-1
  50:       929.53 cm**-1
  51:       930.99 cm**-1
  52:       936.13 cm**-1
  53:       938.22 cm**-1
  54:       948.27 cm**-1
  55:       953.61 cm**-1
  56:       969.61 cm**-1
  57:       979.01 cm**-1
  58:      1003.70 cm**-1
  59:      1038.85 cm**-1
  60:      1058.54 cm**-1
  61:      1067.29 cm**-1
  62:      1077.83 cm**-1
  63:      1092.97 cm**-1
  64:      1097.47 cm**-1
  65:      1103.05 cm**-1
  66:      1107.43 cm**-1
  67:      1115.35 cm**-1
  68:      1128.02 cm**-1
  69:      1139.32 cm**-1
  70:      1152.75 cm**-1
  71:      1176.84 cm**-1
  72:      1184.38 cm**-1
  73:      1193.69 cm**-1
  74:      1196.97 cm**-1
  75:      1206.78 cm**-1
  76:      1232.42 cm**-1
  77:      1239.60 cm**-1
  78:      1246.34 cm**-1
  79:      1270.21 cm**-1
  80:      1270.79 cm**-1
  81:      1276.43 cm**-1
  82:      1277.15 cm**-1
  83:      1278.67 cm**-1
  84:      1283.61 cm**-1
  85:      1285.24 cm**-1
  86:      1298.48 cm**-1
  87:      1312.40 cm**-1
  88:      1341.82 cm**-1
  89:      1344.86 cm**-1
  90:      1372.92 cm**-1
  91:      1374.22 cm**-1
  92:      1403.19 cm**-1
  93:      1419.94 cm**-1
  94:      1428.48 cm**-1
  95:      1428.79 cm**-1
  96:      1455.72 cm**-1
  97:      1476.02 cm**-1
  98:      1479.89 cm**-1
  99:      1493.89 cm**-1
 100:      1499.62 cm**-1
 101:      1500.71 cm**-1
 102:      1503.68 cm**-1
 103:      1505.25 cm**-1
 104:      1506.24 cm**-1
 105:      1506.88 cm**-1
 106:      1509.38 cm**-1
 107:      1509.85 cm**-1
 108:      1512.03 cm**-1
 109:      1565.83 cm**-1
 110:      1571.82 cm**-1
 111:      2648.14 cm**-1
 112:      2884.81 cm**-1
 113:      2934.19 cm**-1
 114:      2941.57 cm**-1
 115:      2942.80 cm**-1
 116:      2948.28 cm**-1
 117:      2952.34 cm**-1
 118:      2966.08 cm**-1
 119:      2967.73 cm**-1
 120:      2970.44 cm**-1
 121:      2974.31 cm**-1
 122:      2979.88 cm**-1
 123:      2980.10 cm**-1
 124:      2981.09 cm**-1
 125:      2986.79 cm**-1
 126:      2987.50 cm**-1
 127:      2996.14 cm**-1
 128:      2999.39 cm**-1
 129:      3000.27 cm**-1
 130:      3015.23 cm**-1
 131:      3024.11 cm**-1
 132:      3046.07 cm**-1
 133:      3049.17 cm**-1
 134:      3062.40 cm**-1
 135:      3070.66 cm**-1
 136:      3358.64 cm**-1
 137:      3408.65 cm**-1


------------
NORMAL MODES
------------

These modes are the cartesian displacements weighted by the diagonal matrix
M(i,i)=1/sqrt(m[i]) where m[i] is the mass of the displaced atom
Thus, these vectors are normalized but *not* orthogonal

                  0          1          2          3          4          5    
      0       0.000000   0.000000   0.000000   0.000000   0.000000   0.000000
      1       0.000000   0.000000   0.000000   0.000000   0.000000   0.000000
      2       0.000000   0.000000   0.000000   0.000000   0.000000   0.000000
      3       0.000000   0.000000   0.000000   0.000000   0.000000   0.000000
      4       0.000000   0.000000   0.000000   0.000000   0.000000   0.000000
      5       0.000000   0.000000   0.000000   0.000000   0.000000   0.000000
      6       0.000000   0.000000   0.000000   0.000000   0.000000   0.000000
      7       0.000000   0.000000   0.000000   0.000000   0.000000   0.000000
      8       0.000000   0.000000   0.000000   0.000000   0.000000   0.000000
      9       0.000000   0.000000   0.000000   0.000000   0.000000   0.000000
     10       0.000000   0.000000   0.000000   0.000000   0.000000   0.000000
     11       0.000000   0.000000   0.000000   0.000000   0.000000   0.000000
     12       0.000000   0.000000   0.000000   0.000000   0.000000   0.000000
     13       0.000000   0.000000   0.000000   0.000000   0.000000   0.000000
     14       0.000000   0.000000   0.000000   0.000000   0.000000   0.000000
     15       0.000000   0.000000   0.000000   0.000000   0.000000   0.000000
     16       0.000000   0.000000   0.000000   0.000000   0.000000   0.000000
     17       0.000000   0.000000   0.000000   0.000000   0.000000   0.000000
     18       0.000000   0.000000   0.000000   0.000000   0.000000   0.000000
     19       0.000000   0.000000   0.000000   0.000000   0.000000   0.000000
     20       0.000000   0.000000   0.000000   0.000000   0.000000   0.000000
     21       0.000000   0.000000   0.000000   0.000000   0.000000   0.000000
     22       0.000000   0.000000   0.000000   0.000000   0.000000   0.000000
     23       0.000000   0.000000   0.000000   0.000000   0.000000   0.000000
     24       0.000000   0.000000   0.000000   0.000000   0.000000   0.000000
     25       0.000000   0.000000   0.000000   0.000000   0.000000   0.000000
     26       0.000000   0.000000   0.000000   0.000000   0.000000   0.000000
     27       0.000000   0.000000   0.000000   0.000000   0.000000   0.000000
     28       0.000000   0.000000   0.000000   0.000000   0.000000   0.000000
     29       0.000000   0.000000   0.000000   0.000000   0.000000   0.000000
     30       0.000000   0.000000   0.000000   0.000000   0.000000   0.000000
     31       0.000000   0.000000   0.000000   0.000000   0.000000   0.000000
     32       0.000000   0.000000   0.000000   0.000000   0.000000   0.000000
     33       0.000000   0.000000   0.000000   0.000000   0.000000   0.000000
     34       0.000000   0.000000   0.000000   0.000000   0.000000   0.000000
     35       0.000000   0.000000   0.000000   0.000000   0.000000   0.000000
     36       0.000000   0.000000   0.000000   0.000000   0.000000   0.000000
     37       0.000000   0.000000   0.000000   0.000000   0.000000   0.000000
     38       0.000000   0.000000   0.000000   0.000000   0.000000   0.000000
     39       0.000000   0.000000   0.000000   0.000000   0.000000   0.000000
     40       0.000000   0.000000   0.000000   0.000000   0.000000   0.000000
     41       0.000000   0.000000   0.000000   0.000000   0.000000   0.000000
     42       0.000000   0.000000   0.000000   0.000000   0.000000   0.000000
     43       0.000000   0.000000   0.000000   0.000000   0.000000   0.000000
     44       0.000000   0.000000   0.000000   0.000000   0.000000   0.000000
     45       0.000000   0.000000   0.000000   0.000000   0.000000   0.000000
     46       0.000000   0.000000   0.000000   0.000000   0.000000   0.000000
     47       0.000000   0.000000   0.000000   0.000000   0.000000   0.000000
     48       0.000000   0.000000   0.000000   0.000000   0.000000   0.000000
     49       0.000000   0.000000   0.000000   0.000000   0.000000   0.000000
     50       0.000000   0.000000   0.000000   0.000000   0.000000   0.000000
     51       0.000000   0.000000   0.000000   0.000000   0.000000   0.000000
     52       0.000000   0.000000   0.000000   0.000000   0.000000   0.000000
     53       0.000000   0.000000   0.000000   0.000000   0.000000   0.000000
     54       0.000000   0.000000   0.000000   0.000000   0.000000   0.000000
     55       0.000000   0.000000   0.000000   0.000000   0.000000   0.000000
     56       0.000000   0.000000   0.000000   0.000000   0.000000   0.000000
     57       0.000000   0.000000   0.000000   0.000000   0.000000   0.000000
     58       0.000000   0.000000   0.000000   0.000000   0.000000   0.000000
     59       0.000000   0.000000   0.000000   0.000000   0.000000   0.000000
     60       0.000000   0.000000   0.000000   0.000000   0.000000   0.000000
     61       0.000000   0.000000   0.000000   0.000000   0.000000   0.000000
     62       0.000000   0.000000   0.000000   0.000000   0.000000   0.000000
     63       0.000000   0.000000   0.000000   0.000000   0.000000   0.000000
     64       0.000000   0.000000   0.000000   0.000000   0.000000   0.000000
     65       0.000000   0.000000   0.000000   0.000000   0.000000   0.000000
     66       0.000000   0.000000   0.000000   0.000000   0.000000   0.000000
     67       0.000000   0.000000   0.000000   0.000000   0.000000   0.000000
     68       0.000000   0.000000   0.000000   0.000000   0.000000   0.000000
     69       0.000000   0.000000   0.000000   0.000000   0.000000   0.000000
     70       0.000000   0.000000   0.000000   0.000000   0.000000   0.000000
     71       0.000000   0.000000   0.000000   0.000000   0.000000   0.000000
     72       0.000000   0.000000   0.000000   0.000000   0.000000   0.000000
     73       0.000000   0.000000   0.000000   0.000000   0.000000   0.000000
     74       0.000000   0.000000   0.000000   0.000000   0.000000   0.000000
     75       0.000000   0.000000   0.000000   0.000000   0.000000   0.000000
     76       0.000000   0.000000   0.000000   0.000000   0.000000   0.000000
     77       0.000000   0.000000   0.000000   0.000000   0.000000   0.000000
     78       0.000000   0.000000   0.000000   0.000000   0.000000   0.000000
     79       0.000000   0.000000   0.000000   0.000000   0.000000   0.000000
     80       0.000000   0.000000   0.000000   0.000000   0.000000   0.000000
     81       0.000000   0.000000   0.000000   0.000000   0.000000   0.000000
     82       0.000000   0.000000   0.000000   0.000000   0.000000   0.000000
     83       0.000000   0.000000   0.000000   0.000000   0.000000   0.000000
     84       0.000000   0.000000   0.000000   0.000000   0.000000   0.000000
     85       0.000000   0.000000   0.000000   0.000000   0.000000   0.000000
     86       0.000000   0.000000   0.000000   0.000000   0.000000   0.000000
     87       0.000000   0.000000   0.000000   0.000000   0.000000   0.000000
     88       0.000000   0.000000   0.000000   0.000000   0.000000   0.000000
     89       0.000000   0.000000   0.000000   0.000000   0.000000   0.000000
     90       0.000000   0.000000   0.000000   0.000000   0.000000   0.000000
     91       0.000000   0.000000   0.000000   0.000000   0.000000   0.000000
     92       0.000000   0.000000   0.000000   0.000000   0.000000   0.000000
     93       0.000000   0.000000   0.000000   0.000000   0.000000   0.000000
     94       0.000000   0.000000   0.000000   0.000000   0.000000   0.000000
     95       0.000000   0.000000   0.000000   0.000000   0.000000   0.000000
     96       0.000000   0.000000   0.000000   0.000000   0.000000   0.000000
     97       0.000000   0.000000   0.000000   0.000000   0.000000   0.000000
     98       0.000000   0.000000   0.000000   0.000000   0.000000   0.000000
     99       0.000000   0.000000   0.000000   0.000000   0.000000   0.000000
    100       0.000000   0.000000   0.000000   0.000000   0.000000   0.000000
    101       0.000000   0.000000   0.000000   0.000000   0.000000   0.000000
    102       0.000000   0.000000   0.000000   0.000000   0.000000   0.000000
    103       0.000000   0.000000   0.000000   0.000000   0.000000   0.000000
    104       0.000000   0.000000   0.000000   0.000000   0.000000   0.000000
    105       0.000000   0.000000   0.000000   0.000000   0.000000   0.000000
    106       0.000000   0.000000   0.000000   0.000000   0.000000   0.000000
    107       0.000000   0.000000   0.000000   0.000000   0.000000   0.000000
    108       0.000000   0.000000   0.000000   0.000000   0.000000   0.000000
    109       0.000000   0.000000   0.000000   0.000000   0.000000   0.000000
    110       0.000000   0.000000   0.000000   0.000000   0.000000   0.000000
    111       0.000000   0.000000   0.000000   0.000000   0.000000   0.000000
    112       0.000000   0.000000   0.000000   0.000000   0.000000   0.000000
    113       0.000000   0.000000   0.000000   0.000000   0.000000   0.000000
    114       0.000000   0.000000   0.000000   0.000000   0.000000   0.000000
    115       0.000000   0.000000   0.000000   0.000000   0.000000   0.000000
    116       0.000000   0.000000   0.000000   0.000000   0.000000   0.000000
    117       0.000000   0.000000   0.000000   0.000000   0.000000   0.000000
    118       0.000000   0.000000   0.000000   0.000000   0.000000   0.000000
    119       0.000000   0.000000   0.000000   0.000000   0.000000   0.000000
    120       0.000000   0.000000   0.000000   0.000000   0.000000   0.000000
    121       0.000000   0.000000   0.000000   0.000000   0.000000   0.000000
    122       0.000000   0.000000   0.000000   0.000000   0.000000   0.000000
    123       0.000000   0.000000   0.000000   0.000000   0.000000   0.000000
    124       0.000000   0.000000   0.000000   0.000000   0.000000   0.000000
    125       0.000000   0.000000   0.000000   0.000000   0.000000   0.000000
    126       0.000000   0.000000   0.000000   0.000000   0.000000   0.000000
    127       0.000000   0.000000   0.000000   0.000000   0.000000   0.000000
    128       0.000000   0.000000   0.000000   0.000000   0.000000   0.000000
    129       0.000000   0.000000   0.000000   0.000000   0.000000   0.000000
    130       0.000000   0.000000   0.000000   0.000000   0.000000   0.000000
    131       0.000000   0.000000   0.000000   0.000000   0.000000   0.000000
    132       0.000000   0.000000   0.000000   0.000000   0.000000   0.000000
    133       0.000000   0.000000   0.000000   0.000000   0.000000   0.000000
    134       0.000000   0.000000   0.000000   0.000000   0.000000   0.000000
    135       0.000000   0.000000   0.000000   0.000000   0.000000   0.000000
    136       0.000000   0.000000   0.000000   0.000000   0.000000   0.000000
    137       0.000000   0.000000   0.000000   0.000000   0.000000   0.000000
                  6          7          8          9         10         11    
      0      -0.000763   0.003255  -0.008295   0.012505  -0.150220   0.032709
      1      -0.000397   0.068954  -0.142935  -0.064295   0.029834  -0.027910
      2       0.000563   0.046177  -0.044262  -0.008399   0.081958  -0.044218
      3      -0.002080  -0.002020  -0.020973   0.017186  -0.083782  -0.015103
      4      -0.001658   0.041927  -0.103544  -0.042572  -0.016357  -0.066484
      5       0.000942   0.034966  -0.037474   0.001056   0.098050  -0.079156
      6       0.003368  -0.005769  -0.030985   0.023751  -0.022901  -0.028455
      7       0.000274   0.019191  -0.071546  -0.016399  -0.030230  -0.015639
      8      -0.002015   0.021783  -0.007227   0.014008   0.041089  -0.032956
      9       0.001965  -0.004161  -0.027787   0.024895  -0.031309   0.004072
     10       0.001385   0.026302  -0.079908  -0.014162   0.004459   0.071527
     11      -0.000176   0.022157   0.015406   0.015691  -0.030257   0.047302
     12       0.000724   0.000994  -0.015547   0.019789  -0.098146   0.051162
     13      -0.000372   0.053947  -0.120200  -0.036930   0.049991   0.108649
     14      -0.000624   0.033811   0.007893   0.005873  -0.047244   0.082114
     15      -0.000832   0.004336  -0.005694   0.013561  -0.157681   0.066600
     16       0.000122   0.074829  -0.151734  -0.061475   0.062276   0.061299
     17       0.000462   0.045466  -0.021627  -0.006024   0.008920   0.037203
     18      -0.000422  -0.002753  -0.022414   0.016149  -0.078882  -0.042283
     19      -0.000126   0.037344  -0.094728  -0.045294  -0.043827  -0.134761
     20      -0.001087   0.035772  -0.056006  -0.001772   0.155457  -0.142837
     21      -0.001312  -0.008027  -0.034789   0.030655   0.015384  -0.010649
     22      -0.001973   0.006439  -0.052142   0.006880  -0.007427   0.107496
     23      -0.001003   0.011906   0.038692   0.024998  -0.073126   0.081723
     24       0.000301   0.007730   0.004200   0.009514  -0.209408   0.103756
     25      -0.000330   0.095121  -0.181768  -0.077840   0.096280   0.091931
     26       0.001256   0.053730  -0.026659  -0.013248  -0.004577   0.064832
     27       0.003660  -0.019281  -0.065984   0.035634   0.049718  -0.022475
     28      -0.049748   0.004503  -0.008368  -0.005415  -0.099307  -0.073406
     29      -0.004506  -0.009120   0.027723   0.056622   0.058934  -0.066827
     30      -0.485673  -0.044536  -0.084799   0.043101   0.040360   0.003866
     31       0.811717   0.009183   0.006223   0.002394  -0.098053  -0.051042
     32       0.051042  -0.031655   0.009108   0.067792   0.081821   0.003209
     33      -0.008608  -0.026473  -0.051593   0.036243   0.002955  -0.029964
     34      -0.015679   0.003367   0.019667   0.013428  -0.032731  -0.076355
     35       0.009037  -0.015593   0.046196   0.059956   0.025789  -0.074114
     36      -0.016518  -0.052425  -0.080815   0.081102  -0.016259   0.006750
     37      -0.008572   0.019739   0.032830  -0.015771  -0.026025  -0.098049
     38       0.038854  -0.042634   0.057231   0.115403   0.048536  -0.041503
     39      -0.002242  -0.029538  -0.033891   0.028447  -0.042262  -0.033951
     40      -0.002012  -0.036944   0.006341   0.092979  -0.005483  -0.023057
     41       0.003867  -0.015071   0.035266   0.066720   0.052890  -0.069716
     42       0.028984  -0.011895  -0.075361   0.033353   0.084213  -0.013877
     43      -0.136141   0.021413  -0.009572  -0.031753  -0.131808  -0.111435
     44      -0.055959  -0.008032   0.032058   0.049513   0.030148  -0.083075
     45      -0.005998  -0.017201  -0.048662   0.084715   0.057621   0.028701
     46      -0.028680   0.009033   0.012703   0.039035  -0.095960  -0.018328
     47      -0.012864  -0.080781  -0.018242   0.010446   0.059660   0.044361
     48       0.012249   0.041624  -0.004277   0.177476   0.088442   0.061475
     49      -0.035104  -0.017977  -0.027376   0.010533  -0.108099  -0.014419
     50      -0.035904  -0.088558  -0.050668   0.016723   0.057586   0.064216
     51       0.059497  -0.019647  -0.081874   0.085422   0.055786  -0.003240
     52      -0.222549   0.014903   0.022093   0.062464  -0.082997   0.023080
     53      -0.058982  -0.081047   0.006739  -0.016247   0.048412   0.023845
     54      -0.001851  -0.042164  -0.013057   0.006179   0.046364   0.024545
     55      -0.004286   0.067724   0.103279   0.110205  -0.061843  -0.013258
     56       0.008584  -0.116967  -0.031074  -0.061176   0.040617   0.042276
     57      -0.013613  -0.254448  -0.117764  -0.174449   0.041300  -0.006927
     58       0.008196   0.098635   0.147511   0.145836  -0.044685  -0.009810
     59       0.015016  -0.193190  -0.020744  -0.110396   0.065788   0.028604
     60       0.025257   0.088686   0.054399   0.113167   0.049443   0.042781
     61      -0.013227   0.251777   0.201490   0.233162  -0.069558   0.009772
     62      -0.049179  -0.166442  -0.049091  -0.159785   0.014944   0.028895
     63       0.052687  -0.007067  -0.043527   0.033093   0.045455  -0.065575
     64       0.032038  -0.012511  -0.022167   0.008270  -0.089814  -0.028643
     65       0.024480   0.009986   0.002871   0.026422   0.050767  -0.054529
     66      -0.060074   0.001021  -0.023021   0.031301   0.042939  -0.107298
     67      -0.026025  -0.020975   0.000481   0.012444  -0.116516  -0.040915
     68      -0.022315   0.036363  -0.022352   0.014479   0.103232  -0.083651
     69      -0.012260  -0.007133  -0.057624   0.045047   0.088525  -0.075530
     70       0.039692  -0.039985  -0.018824   0.027464  -0.097301   0.009852
     71       0.003876  -0.007508   0.018732   0.028044   0.005510  -0.019395
     72       0.001303   0.039190   0.077512   0.010491   0.041472   0.018742
     73      -0.000845  -0.150385   0.015093  -0.017428  -0.033168  -0.035940
     74      -0.003843   0.008252  -0.039581   0.056928   0.017887   0.069999
     75      -0.001740   0.268501   0.197247   0.228596   0.059730   0.106686
     76       0.004759  -0.195487  -0.044876  -0.081720  -0.062009  -0.077226
     77       0.006274   0.075241  -0.061075   0.087193  -0.016104   0.058159
     78      -0.001500  -0.102007  -0.000125  -0.117508   0.031111  -0.032240
     79       0.000239  -0.337976  -0.088320  -0.151133  -0.031101  -0.076759
     80       0.004837   0.073526  -0.004419   0.199171   0.058761   0.153813
     81       0.007357   0.003384  -0.018608  -0.011158   0.034785  -0.061961
     82      -0.000357   0.032232   0.052220  -0.031318   0.003405  -0.107805
     83      -0.008125   0.009533   0.061729  -0.019236  -0.079813  -0.112931
     84      -0.000984   0.030126   0.013051  -0.057002   0.064637  -0.075421
     85      -0.001726   0.017206   0.038795  -0.006340  -0.002453  -0.076901
     86       0.001122   0.026472   0.045452  -0.042264  -0.148777  -0.311219
     87      -0.002222  -0.000375  -0.038558   0.021604   0.054682  -0.176213
     88      -0.000223   0.064915   0.061545  -0.092415  -0.055679  -0.263247
     89       0.000626   0.012076   0.072824  -0.038070  -0.091379  -0.051479
     90       0.000150   0.001639  -0.013589   0.020428  -0.103615   0.075631
     91      -0.001582   0.058067  -0.126277  -0.035151   0.074736   0.175737
     92      -0.001100   0.033488   0.025688   0.008055  -0.103835   0.144198
     93       0.000568   0.006309  -0.000568   0.007669  -0.195490   0.042776
     94      -0.001545   0.085069  -0.166249  -0.083193   0.039269  -0.067056
     95       0.000085   0.055177  -0.066956  -0.017788   0.125588  -0.080180
     96      -0.001427   0.001056   0.111748  -0.109335   0.026408  -0.048429
     97      -0.000596  -0.060699   0.146020   0.120728   0.034575   0.058223
     98      -0.000795  -0.044492  -0.067647  -0.056783  -0.014440   0.001235
     99       0.001610  -0.177529   0.010083  -0.298837   0.009959  -0.126925
    100       0.000955  -0.015500   0.207000   0.185952   0.064338   0.100749
    101       0.000792  -0.083409  -0.033906  -0.070642   0.022506   0.020055
    102       0.001046   0.110528   0.177692   0.001517   0.035888  -0.004012
    103       0.001156   0.078127   0.231483   0.227187   0.030895   0.086639
    104       0.001303  -0.112108  -0.104126  -0.201516  -0.055207  -0.088834
    105       0.003012   0.002010  -0.002395  -0.042244   0.004841   0.087005
    106      -0.001481   0.039148   0.091873  -0.031725   0.132883   0.034962
    107      -0.001888   0.009677   0.083853  -0.047024  -0.082554   0.046370
    108       0.000881   0.003947   0.014992  -0.073264  -0.011771   0.217130
    109      -0.000577   0.018986   0.092219   0.008235   0.174741   0.130214
    110      -0.002274   0.008287   0.074119  -0.029185  -0.072610  -0.024615
    111       0.000900  -0.016948  -0.027922  -0.008473  -0.039753   0.052691
    112       0.000625   0.049235   0.101412  -0.048839   0.146905   0.031382
    113       0.000022   0.000555   0.105964  -0.037637  -0.021003   0.217958
    114      -0.000097   0.053335   0.190477  -0.123689   0.021947  -0.074146
    115      -0.000496  -0.206096   0.086834   0.037695   0.067907   0.061007
    116      -0.001388   0.038902  -0.092443   0.036111  -0.041342   0.024968
    117      -0.000207  -0.040771   0.137858  -0.216825   0.018082  -0.109808
    118       0.000352  -0.329773   0.013933  -0.050865   0.076832   0.042890
    119       0.000253   0.084169  -0.074259   0.145502  -0.012792   0.096914
    120       0.000305   0.033413   0.217656  -0.194426   0.016286  -0.117443
    121      -0.001445  -0.158352   0.161619   0.107733   0.104464   0.110187
    122      -0.001464   0.011154  -0.102535  -0.028334  -0.057144  -0.016638
    123       0.000086   0.205460   0.273368   0.029772   0.028454  -0.014572
    124       0.000360  -0.237396   0.041109  -0.005937   0.046658   0.031568
    125       0.000976   0.082594  -0.118120   0.059348  -0.073839   0.012392
    126       0.002160   0.022152   0.023142  -0.075382   0.056159   0.114982
    127      -0.000274   0.059075   0.117667  -0.063049   0.187997   0.061670
    128      -0.001494   0.023132   0.088862  -0.109119  -0.176297   0.076881
    129       0.004090   0.021283   0.029019  -0.093664   0.027448   0.187104
    130      -0.002671   0.063953   0.139434  -0.061335   0.268777   0.131568
    131      -0.001272   0.023433   0.098645  -0.124399  -0.183178   0.154006
    132      -0.000128   0.040196   0.046960  -0.108032   0.098772   0.150871
    133      -0.000381   0.050001   0.109034  -0.046807   0.176004   0.061385
    134       0.000658   0.030743   0.075601  -0.121759  -0.223123  -0.030936
    135      -0.000415   0.019480   0.011815  -0.048599   0.079492   0.027854
    136      -0.000215   0.077575   0.122856  -0.103681   0.159464   0.012000
    137       0.000764   0.025077   0.095851  -0.126082  -0.190946   0.129107
                 12         13         14         15         16         17    
      0       0.014336  -0.038513  -0.012591  -0.005045   0.058697  -0.029850
      1       0.067833  -0.119168   0.001012  -0.000804   0.108571  -0.047960
      2       0.006072  -0.048645   0.047087   0.006833   0.013402   0.004173
      3       0.016857  -0.039048  -0.007406   0.005998  -0.000387  -0.014250
      4       0.064598  -0.126940   0.056364  -0.004445  -0.021049   0.017254
      5       0.006218  -0.051444   0.067043   0.010620  -0.055785   0.031896
      6       0.001368  -0.003702  -0.025405   0.014600  -0.044155  -0.005414
      7       0.005405  -0.014023   0.021540  -0.004861  -0.114659   0.051763
      8      -0.022880   0.000735   0.055797   0.003874  -0.087311   0.049273
      9      -0.015294   0.030989  -0.047135   0.013666  -0.041163  -0.007440
     10      -0.052076   0.113300  -0.064915   0.001255  -0.123865   0.044719
     11      -0.052367   0.056160   0.031504  -0.005804  -0.070319   0.054038
     12      -0.018157   0.032719  -0.053093   0.003056   0.013067  -0.021200
     13      -0.050449   0.125874  -0.122075   0.005482  -0.009438  -0.013350
     14      -0.053515   0.061098   0.010360  -0.009894  -0.006954   0.028849
     15      -0.003273  -0.001694  -0.037464  -0.006298   0.068048  -0.035168
     16       0.009755   0.008305  -0.093523   0.003330   0.126706  -0.070997
     17      -0.024083   0.007958   0.017427  -0.003866   0.042776   0.000377
     18       0.030802  -0.066912   0.011130   0.006895  -0.005996  -0.010566
     19       0.106219  -0.214413   0.118868  -0.007118  -0.032248   0.031562
     20       0.030915  -0.096540   0.091476   0.018923  -0.074747   0.035310
     21      -0.023210   0.051707  -0.057887   0.020875  -0.069659  -0.004805
     22      -0.094631   0.193104  -0.083310   0.001502  -0.192317   0.071641
     23      -0.074234   0.092617   0.027504  -0.010942  -0.093563   0.069512
     24      -0.004938  -0.000916  -0.042716  -0.014461   0.116342  -0.048437
     25       0.011379   0.015521  -0.141387   0.005062   0.239042  -0.129071
     26      -0.024315   0.010677  -0.000636  -0.007180   0.102548  -0.024945
[...]
  13:        84.83    0.000000  (  0.000000   0.000000   0.000000)
  14:        88.62    0.000000  (  0.000000   0.000000   0.000000)
  15:       110.11    0.000000  (  0.000000   0.000000   0.000000)
  16:       125.52    0.000000  (  0.000000   0.000000   0.000000)
  17:       127.15    0.000000  (  0.000000   0.000000   0.000000)
  18:       138.71    0.000000  (  0.000000   0.000000   0.000000)
  19:       169.73    0.000000  (  0.000000   0.000000   0.000000)
  20:       192.50    0.000000  (  0.000000   0.000000   0.000000)
  21:       213.00    0.000000  (  0.000000   0.000000   0.000000)
  22:       219.61    0.000000  (  0.000000   0.000000   0.000000)
  23:       235.55    0.000000  (  0.000000   0.000000   0.000000)
  24:       264.04    0.000000  (  0.000000   0.000000   0.000000)
  25:       269.20    0.000000  (  0.000000   0.000000   0.000000)
  26:       281.12    0.000000  (  0.000000   0.000000   0.000000)
  27:       379.41    0.000000  (  0.000000   0.000000   0.000000)
  28:       381.05    0.000000  (  0.000000   0.000000   0.000000)
  29:       385.49    0.000000  (  0.000000   0.000000   0.000000)
  30:       390.80    0.000000  (  0.000000   0.000000   0.000000)
  31:       405.15    0.000000  (  0.000000   0.000000   0.000000)
  32:       422.77    0.000000  (  0.000000   0.000000   0.000000)
  33:       484.46    0.000000  (  0.000000   0.000000   0.000000)
  34:       504.75    0.000000  (  0.000000   0.000000   0.000000)
  35:       582.43    0.000000  (  0.000000   0.000000   0.000000)
  36:       589.35    0.000000  (  0.000000   0.000000   0.000000)
  37:       618.68    0.000000  (  0.000000   0.000000   0.000000)
  38:       643.65    0.000000  (  0.000000   0.000000   0.000000)
  39:       671.46    0.000000  (  0.000000   0.000000   0.000000)
  40:       736.60    0.000000  (  0.000000   0.000000   0.000000)
  41:       766.68    0.000000  (  0.000000   0.000000   0.000000)
  42:       773.34    0.000000  (  0.000000   0.000000   0.000000)
  43:       785.00    0.000000  (  0.000000   0.000000   0.000000)
  44:       817.96    0.000000  (  0.000000   0.000000   0.000000)
  45:       825.92    0.000000  (  0.000000   0.000000   0.000000)
  46:       837.12    0.000000  (  0.000000   0.000000   0.000000)
  47:       872.16    0.000000  (  0.000000   0.000000   0.000000)
  48:       886.05    0.000000  (  0.000000   0.000000   0.000000)
  49:       909.50    0.000000  (  0.000000   0.000000   0.000000)
  50:       929.53    0.000000  (  0.000000   0.000000   0.000000)
  51:       930.99    0.000000  (  0.000000   0.000000   0.000000)
  52:       936.13    0.000000  (  0.000000   0.000000   0.000000)
  53:       938.22    0.000000  (  0.000000   0.000000   0.000000)
  54:       948.27    0.000000  (  0.000000   0.000000   0.000000)
  55:       953.61    0.000000  (  0.000000   0.000000   0.000000)
  56:       969.61    0.000000  (  0.000000   0.000000   0.000000)
  57:       979.01    0.000000  (  0.000000   0.000000   0.000000)
  58:      1003.70    0.000000  (  0.000000   0.000000   0.000000)
  59:      1038.85    0.000000  (  0.000000   0.000000   0.000000)
  60:      1058.54    0.000000  (  0.000000   0.000000   0.000000)
  61:      1067.29    0.000000  (  0.000000   0.000000   0.000000)
  62:      1077.83    0.000000  (  0.000000   0.000000   0.000000)
  63:      1092.97    0.000000  (  0.000000   0.000000   0.000000)
  64:      1097.47    0.000000  (  0.000000   0.000000   0.000000)
  65:      1103.05    0.000000  (  0.000000   0.000000   0.000000)
  66:      1107.43    0.000000  (  0.000000   0.000000   0.000000)
  67:      1115.35    0.000000  (  0.000000   0.000000   0.000000)
  68:      1128.02    0.000000  (  0.000000   0.000000   0.000000)
  69:      1139.32    0.000000  (  0.000000   0.000000   0.000000)
  70:      1152.75    0.000000  (  0.000000   0.000000   0.000000)
  71:      1176.84    0.000000  (  0.000000   0.000000   0.000000)
  72:      1184.38    0.000000  (  0.000000   0.000000   0.000000)
  73:      1193.69    0.000000  (  0.000000   0.000000   0.000000)
  74:      1196.97    0.000000  (  0.000000   0.000000   0.000000)
  75:      1206.78    0.000000  (  0.000000   0.000000   0.000000)
  76:      1232.42    0.000000  (  0.000000   0.000000   0.000000)
  77:      1239.60    0.000000  (  0.000000   0.000000   0.000000)
  78:      1246.34    0.000000  (  0.000000   0.000000   0.000000)
  79:      1270.21    0.000000  (  0.000000   0.000000   0.000000)
  80:      1270.79    0.000000  (  0.000000   0.000000   0.000000)
  81:      1276.43    0.000000  (  0.000000   0.000000   0.000000)
  82:      1277.15    0.000000  (  0.000000   0.000000   0.000000)
  83:      1278.67    0.000000  (  0.000000   0.000000   0.000000)
  84:      1283.61    0.000000  (  0.000000   0.000000   0.000000)
  85:      1285.24    0.000000  (  0.000000   0.000000   0.000000)
  86:      1298.48    0.000000  (  0.000000   0.000000   0.000000)
  87:      1312.40    0.000000  (  0.000000   0.000000   0.000000)
  88:      1341.82    0.000000  (  0.000000   0.000000   0.000000)
  89:      1344.86    0.000000  (  0.000000   0.000000   0.000000)
  90:      1372.92    0.000000  (  0.000000   0.000000   0.000000)
  91:      1374.22    0.000000  (  0.000000   0.000000   0.000000)
  92:      1403.19    0.000000  (  0.000000   0.000000   0.000000)
  93:      1419.94    0.000000  (  0.000000   0.000000   0.000000)
  94:      1428.48    0.000000  (  0.000000   0.000000   0.000000)
  95:      1428.79    0.000000  (  0.000000   0.000000   0.000000)
  96:      1455.72    0.000000  (  0.000000   0.000000   0.000000)
  97:      1476.02    0.000000  (  0.000000   0.000000   0.000000)
  98:      1479.89    0.000000  (  0.000000   0.000000   0.000000)
  99:      1493.89    0.000000  (  0.000000   0.000000   0.000000)
 100:      1499.62    0.000000  (  0.000000   0.000000   0.000000)
 101:      1500.71    0.000000  (  0.000000   0.000000   0.000000)
 102:      1503.68    0.000000  (  0.000000   0.000000   0.000000)
 103:      1505.25    0.000000  (  0.000000   0.000000   0.000000)
 104:      1506.24    0.000000  (  0.000000   0.000000   0.000000)
 105:      1506.88    0.000000  (  0.000000   0.000000   0.000000)
 106:      1509.38    0.000000  (  0.000000   0.000000   0.000000)
 107:      1509.85    0.000000  (  0.000000   0.000000   0.000000)
 108:      1512.03    0.000000  (  0.000000   0.000000   0.000000)
 109:      1565.83    0.000000  (  0.000000   0.000000   0.000000)
 110:      1571.82    0.000000  (  0.000000   0.000000   0.000000)
 111:      2648.14    0.000000  (  0.000000   0.000000   0.000000)
 112:      2884.81    0.000000  (  0.000000   0.000000   0.000000)
 113:      2934.19    0.000000  (  0.000000   0.000000   0.000000)
 114:      2941.57    0.000000  (  0.000000   0.000000   0.000000)
 115:      2942.80    0.000000  (  0.000000   0.000000   0.000000)
 116:      2948.28    0.000000  (  0.000000   0.000000   0.000000)
 117:      2952.34    0.000000  (  0.000000   0.000000   0.000000)
 118:      2966.08    0.000000  (  0.000000   0.000000   0.000000)
 119:      2967.73    0.000000  (  0.000000   0.000000   0.000000)
 120:      2970.44    0.000000  (  0.000000   0.000000   0.000000)
 121:      2974.31    0.000000  (  0.000000   0.000000   0.000000)
 122:      2979.88    0.000000  (  0.000000   0.000000   0.000000)
 123:      2980.10    0.000000  (  0.000000   0.000000   0.000000)
 124:      2981.09    0.000000  (  0.000000   0.000000   0.000000)
 125:      2986.79    0.000000  (  0.000000   0.000000   0.000000)
 126:      2987.50    0.000000  (  0.000000   0.000000   0.000000)
 127:      2996.14    0.000000  (  0.000000   0.000000   0.000000)
 128:      2999.39    0.000000  (  0.000000   0.000000   0.000000)
 129:      3000.27    0.000000  (  0.000000   0.000000   0.000000)
 130:      3015.23    0.000000  (  0.000000   0.000000   0.000000)
 131:      3024.11    0.000000  (  0.000000   0.000000   0.000000)
 132:      3046.07    0.000000  (  0.000000   0.000000   0.000000)
 133:      3049.17    0.000000  (  0.000000   0.000000   0.000000)
 134:      3062.40    0.000000  (  0.000000   0.000000   0.000000)
 135:      3070.66    0.000000  (  0.000000   0.000000   0.000000)
 136:      3358.64    0.000000  (  0.000000   0.000000   0.000000)
 137:      3408.65    0.000000  (  0.000000   0.000000   0.000000)

The first frequency considered to be a vibration is 7
The total number of vibrations considered is 131


--------------------------
THERMOCHEMISTRY AT 298.15K
--------------------------

Temperature         ... 298.15 K
Pressure            ... 1.00 atm
Total Mass          ... 252.40 AMU

Throughout the following assumptions are being made:
  (1) The electronic state is orbitally nondegenerate
  (2) There are no thermally accessible electronically excited states
  (3) Hindered rotations indicated by low frequency modes are not
      treated as such but are treated as vibrations and this may
      cause some error
  (4) All equations used are the standard statistical mechanics
      equations for an ideal gas
  (5) All vibrations are strictly harmonic

freq.      26.28  E(vib)   ...       0.56 
freq.      30.74  E(vib)   ...       0.55 
freq.      43.59  E(vib)   ...       0.53 
freq.      48.75  E(vib)   ...       0.53 
freq.      72.95  E(vib)   ...       0.49 
freq.      79.72  E(vib)   ...       0.49 
freq.      84.83  E(vib)   ...       0.48 
freq.      88.62  E(vib)   ...       0.47 
freq.     110.11  E(vib)   ...       0.45 
freq.     125.52  E(vib)   ...       0.43 
freq.     127.15  E(vib)   ...       0.43 
freq.     138.71  E(vib)   ...       0.42 
freq.     169.73  E(vib)   ...       0.38 
freq.     192.50  E(vib)   ...       0.36 
freq.     213.00  E(vib)   ...       0.34 
freq.     219.61  E(vib)   ...       0.33 
freq.     235.55  E(vib)   ...       0.32 
freq.     264.04  E(vib)   ...       0.29 
freq.     269.20  E(vib)   ...       0.29 
freq.     281.12  E(vib)   ...       0.28 
freq.     379.41  E(vib)   ...       0.21 
freq.     381.05  E(vib)   ...       0.21 
freq.     385.49  E(vib)   ...       0.20 
freq.     390.80  E(vib)   ...       0.20 
freq.     405.15  E(vib)   ...       0.19 
freq.     422.77  E(vib)   ...       0.18 
freq.     484.46  E(vib)   ...       0.15 
freq.     504.75  E(vib)   ...       0.14 
freq.     582.43  E(vib)   ...       0.11 
freq.     589.35  E(vib)   ...       0.10 
freq.     618.68  E(vib)   ...       0.09 
freq.     643.65  E(vib)   ...       0.09 
freq.     671.46  E(vib)   ...       0.08 
freq.     736.60  E(vib)   ...       0.06 
freq.     766.68  E(vib)   ...       0.06 
freq.     773.34  E(vib)   ...       0.05 
freq.     785.00  E(vib)   ...       0.05 
freq.     817.96  E(vib)   ...       0.05 
freq.     825.92  E(vib)   ...       0.04 
freq.     837.12  E(vib)   ...       0.04 
freq.     872.16  E(vib)   ...       0.04 
freq.     886.05  E(vib)   ...       0.04 
freq.     909.50  E(vib)   ...       0.03 
freq.     929.53  E(vib)   ...       0.03 
freq.     930.99  E(vib)   ...       0.03 
freq.     936.13  E(vib)   ...       0.03 
freq.     938.22  E(vib)   ...       0.03 
freq.     948.27  E(vib)   ...       0.03 
freq.     953.61  E(vib)   ...       0.03 
freq.     969.61  E(vib)   ...       0.03 
freq.     979.01  E(vib)   ...       0.03 
freq.    1003.70  E(vib)   ...       0.02 
freq.    1038.85  E(vib)   ...       0.02 
freq.    1058.54  E(vib)   ...       0.02 
freq.    1067.29  E(vib)   ...       0.02 
freq.    1077.83  E(vib)   ...       0.02 
freq.    1092.97  E(vib)   ...       0.02 
freq.    1097.47  E(vib)   ...       0.02 
freq.    1103.05  E(vib)   ...       0.02 
freq.    1107.43  E(vib)   ...       0.02 
freq.    1115.35  E(vib)   ...       0.01 
freq.    1128.02  E(vib)   ...       0.01 
freq.    1139.32  E(vib)   ...       0.01 
freq.    1152.75  E(vib)   ...       0.01 
freq.    1176.84  E(vib)   ...       0.01 
freq.    1184.38  E(vib)   ...       0.01 
freq.    1193.69  E(vib)   ...       0.01 
freq.    1196.97  E(vib)   ...       0.01 
freq.    1206.78  E(vib)   ...       0.01 
freq.    1232.42  E(vib)   ...       0.01 
freq.    1239.60  E(vib)   ...       0.01 
freq.    1246.34  E(vib)   ...       0.01 
freq.    1270.21  E(vib)   ...       0.01 
freq.    1270.79  E(vib)   ...       0.01 
freq.    1276.43  E(vib)   ...       0.01 
freq.    1277.15  E(vib)   ...       0.01 
freq.    1278.67  E(vib)   ...       0.01 
freq.    1283.61  E(vib)   ...       0.01 
freq.    1285.24  E(vib)   ...       0.01 
freq.    1298.48  E(vib)   ...       0.01 
freq.    1312.40  E(vib)   ...       0.01 
freq.    1341.82  E(vib)   ...       0.01 
freq.    1344.86  E(vib)   ...       0.01 
freq.    1372.92  E(vib)   ...       0.01 
freq.    1374.22  E(vib)   ...       0.01 
freq.    1403.19  E(vib)   ...       0.00 
freq.    1419.94  E(vib)   ...       0.00 
freq.    1428.48  E(vib)   ...       0.00 
freq.    1428.79  E(vib)   ...       0.00 
freq.    1455.72  E(vib)   ...       0.00 
freq.    1476.02  E(vib)   ...       0.00 
freq.    1479.89  E(vib)   ...       0.00 
freq.    1493.89  E(vib)   ...       0.00 
freq.    1499.62  E(vib)   ...       0.00 
freq.    1500.71  E(vib)   ...       0.00 
freq.    1503.68  E(vib)   ...       0.00 
freq.    1505.25  E(vib)   ...       0.00 
freq.    1506.24  E(vib)   ...       0.00 
freq.    1506.88  E(vib)   ...       0.00 
freq.    1509.38  E(vib)   ...       0.00 
freq.    1509.85  E(vib)   ...       0.00 
freq.    1512.03  E(vib)   ...       0.00 
freq.    1565.83  E(vib)   ...       0.00 
freq.    1571.82  E(vib)   ...       0.00 
freq.    2648.14  E(vib)   ...       0.00 
freq.    2884.81  E(vib)   ...       0.00 
freq.    2934.19  E(vib)   ...       0.00 
freq.    2941.57  E(vib)   ...       0.00 
freq.    2942.80  E(vib)   ...       0.00 
freq.    2948.28  E(vib)   ...       0.00 
freq.    2952.34  E(vib)   ...       0.00 
freq.    2966.08  E(vib)   ...       0.00 
freq.    2967.73  E(vib)   ...       0.00 
freq.    2970.44  E(vib)   ...       0.00 
freq.    2974.31  E(vib)   ...       0.00 
freq.    2979.88  E(vib)   ...       0.00 
freq.    2980.10  E(vib)   ...       0.00 
freq.    2981.09  E(vib)   ...       0.00 
freq.    2986.79  E(vib)   ...       0.00 
freq.    2987.50  E(vib)   ...       0.00 
freq.    2996.14  E(vib)   ...       0.00 
freq.    2999.39  E(vib)   ...       0.00 
freq.    3000.27  E(vib)   ...       0.00 
freq.    3015.23  E(vib)   ...       0.00 
freq.    3024.11  E(vib)   ...       0.00 
freq.    3046.07  E(vib)   ...       0.00 
freq.    3049.17  E(vib)   ...       0.00 
freq.    3062.40  E(vib)   ...       0.00 
freq.    3070.66  E(vib)   ...       0.00 
freq.    3358.64  E(vib)   ...       0.00 
freq.    3408.65  E(vib)   ...       0.00 

------------
INNER ENERGY
------------

The inner energy is: U= E(el) + E(ZPE) + E(vib) + E(rot) + E(trans)
    E(el)   - is the total energy from the electronic structure calculation
              = E(kin-el) + E(nuc-el) + E(el-el) + E(nuc-nuc)
    E(ZPE)  - the the zero temperature vibrational energy from the frequency calculation
    E(vib)  - the the finite temperature correction to E(ZPE) due to population
              of excited vibrational states
    E(rot)  - is the rotational thermal energy
    E(trans)- is the translational thermal energy

Summary of contributions to the inner energy U:
Electronic energy                ...    -56.27750797 Eh
Zero point energy                ...      0.39931099 Eh     250.57 kcal/mol
Thermal vibrational correction   ...      0.01832092 Eh      11.50 kcal/mol
Thermal rotational correction    ...      0.00141627 Eh       0.89 kcal/mol
Thermal translational correction ...      0.00141627 Eh       0.89 kcal/mol
-----------------------------------------------------------------------
Total thermal energy                    -55.85704352 Eh


Summary of corrections to the electronic energy:
(perhaps to be used in another calculation)
Total thermal correction                  0.02115346 Eh      13.27 kcal/mol
Non-thermal (ZPE) correction              0.39931099 Eh     250.57 kcal/mol
-----------------------------------------------------------------------
Total correction                          0.42046444 Eh     263.84 kcal/mol


--------
ENTHALPY
--------

The enthalpy is H = U + kB*T
                kB is Boltzmann's constant
Total free energy                 ...    -55.85704352 Eh 
Thermal Enthalpy correction       ...      0.00094421 Eh       0.59 kcal/mol
-----------------------------------------------------------------------
Total Enthalpy                    ...    -55.85609931 Eh


Note: Only C1 symmetry has been detected, increase convergence thresholds 
      if your molecule has a higher symmetry. Symmetry factor of 1.0 is   
      used for the rotational entropy correction. 
 

Note: Rotational entropy computed according to Herzberg 
Infrared and Raman Spectra, Chapter V,1, Van Nostrand Reinhold, 1945 
Point Group:  C1, Symmetry Number:   1  
Rotational constants in cm-1:     0.012489     0.007361     0.005607 

Vibrational entropy computed according to the QRRHO of S. Grimme
Chem.Eur.J. 2012 18 9955


-------
ENTROPY
-------

The entropy contributions are T*S = T*(S(el)+S(vib)+S(rot)+S(trans))
     S(el)   - electronic entropy
     S(vib)  - vibrational entropy
     S(rot)  - rotational entropy
     S(trans)- translational entropy
The entropies will be listed as mutliplied by the temperature to get
units of energy

Electronic entropy                ...      0.00000000 Eh      0.00 kcal/mol
Vibrational entropy               ...      0.03310060 Eh     20.77 kcal/mol
Rotational entropy                ...      0.01634578 Eh     10.26 kcal/mol
Translational entropy             ...      0.02018250 Eh     12.66 kcal/mol
-----------------------------------------------------------------------
Final entropy term                ...      0.06962889 Eh     43.69 kcal/mol

In case the symmetry of your molecule has not been determined correctly
or in case you have a reason to use a different symmetry number we print 
out the resulting rotational entropy values for sn=1,12 :
 --------------------------------------------------------
|  sn= 1 | S(rot)=       0.01634578 Eh     10.26 kcal/mol|
|  sn= 2 | S(rot)=       0.01569133 Eh      9.85 kcal/mol|
|  sn= 3 | S(rot)=       0.01530849 Eh      9.61 kcal/mol|
|  sn= 4 | S(rot)=       0.01503687 Eh      9.44 kcal/mol|
|  sn= 5 | S(rot)=       0.01482618 Eh      9.30 kcal/mol|
|  sn= 6 | S(rot)=       0.01465404 Eh      9.20 kcal/mol|
|  sn= 7 | S(rot)=       0.01450849 Eh      9.10 kcal/mol|
|  sn= 8 | S(rot)=       0.01438241 Eh      9.03 kcal/mol|
|  sn= 9 | S(rot)=       0.01427120 Eh      8.96 kcal/mol|
|  sn=10 | S(rot)=       0.01417172 Eh      8.89 kcal/mol|
|  sn=11 | S(rot)=       0.01408173 Eh      8.84 kcal/mol|
|  sn=12 | S(rot)=       0.01399958 Eh      8.78 kcal/mol|
 --------------------------------------------------------


-------------------
GIBBS FREE ENERGY
-------------------

The Gibbs free energy is G = H - T*S

Total enthalpy                    ...    -55.85609931 Eh 
Total entropy correction          ...     -0.06962889 Eh    -43.69 kcal/mol
-----------------------------------------------------------------------
Final Gibbs free energy         ...    -55.92572820 Eh

For completeness - the Gibbs free energy minus the electronic energy
G-E(el)                           ...      0.35177977 Eh    220.74 kcal/mol


Total Time for Numerical Frequencies  :        91.334 sec
Time for Reference State(s)           :         0.106 sec
Time for Displacements                :        80.714 sec

Timings for individual modules:

Sum of individual times         ...        0.216 sec (=   0.004 min)
XTB module                      ...        0.216 sec (=   0.004 min) 100.0 %
                             ****ORCA TERMINATED NORMALLY****
TOTAL RUN TIME: 0 days 0 hours 1 minutes 31 seconds 863 msec
(SLURM) EXECUTION TIME: 91.881863789 seconds.
