(SLURM) JOB ID:         365

                                 *****************
                                 * O   R   C   A *
                                 *****************

           --- An Ab Initio, DFT and Semiempirical electronic structure package ---

                  #######################################################
                  #                        -***-                        #
                  #          Department of theory and spectroscopy      #
                  #               Directorship: Frank Neese             #
                  #        Max Planck Institute fuer Kohlenforschung    #
                  #                Kaiser Wilhelm Platz 1               #
                  #                 D-45470 Muelheim/Ruhr               #
                  #                      Germany                        #
                  #                                                     #
                  #                  All rights reserved                #
                  #                        -***-                        #
                  #######################################################


                         Program Version 4.2.1 -  RELEASE  -


 With contributions from (in alphabetic order):
   Daniel Aravena         : Magnetic Suceptibility
   Michael Atanasov       : Ab Initio Ligand Field Theory (pilot matlab implementation)
   Alexander A. Auer      : GIAO ZORA, VPT2
   Ute Becker             : Parallelization
   Giovanni Bistoni       : ED, misc. LED, open-shell LED, HFLD
   Martin Brehm           : Molecular dynamics
   Dmytro Bykov           : SCF Hessian
   Vijay G. Chilkuri      : MRCI spin determinant printing, contributions to CSF-ICE
   Dipayan Datta          : RHF DLPNO-CCSD density
   Achintya Kumar Dutta   : EOM-CC, STEOM-CC
   Dmitry Ganyushin       : Spin-Orbit,Spin-Spin,Magnetic field MRCI
   Miquel Garcia          : C-PCM Hessian, Gaussian charge scheme
   Yang Guo               : DLPNO-NEVPT2, CIM, IAO-localization
   Andreas Hansen         : Spin unrestricted coupled pair/coupled cluster methods
   Benjamin Helmich-Paris : CASSCF linear response (MC-RPA)
   Lee Huntington         : MR-EOM, pCC
   Robert Izsak           : Overlap fitted RIJCOSX, COSX-SCS-MP3, EOM
   Christian Kollmar      : KDIIS, OOCD, Brueckner-CCSD(T), CCSD density
   Simone Kossmann        : Meta GGA functionals, TD-DFT gradient, OOMP2, MP2 Hessian
   Martin Krupicka        : AUTO-CI
   Lucas Lang             : DCDCAS
   Dagmar Lenk            : GEPOL surface, SMD
   Dimitrios Liakos       : Extrapolation schemes; Compound Job, initial MDCI parallelization
   Dimitrios Manganas     : Further ROCIS development; embedding schemes
   Dimitrios Pantazis     : SARC Basis sets
   Taras Petrenko         : DFT Hessian,TD-DFT gradient, ASA, ECA, R-Raman, ABS, FL, XAS/XES, NRVS
   Peter Pinski           : DLPNO-MP2, DLPNO-MP2 Gradient
   Christoph Reimann      : Effective Core Potentials
   Marius Retegan         : Local ZFS, SOC
   Christoph Riplinger    : Optimizer, TS searches, QM/MM, DLPNO-CCSD(T), (RO)-DLPNO pert. Triples
   Tobias Risthaus        : Range-separated hybrids, TD-DFT gradient, RPA, STAB
   Michael Roemelt        : Original ROCIS implementation
   Masaaki Saitow         : Open-shell DLPNO-CCSD energy and density
   Barbara Sandhoefer     : DKH picture change effects
   Avijit Sen             : IP-ROCIS
   Kantharuban Sivalingam : CASSCF convergence, NEVPT2, FIC-MRCI
   Bernardo de Souza      : ESD, SOC TD-DFT
   Georgi Stoychev        : AutoAux, RI-MP2 NMR
   Willem Van den Heuvel  : Paramagnetic NMR
   Boris Wezisla          : Elementary symmetry handling
   Frank Wennmohs         : Technical directorship


 We gratefully acknowledge several colleagues who have allowed us to
 interface, adapt or use parts of their codes:
   Stefan Grimme, W. Hujo, H. Kruse,             : VdW corrections, initial TS optimization,
                  C. Bannwarth                     DFT functionals, gCP, sTDA/sTD-DF
   Ed Valeev, F. Pavosevic, A. Kumar             : LibInt (2-el integral package), F12 methods
   Garnet Chan, S. Sharma, J. Yang, R. Olivares  : DMRG
   Ulf Ekstrom                                   : XCFun DFT Library
   Mihaly Kallay                                 : mrcc  (arbitrary order and MRCC methods)
   Andreas Klamt, Michael Diedenhofen            : otool_cosmo (COSMO solvation model)
   Jiri Pittner, Ondrej Demel                    : Mk-CCSD
   Frank Weinhold                                : gennbo (NPA and NBO analysis)
   Christopher J. Cramer and Donald G. Truhlar   : smd solvation model
   Lars Goerigk                                  : TD-DFT with DH, B97 family of functionals
   V. Asgeirsson, H. Jonsson                     : NEB implementation
   FAccTs GmbH                                   : IRC, NEB, NEB-TS, Multilevel, MM, QM/MM, CI optimization
   S Lehtola, MJT Oliveira, MAL Marques          : LibXC Library


 Your calculation uses the libint2 library for the computation of 2-el integrals
 For citations please refer to: http://libint.valeyev.net

 Your ORCA version has been built with support for libXC version: 4.2.3
 For citations please refer to: https://tddft.org/programs/libxc/

 This ORCA versions uses:
   CBLAS   interface :  Fast vector & matrix operations
   LAPACKE interface :  Fast linear algebra routines
   SCALAPACK package :  Parallel linear algebra routines




***************************************
The coordinates will be read from file: init.xyz
***************************************


Your calculation utilizes the SMD solvation module
Please cite in your paper:
A.V. Marenich, C.J. Cramer, D.G. Truhlar J. Phys. Chem. B, 113, (2009), 6378 

Your calculation utilizes the semiempirical GFN2-xTB method
Please cite in your paper:
C. Bannwarth, Ehlert S., S. Grimme,  J. Chem. Theory Comput., 15, (2019), 1652.
   

----- Orbital basis set information -----
Your calculation utilizes the basis: def2-SVP
   F. Weigend and R. Ahlrichs, Phys. Chem. Chem. Phys. 7, 3297 (2005).

================================================================================
                                        WARNINGS
                       Please study these warnings very carefully!
================================================================================

WARNING: Gradients needed for Numerical Frequencies
  ===> : Setting RunTyp to EnGrad

WARNING: The environment variable RSH_COMMAND is not set!
  ===> : All Displacements for the Numerical Hessian calculation
         will be started on localhost

WARNING: Found dipole moment calculation with XTB calculation
  ===> : Switching off dipole moment calculation


INFO   : the flag for use of LIBINT has been found!

================================================================================
                                       INPUT FILE
================================================================================
NAME = /tmp/slurm-scratch/freq.365/freq.inp
|  1> ! XTB2 NumFreq
|  2> %maxcore 1450
|  3> 
|  4> * xyzfile 0 1 init.xyz
|  5> 
|  6> %cpcm
|  7>  smd true
|  8>  smdsolvent "ch2cl2"
|  9> end
| 10> %pal nprocs 8 end
| 11> 
| 12>                          ****END OF INPUT****
================================================================================

                     *******************************
                     * Energy+Gradient Calculation *
                     *******************************

      -----------------------------------------------------------      
     |                   =====================                   |     
     |                           x T B                           |     
     |                   =====================                   |     
     |                         S. Grimme                         |     
     |          Mulliken Center for Theoretical Chemistry        |     
     |                    University of Bonn                     |     
      -----------------------------------------------------------      

   * xtb version 6.3.0 (preview) compiled by 'ehlert@majestix' on 2020-01-15

   This program is distributed in the hope that it will be useful,
   but WITHOUT ANY WARRANTY; without even the implied warranty of
   MERCHANTABILITY or FITNESS FOR A PARTICULAR PURPOSE.
   
   FOR NON-COMMERCIAL, ACADEMIA USE ONLY.
   
   Cite this work as:
   * S. Grimme, C. Bannwarth, P. Shushkov, J. Chem. Theory Comput., 2017,
     13, 1989-2009. DOI: 10.1021/acs.jctc.7b00118
   * C. Bannwarth, S. Ehlert and S. Grimme., J. Chem. Theory Comput., 2019,
     15, 1652-1671. DOI: 10.1021/acs.jctc.8b01176
   * P. Pracht, E. Caldeweyher, S. Ehlert, S. Grimme, ChemRxiv, 2019, preprint.
     DOI: 10.26434/chemrxiv.8326202.v1
   * S. Grimme, S. Spicher unpublished
   
   for DFT-D4:
   * E. Caldeweyher, C. Bannwarth and S. Grimme, J. Chem. Phys., 2017,
     147, 034112. DOI: 10.1063/1.4993215
   * E. Caldeweyher, S. Ehlert, A. Hansen, H. Neugebauer, S. Spicher,
     C. Bannwarth and S. Grimme, J. Chem. Phys., 2019, 150, 154122.
     DOI: 10.1063/1.5090222
   
   for sTDA-xTB:
   * S. Grimme and C. Bannwarth, J. Chem. Phys., 2016, 145, 054103.
     DOI: 10.1063/1.4959605
   
   in the mass-spec context:
   * V. Asgeirsson, C. Bauer and S. Grimme, Chem. Sci., 2017, 8, 4879.
     DOI: 10.1039/c7sc00601b
   
   for metadynamics refer to:
   * S. Grimme, J. Chem. Theory Comput., 2019, 155, 2847-2862
     DOI: 10.1021/acs.jctc.9b00143
   
   with help from (in alphabetical order)
   C. Bannwarth, F. Bohle, G. Brandenburg, E. Caldeweyher, M. Checinski,
   S. Dohm, S. Ehlert, S. Ehrlich, F. März, H. Neugebauer, J. Pisarek,
   P. Pracht, P. Shushkov, and S. Spicher.
   
 * started run on 2021/01/28 at 20:17:35.663     

           -------------------------------------------------
          |                Calculation Setup                |
           -------------------------------------------------

          program call               : /opt/orca/otool_xtb /tmp/slurm-scratch/freq.365/freq_XTB.xyz --grad -c 0 -u 0 -P 8 --namespace /tmp/slurm-scratch/freq.365/freq --gbsa CH2Cl2
          hostname                   : headnode-pbs
          calculation namespace      : /tmp/slurm-scratch/freq.365/freq
          coordinate file            : /tmp/slurm-scratch/freq.365/freq_XTB.xyz
          omp threads                :                     8
          number of atoms            :                    33
          number of electrons        :                    80
          charge                     :                     0
          spin                       :                   0.0
          first test random number   :      0.67556356239268


molecular fragmentation (1/2 indicates fragments):
111111111121111211111112111111111
# atoms in fragment 1/2:    30     3
 fragment masses (1/2) :      179.26       18.02
CMA distance (Bohr)    :   6.885
constraining FC (au)   :  0.0500

########################################################################
# WARNING! Please study the warnings concerning your input carefully
#  - Process number higher than OMP_NUM_THREADS, I hope you know what you are doing.
########################################################################

           ------------------------------------------------- 
          |                 G F N 2 - x T B                 |
          | Geometry, Frequencies, Noncovalent interactions |
          |            JCTC 2019 parametrisation            |
           ------------------------------------------------- 
             k(s)              :                1.8500
             k(p)              :                2.2300
             k(d)              :                2.2300
             k(f)              :                2.0000
             kEN (H0ij)        :               -2.0000
             D4 a1             :                0.5200
             D4 a2             :                5.0000
             D4 s6             :                1.0000
             D4 s8             :                2.7000
             D4 s9             :                5.0000
             alphaj            :                2.0000

  Z AO/shell   Hii/eV     exponent
  1     Wed Apr 25 08:07:45 CEST 2018   EN: 2.200 GM2: 0.406  GM3: 0.0800  RAES: 1.40
     1s    -10.707211    1.230000
  6     Wed Apr 25 08:07:45 CEST 2018   EN: 2.550 GM2: 0.538  GM3: 0.1500  RAES: 3.00
     2s    -13.970922    2.096432
     2p    -10.063292    1.800000
  7     Wed Apr 25 08:07:45 CEST 2018   EN: 3.040 GM2: 0.461  GM3:-0.0640  RAES: 1.90
     2s    -16.686243    2.339881
     2p    -12.523956    2.014332
  8     Wed Apr 25 08:07:45 CEST 2018   EN: 3.440 GM2: 0.452  GM3:-0.0517  RAES: 1.80
     2s    -20.229985    2.439742
     2p    -15.503117    2.137023

 Solvent             : CH2Cl2
 Using internal parameter file: .param_gbsa2_CH2Cl2
 Gsolv ref. state (COSMO-RS): gsolv [1 M gas/solution]
 temperature (mdtemp)       :    298.150000000000     
 dielectric constant        :    8.93000000000000     
 rho                        :    1.33000000000000     
 mass                       :    84.9300000000000     
 surface tension            :    15.5689454083859     
 probe radius               :   0.719875900000000     
 Gshift (Eh)                :   4.440829173451759E-003
 c1                         :    1.49173776000000     
 soset                      :   0.000000000000000E+000
 HB correction              :  F
           ------------------------------------------------- 
          |        Self-Consistent Charge Iterations        |
           ------------------------------------------------- 

          ...................................................
          :                      SETUP                      :
          :.................................................:
          :  # basis functions                  75          :
          :  # atomic orbitals                  75          :
          :  # shells                           47          :
          :  # electrons                        80          :
          :  max. iterations                   250          :
          :  Hamiltonian                  GFN2-xTB          :
          :  GBSA solvation                   true          :
          :  PC potential                    false          :
          :  electronic temp.          300.0000000     K    :
          :  accuracy                    1.0000000          :
          :  -> integral cutoff          0.2500000E+02      :
          :  -> integral neglect         0.1000000E-07      :
          :  -> SCF convergence          0.1000000E-05 Eh   :
          :  -> wf. convergence          0.1000000E-03 e    :
          :  Broyden damping             0.4000000          :
          ...................................................
  Checking positiv definite overlap ...  done.
 

 iter      E             dE          RMSdq      gap      omega  full diag
   1    -44.8355836 -0.448356E+02  0.349E+00    3.83       0.0  T
   2    -44.8779488 -0.423652E-01  0.198E+00    4.20       1.0  T
   3    -44.8776208  0.328005E-03  0.657E-01    4.21       1.0  T
   4    -44.8795418 -0.192104E-02  0.242E-01    4.22       1.0  T
   5    -44.8812062 -0.166437E-02  0.672E-02    4.22       1.0  T
   6    -44.8812217 -0.154815E-04  0.285E-02    4.23       1.0  T
   7    -44.8812226 -0.916595E-06  0.104E-02    4.23       1.7  T
   8    -44.8812244 -0.175849E-05  0.362E-03    4.23       4.8  T
   9    -44.8812245 -0.942997E-07  0.185E-03    4.23       9.4  T
  10    -44.8812245 -0.108588E-07  0.764E-04    4.23      22.8  T
  11    -44.8812245 -0.510348E-08  0.305E-04    4.23      57.1  T

   *** convergence criteria satisfied after 11 iterations ***

         #    Occupation            Energy/Eh            Energy/eV
      -------------------------------------------------------------
         1        2.0000           -0.6929145             -18.8552
       ...           ...                  ...                  ...
        34        2.0000           -0.4414404             -12.0122
        35        2.0000           -0.4292005             -11.6791
        36        2.0000           -0.4254400             -11.5768
        37        2.0000           -0.4127859             -11.2325
        38        2.0000           -0.4080543             -11.1037
        39        2.0000           -0.4064864             -11.0611
        40        2.0000           -0.3869990             -10.5308 (HOMO)
        41                         -0.2316030              -6.3022 (LUMO)
        42                         -0.2285989              -6.2205
        43                         -0.1046074              -2.8465
        44                         -0.0049194              -0.1339
        45                          0.0455899               1.2406
       ...                                ...                  ...
        75                          0.6431421              17.5008
      -------------------------------------------------------------
                  HL-Gap            0.1553959 Eh            4.2285 eV
             Fermi-level           -0.3093010 Eh           -8.4165 eV

 SCC (total)                   0 d,  0 h,  0 min,  0.058 sec
 SCC setup                      ...        0 min,  0.004 sec (  6.506%)
 Dispersion                     ...        0 min,  0.001 sec (  1.490%)
 integral evaluation            ...        0 min,  0.011 sec ( 19.054%)
 zeroth order Hamiltonian       ...        0 min,  0.000 sec (  0.032%)
 iterations                     ...        0 min,  0.030 sec ( 51.192%)
 molecular gradient             ...        0 min,  0.012 sec ( 19.801%)
 printout                       ...        0 min,  0.001 sec (  1.805%)

         :::::::::::::::::::::::::::::::::::::::::::::::::::::
         ::                     SUMMARY                     ::
         :::::::::::::::::::::::::::::::::::::::::::::::::::::
         :: total energy             -44.300013360653 Eh    ::
         :: total w/o Gsasa/hb       -44.283383829903 Eh    ::
         :: gradient norm              0.024628460783 Eh/a0 ::
         :: HOMO-LUMO gap              4.228537987702 eV    ::
         ::.................................................::
         :: SCC energy               -44.897854001359 Eh    ::
         :: -> isotropic ES            0.075036866622 Eh    ::
         :: -> anisotropic ES          0.000169583445 Eh    ::
         :: -> anisotropic XC          0.021777734659 Eh    ::
         :: -> dispersion             -0.026572182201 Eh    ::
         :: -> Gsolv                  -0.022039440411 Eh    ::
         ::    -> Gborn               -0.005409909660 Eh    ::
         ::    -> Gsasa               -0.021070359924 Eh    ::
         ::    -> Ghb                  0.000000000000 Eh    ::
         ::    -> Gshift               0.004440829173 Eh    ::
         :: repulsion energy           0.597767822746 Eh    ::
         :: add. restraining           0.000000000000 Eh    ::
         :::::::::::::::::::::::::::::::::::::::::::::::::::::

           -------------------------------------------------
          |                Property Printout                |
           -------------------------------------------------

    * Orbital Energies and Occupations

         #    Occupation            Energy/Eh            Energy/eV
      -------------------------------------------------------------
         1        2.0000           -0.6929145             -18.8552
       ...           ...                  ...                  ...
        28        2.0000           -0.4733905             -12.8816
        29        2.0000           -0.4718152             -12.8387
        30        2.0000           -0.4603205             -12.5260
        31        2.0000           -0.4492255             -12.2240
        32        2.0000           -0.4446064             -12.0984
        33        2.0000           -0.4441812             -12.0868
        34        2.0000           -0.4414404             -12.0122
        35        2.0000           -0.4292005             -11.6791
        36        2.0000           -0.4254400             -11.5768
        37        2.0000           -0.4127859             -11.2325
        38        2.0000           -0.4080543             -11.1037
        39        2.0000           -0.4064864             -11.0611
        40        2.0000           -0.3869990             -10.5308 (HOMO)
        41                         -0.2316030              -6.3022 (LUMO)
        42                         -0.2285989              -6.2205
        43                         -0.1046074              -2.8465
        44                         -0.0049194              -0.1339
        45                          0.0455899               1.2406
        46                          0.0633450               1.7237
        47                          0.0722972               1.9673
        48                          0.0829500               2.2572
        49                          0.0993767               2.7042
        50                          0.1045109               2.8439
        51                          0.1193962               3.2489
       ...                                ...                  ...
        75                          0.6431421              17.5008
      -------------------------------------------------------------
                  HL-Gap            0.1553959 Eh            4.2285 eV
             Fermi-level           -0.3093010 Eh           -8.4165 eV

     #   Z        covCN         q      C6AA      α(0)
     1   6 C      2.914    -0.030    28.756     8.793
     2   6 C      2.920    -0.039    28.981     8.828
     3   6 C      2.967    -0.017    28.426     8.745
     4   6 C      2.918    -0.033    28.823     8.804
     5   6 C      2.915    -0.029    28.735     8.790
     6   6 C      2.915    -0.031    28.764     8.795
     7   1 H      0.925     0.030     2.582     2.513
     8   1 H      0.925     0.051     2.313     2.378
     9   1 H      0.925     0.040     2.445     2.445
    10   7 N      2.677    -0.299    27.693     7.816
    11   1 H      0.802     0.310     0.693     1.308
    12   6 C      3.737     0.005    20.576     6.473
    13   1 H      0.924     0.042     2.425     2.435
    14   1 H      0.924     0.047     2.361     2.403
    15   1 H      0.860     0.150     1.404     1.856
    16   1 H      0.805     0.290     0.753     1.363
    17   1 H      0.804     0.324     0.654     1.270
    18   6 C      3.667     0.178    17.991     6.082
    19   1 H      0.924     0.023     2.691     2.565
    20   8 O      1.654    -0.486    22.591     6.416
    21   6 C      3.800    -0.064    21.731     6.637
    22   1 H      0.924     0.030     2.589     2.516
    23   1 H      0.924     0.032     2.554     2.499
    24   8 O      1.606    -0.620    25.672     6.838
    25   6 C      3.800    -0.054    21.545     6.609
    26   1 H      0.924     0.034     2.535     2.490
    27   1 H      0.924     0.033     2.546     2.495
    28   1 H      0.925     0.040     2.449     2.447
    29   1 H      0.925     0.041     2.434     2.440
    30   6 C      3.750    -0.102    22.510     6.766
    31   1 H      0.924     0.035     2.510     2.477
    32   1 H      0.924     0.037     2.486     2.466
    33   1 H      0.924     0.034     2.525     2.485

 Mol. C6AA /au·bohr⁶  :       9457.982492
 Mol. C8AA /au·bohr⁸  :     210536.821803
 Mol. α(0) /au        :        149.248280


Wiberg/Mayer (AO) data.
largest (>0.10) Wiberg bond orders for each atom
          total WBO             WBO to atom ...
     1  C   3.991        C    2 1.443    C    6 1.439    H   28 0.971    C    4 0.112
     2  C   3.991        C    1 1.443    C    3 1.416    H    7 0.969    C    5 0.112
     3  C   3.987        C    2 1.416    C    4 1.416    C   18 0.976    C    6 0.110
     4  C   3.991        C    5 1.443    C    3 1.416    H    8 0.966    C    1 0.112
     5  C   3.991        C    4 1.443    C    6 1.439    H   29 0.971    C    2 0.112
     6  C   3.991        C    1 1.439    C    5 1.439    H    9 0.971    C    3 0.110
     7  H   0.999        C    2 0.969
     8  H   0.997        C    4 0.966
     9  H   0.998        C    6 0.971
    10  N   3.125        C   12 0.997    C   18 0.978    H   15 0.951
    11  H   0.904        O   24 0.844
    12  C   3.977        C   21 1.001    N   10 0.997    H   14 0.974    H   13 0.972
    13  H   0.998        C   12 0.972
    14  H   0.998        C   12 0.974
    15  H   0.978        N   10 0.951
    16  H   0.916        O   24 0.914
    17  H   0.895        O   20 0.846
    18  C   3.951        O   20 0.993    N   10 0.978    C    3 0.976    H   19 0.951
    19  H   0.999        C   18 0.951
    20  O   1.948        C   18 0.993    H   17 0.846
    21  C   3.997        C   25 1.006    C   12 1.001    H   23 0.976    H   22 0.973
    22  H   0.999        C   21 0.973
    23  H   0.999        C   21 0.976
    24  O   1.834        H   16 0.914    H   11 0.844
    25  C   3.997        C   30 1.020    C   21 1.006    H   27 0.978    H   26 0.978
    26  H   0.999        C   25 0.978
    27  H   0.999        C   25 0.978
    28  H   0.998        C    1 0.971
    29  H   0.998        C    5 0.971
    30  C   3.996        C   25 1.020    H   33 0.988    H   31 0.988    H   32 0.987
    31  H   0.999        C   30 0.988
    32  H   0.998        C   30 0.987
    33  H   0.999        C   30 0.988

molecular dipole:
                 x           y           z       tot (Debye)
 q only:       -0.922      -0.437      -0.372
   full:       -1.333      -0.445      -0.440       3.743
molecular quadrupole (traceless):
                xx          xy          yy          xz          yz          zz
 q only:        1.889       4.020      -0.069      -6.455      -7.172      -1.820
  q+dip:        1.668       3.071       0.028      -8.402      -9.564      -1.696
   full:        1.754       4.530       0.414      -7.599      -8.658      -2.167

           -------------------------------------------------
          |                Property Printout                |
           -------------------------------------------------

    * Orbital Energies and Occupations

         #    Occupation            Energy/Eh            Energy/eV
      -------------------------------------------------------------
         1        2.0000           -0.6929145             -18.8552
       ...           ...                  ...                  ...
        28        2.0000           -0.4733905             -12.8816
        29        2.0000           -0.4718152             -12.8387
        30        2.0000           -0.4603205             -12.5260
        31        2.0000           -0.4492255             -12.2240
        32        2.0000           -0.4446064             -12.0984
        33        2.0000           -0.4441812             -12.0868
        34        2.0000           -0.4414404             -12.0122
        35        2.0000           -0.4292005             -11.6791
        36        2.0000           -0.4254400             -11.5768
        37        2.0000           -0.4127859             -11.2325
        38        2.0000           -0.4080543             -11.1037
        39        2.0000           -0.4064864             -11.0611
        40        2.0000           -0.3869990             -10.5308 (HOMO)
        41                         -0.2316030              -6.3022 (LUMO)
        42                         -0.2285989              -6.2205
        43                         -0.1046074              -2.8465
        44                         -0.0049194              -0.1339
        45                          0.0455899               1.2406
        46                          0.0633450               1.7237
        47                          0.0722972               1.9673
        48                          0.0829500               2.2572
        49                          0.0993767               2.7042
        50                          0.1045109               2.8439
        51                          0.1193962               3.2489
       ...                                ...                  ...
        75                          0.6431421              17.5008
      -------------------------------------------------------------
                  HL-Gap            0.1553959 Eh            4.2285 eV
             Fermi-level           -0.3093010 Eh           -8.4165 eV

     #   Z        covCN         q      C6AA      α(0)
     1   6 C      2.914    -0.030    28.756     8.793
     2   6 C      2.920    -0.039    28.981     8.828
     3   6 C      2.967    -0.017    28.426     8.745
     4   6 C      2.918    -0.033    28.823     8.804
     5   6 C      2.915    -0.029    28.735     8.790
     6   6 C      2.915    -0.031    28.764     8.795
     7   1 H      0.925     0.030     2.582     2.513
     8   1 H      0.925     0.051     2.313     2.378
     9   1 H      0.925     0.040     2.445     2.445
    10   7 N      2.677    -0.299    27.693     7.816
    11   1 H      0.802     0.310     0.693     1.308
    12   6 C      3.737     0.005    20.576     6.473
    13   1 H      0.924     0.042     2.425     2.435
    14   1 H      0.924     0.047     2.361     2.403
    15   1 H      0.860     0.150     1.404     1.856
    16   1 H      0.805     0.290     0.753     1.363
    17   1 H      0.804     0.324     0.654     1.270
    18   6 C      3.667     0.178    17.991     6.082
    19   1 H      0.924     0.023     2.691     2.565
    20   8 O      1.654    -0.486    22.591     6.416
    21   6 C      3.800    -0.064    21.731     6.637
    22   1 H      0.924     0.030     2.589     2.516
    23   1 H      0.924     0.032     2.554     2.499
    24   8 O      1.606    -0.620    25.672     6.838
    25   6 C      3.800    -0.054    21.545     6.609
    26   1 H      0.924     0.034     2.535     2.490
    27   1 H      0.924     0.033     2.546     2.495
    28   1 H      0.925     0.040     2.449     2.447
    29   1 H      0.925     0.041     2.434     2.440
    30   6 C      3.750    -0.102    22.510     6.766
    31   1 H      0.924     0.035     2.510     2.477
    32   1 H      0.924     0.037     2.486     2.466
    33   1 H      0.924     0.034     2.525     2.485

 Mol. C6AA /au·bohr⁶  :       9457.982492
 Mol. C8AA /au·bohr⁸  :     210536.821803
 Mol. α(0) /au        :        149.248280


Wiberg/Mayer (AO) data.
largest (>0.10) Wiberg bond orders for each atom
          total WBO             WBO to atom ...
     1  C   3.991        C    2 1.443    C    6 1.439    H   28 0.971    C    4 0.112
     2  C   3.991        C    1 1.443    C    3 1.416    H    7 0.969    C    5 0.112
     3  C   3.987        C    2 1.416    C    4 1.416    C   18 0.976    C    6 0.110
     4  C   3.991        C    5 1.443    C    3 1.416    H    8 0.966    C    1 0.112
     5  C   3.991        C    4 1.443    C    6 1.439    H   29 0.971    C    2 0.112
     6  C   3.991        C    1 1.439    C    5 1.439    H    9 0.971    C    3 0.110
     7  H   0.999        C    2 0.969
     8  H   0.997        C    4 0.966
     9  H   0.998        C    6 0.971
    10  N   3.125        C   12 0.997    C   18 0.978    H   15 0.951
    11  H   0.904        O   24 0.844
    12  C   3.977        C   21 1.001    N   10 0.997    H   14 0.974    H   13 0.972
    13  H   0.998        C   12 0.972
    14  H   0.998        C   12 0.974
    15  H   0.978        N   10 0.951
    16  H   0.916        O   24 0.914
    17  H   0.895        O   20 0.846
    18  C   3.951        O   20 0.993    N   10 0.978    C    3 0.976    H   19 0.951
    19  H   0.999        C   18 0.951
    20  O   1.948        C   18 0.993    H   17 0.846
    21  C   3.997        C   25 1.006    C   12 1.001    H   23 0.976    H   22 0.973
    22  H   0.999        C   21 0.973
    23  H   0.999        C   21 0.976
    24  O   1.834        H   16 0.914    H   11 0.844
    25  C   3.997        C   30 1.020    C   21 1.006    H   27 0.978    H   26 0.978
    26  H   0.999        C   25 0.978
    27  H   0.999        C   25 0.978
    28  H   0.998        C    1 0.971
    29  H   0.998        C    5 0.971
    30  C   3.996        C   25 1.020    H   33 0.988    H   31 0.988    H   32 0.987
    31  H   0.999        C   30 0.988
    32  H   0.998        C   30 0.987
    33  H   0.999        C   30 0.988

molecular dipole:
                 x           y           z       tot (Debye)
 q only:       -0.922      -0.437      -0.372
   full:       -1.333      -0.445      -0.440       3.743
molecular quadrupole (traceless):
                xx          xy          yy          xz          yz          zz
 q only:        1.889       4.020      -0.069      -6.455      -7.172      -1.820
  q+dip:        1.668       3.071       0.028      -8.402      -9.564      -1.696
   full:        1.754       4.530       0.414      -7.599      -8.658      -2.167


           -------------------------------------------------
          | TOTAL ENERGY              -44.300013360653 Eh   |
          | GRADIENT NORM               0.024628460783 Eh/α |
          | HOMO-LUMO GAP               4.228537987702 eV   |
           -------------------------------------------------

------------------------------------------------------------------------
 * finished run on 2021/01/28 at 20:17:35.790     
------------------------------------------------------------------------
 total:
 * wall-time:     0 d,  0 h,  0 min,  0.127 sec
 *  cpu-time:     0 d,  0 h,  0 min,  0.976 sec
 * ratio c/w:     7.700 speedup
 SCF:
 * wall-time:     0 d,  0 h,  0 min,  0.061 sec
 *  cpu-time:     0 d,  0 h,  0 min,  0.490 sec
 * ratio c/w:     8.053 speedup


-------------------------   --------------------
FINAL SINGLE POINT ENERGY       -44.300013360650
-------------------------   --------------------


----------------------------------------------------------------------------
                           ORCA NUMERICAL FREQUENCIES
                              (8-process run)
----------------------------------------------------------------------------

Number of atoms                ... 33
Central differences            ... used
Number of displacements        ... 198
Numerical increment            ... 5.000e-03 bohr
IR-spectrum generation         ... on
Raman-spectrum generation      ... off
Surface Crossing Hessian       ... off
List of participating nodes    ...  /tmp/slurm-scratch/freq.365/freq.hostnames

The output will be reduced. Please look at the following files:
SCF program output             ... >/tmp/slurm-scratch/freq.365/freq.lastscf
Integral program output        ... >/tmp/slurm-scratch/freq.365/freq.lastint
Gradient program output        ... >/tmp/slurm-scratch/freq.365/freq.lastgrad
Dipole moment program output   ... >/tmp/slurm-scratch/freq.365/freq.lastmom
AutoCI program output          ... >/tmp/slurm-scratch/freq.365/freq.lastautoci


         <<< Energy and Gradient at the input geometry >>>

        <<< Energy and Gradient at displaced geometries >>>
             <<<Displacing   1/coordinate 2 (+)>>>
             <<<Displacing   3/coordinate 2 (+)>>>
             <<<Displacing   1/coordinate 3 (+)>>>
             <<<Displacing   1/coordinate 1 (+)>>>
             <<<Displacing   2/coordinate 1 (+)>>>
             <<<Displacing   2/coordinate 2 (+)>>>
             <<<Displacing   3/coordinate 1 (+)>>>
             <<<Displacing   2/coordinate 3 (+)>>>
             <<<Displacing   2/coordinate 2 (-)>>>
             <<<Displacing   1/coordinate 3 (-)>>>
             <<<Displacing   3/coordinate 2 (-)>>>
             <<<Displacing   2/coordinate 1 (-)>>>
             <<<Displacing   1/coordinate 2 (-)>>>
             <<<Displacing   1/coordinate 1 (-)>>>
             <<<Displacing   3/coordinate 1 (-)>>>
             <<<Displacing   2/coordinate 3 (-)>>>
             <<<Displacing   3/coordinate 3 (+)>>>
             <<<Displacing   4/coordinate 1 (+)>>>
             <<<Displacing   5/coordinate 2 (+)>>>
             <<<Displacing   4/coordinate 3 (+)>>>
             <<<Displacing   3/coordinate 3 (-)>>>
             <<<Displacing   5/coordinate 1 (+)>>>
             <<<Displacing   5/coordinate 3 (+)>>>
             <<<Displacing   4/coordinate 1 (-)>>>
             <<<Displacing   5/coordinate 2 (-)>>>
             <<<Displacing   4/coordinate 3 (-)>>>
             <<<Displacing   5/coordinate 3 (-)>>>
             <<<Displacing   5/coordinate 1 (-)>>>
             <<<Displacing   4/coordinate 2 (+)>>>
             <<<Displacing   4/coordinate 2 (-)>>>
             <<<Displacing   6/coordinate 1 (+)>>>
             <<<Displacing   6/coordinate 1 (-)>>>
             <<<Displacing   6/coordinate 2 (+)>>>
             <<<Displacing   6/coordinate 3 (+)>>>
             <<<Displacing   7/coordinate 1 (+)>>>
             <<<Displacing   6/coordinate 2 (-)>>>
             <<<Displacing   7/coordinate 2 (+)>>>
             <<<Displacing   8/coordinate 1 (+)>>>
             <<<Displacing   6/coordinate 3 (-)>>>
             <<<Displacing   7/coordinate 1 (-)>>>
             <<<Displacing   7/coordinate 2 (-)>>>
             <<<Displacing   8/coordinate 1 (-)>>>
             <<<Displacing   8/coordinate 3 (+)>>>
             <<<Displacing   7/coordinate 3 (+)>>>
             <<<Displacing   8/coordinate 3 (-)>>>
             <<<Displacing   7/coordinate 3 (-)>>>
             <<<Displacing   8/coordinate 2 (+)>>>
             <<<Displacing   8/coordinate 2 (-)>>>
             <<<Displacing   9/coordinate 1 (+)>>>
             <<<Displacing   9/coordinate 1 (-)>>>
             <<<Displacing  10/coordinate 2 (+)>>>
             <<<Displacing  10/coordinate 2 (-)>>>
             <<<Displacing   9/coordinate 3 (+)>>>
             <<<Displacing  10/coordinate 1 (+)>>>
             <<<Displacing   9/coordinate 3 (-)>>>
             <<<Displacing   9/coordinate 2 (+)>>>
             <<<Displacing  11/coordinate 1 (+)>>>
             <<<Displacing  10/coordinate 1 (-)>>>
             <<<Displacing   9/coordinate 2 (-)>>>
             <<<Displacing  11/coordinate 1 (-)>>>
             <<<Displacing  11/coordinate 2 (+)>>>
             <<<Displacing  11/coordinate 2 (-)>>>
             <<<Displacing  10/coordinate 3 (+)>>>
             <<<Displacing  10/coordinate 3 (-)>>>
             <<<Displacing  11/coordinate 3 (+)>>>
             <<<Displacing  11/coordinate 3 (-)>>>
             <<<Displacing  12/coordinate 1 (+)>>>
             <<<Displacing  12/coordinate 2 (+)>>>
             <<<Displacing  12/coordinate 3 (+)>>>
             <<<Displacing  12/coordinate 1 (-)>>>
             <<<Displacing  12/coordinate 2 (-)>>>
             <<<Displacing  12/coordinate 3 (-)>>>
             <<<Displacing  13/coordinate 1 (+)>>>
             <<<Displacing  13/coordinate 2 (+)>>>
             <<<Displacing  13/coordinate 2 (-)>>>
             <<<Displacing  13/coordinate 1 (-)>>>
             <<<Displacing  13/coordinate 3 (+)>>>
             <<<Displacing  14/coordinate 1 (+)>>>
             <<<Displacing  13/coordinate 3 (-)>>>
             <<<Displacing  14/coordinate 1 (-)>>>
             <<<Displacing  14/coordinate 2 (+)>>>
             <<<Displacing  14/coordinate 2 (-)>>>
             <<<Displacing  15/coordinate 2 (+)>>>
             <<<Displacing  15/coordinate 1 (+)>>>
             <<<Displacing  15/coordinate 2 (-)>>>
             <<<Displacing  14/coordinate 3 (+)>>>
             <<<Displacing  15/coordinate 1 (-)>>>
             <<<Displacing  14/coordinate 3 (-)>>>
             <<<Displacing  15/coordinate 3 (+)>>>
             <<<Displacing  15/coordinate 3 (-)>>>
             <<<Displacing  16/coordinate 1 (+)>>>
             <<<Displacing  16/coordinate 2 (+)>>>
             <<<Displacing  16/coordinate 1 (-)>>>
             <<<Displacing  16/coordinate 3 (+)>>>
             <<<Displacing  16/coordinate 2 (-)>>>
             <<<Displacing  16/coordinate 3 (-)>>>
             <<<Displacing  17/coordinate 1 (+)>>>
             <<<Displacing  17/coordinate 1 (-)>>>
             <<<Displacing  17/coordinate 3 (+)>>>
             <<<Displacing  17/coordinate 3 (-)>>>
             <<<Displacing  17/coordinate 2 (+)>>>
             <<<Displacing  17/coordinate 2 (-)>>>
             <<<Displacing  18/coordinate 1 (+)>>>
             <<<Displacing  18/coordinate 1 (-)>>>
             <<<Displacing  18/coordinate 3 (+)>>>
             <<<Displacing  18/coordinate 2 (+)>>>
             <<<Displacing  18/coordinate 3 (-)>>>
             <<<Displacing  19/coordinate 1 (+)>>>
             <<<Displacing  18/coordinate 2 (-)>>>
             <<<Displacing  19/coordinate 1 (-)>>>
             <<<Displacing  19/coordinate 2 (+)>>>
             <<<Displacing  19/coordinate 2 (-)>>>
             <<<Displacing  19/coordinate 3 (+)>>>
             <<<Displacing  19/coordinate 3 (-)>>>
             <<<Displacing  20/coordinate 1 (+)>>>
             <<<Displacing  20/coordinate 1 (-)>>>
             <<<Displacing  20/coordinate 3 (+)>>>
             <<<Displacing  20/coordinate 2 (+)>>>
             <<<Displacing  20/coordinate 3 (-)>>>
             <<<Displacing  20/coordinate 2 (-)>>>
             <<<Displacing  21/coordinate 1 (+)>>>
             <<<Displacing  21/coordinate 1 (-)>>>
             <<<Displacing  21/coordinate 2 (+)>>>
             <<<Displacing  21/coordinate 2 (-)>>>
             <<<Displacing  22/coordinate 1 (+)>>>
             <<<Displacing  21/coordinate 3 (+)>>>
             <<<Displacing  22/coordinate 1 (-)>>>
             <<<Displacing  21/coordinate 3 (-)>>>
             <<<Displacing  22/coordinate 2 (+)>>>
             <<<Displacing  22/coordinate 2 (-)>>>
             <<<Displacing  22/coordinate 3 (+)>>>
             <<<Displacing  22/coordinate 3 (-)>>>
             <<<Displacing  23/coordinate 1 (+)>>>
             <<<Displacing  23/coordinate 2 (+)>>>
             <<<Displacing  23/coordinate 1 (-)>>>
             <<<Displacing  23/coordinate 2 (-)>>>
             <<<Displacing  23/coordinate 3 (+)>>>
             <<<Displacing  24/coordinate 1 (+)>>>
             <<<Displacing  23/coordinate 3 (-)>>>
             <<<Displacing  24/coordinate 1 (-)>>>
             <<<Displacing  24/coordinate 3 (+)>>>
             <<<Displacing  24/coordinate 3 (-)>>>
             <<<Displacing  24/coordinate 2 (+)>>>
             <<<Displacing  24/coordinate 2 (-)>>>
             <<<Displacing  25/coordinate 1 (+)>>>
             <<<Displacing  25/coordinate 1 (-)>>>
             <<<Displacing  25/coordinate 2 (+)>>>
             <<<Displacing  25/coordinate 2 (-)>>>
             <<<Displacing  26/coordinate 1 (+)>>>
             <<<Displacing  25/coordinate 3 (+)>>>
             <<<Displacing  26/coordinate 1 (-)>>>
             <<<Displacing  25/coordinate 3 (-)>>>
             <<<Displacing  27/coordinate 1 (+)>>>
             <<<Displacing  26/coordinate 2 (+)>>>
             <<<Displacing  27/coordinate 1 (-)>>>
             <<<Displacing  26/coordinate 2 (-)>>>
             <<<Displacing  26/coordinate 3 (+)>>>
             <<<Displacing  26/coordinate 3 (-)>>>
             <<<Displacing  27/coordinate 2 (+)>>>
             <<<Displacing  27/coordinate 2 (-)>>>
             <<<Displacing  27/coordinate 3 (+)>>>
             <<<Displacing  27/coordinate 3 (-)>>>
             <<<Displacing  28/coordinate 3 (+)>>>
             <<<Displacing  28/coordinate 1 (+)>>>
             <<<Displacing  28/coordinate 3 (-)>>>
             <<<Displacing  28/coordinate 1 (-)>>>
             <<<Displacing  29/coordinate 3 (+)>>>
             <<<Displacing  28/coordinate 2 (+)>>>
             <<<Displacing  29/coordinate 3 (-)>>>
             <<<Displacing  29/coordinate 1 (+)>>>
             <<<Displacing  28/coordinate 2 (-)>>>
             <<<Displacing  29/coordinate 1 (-)>>>
             <<<Displacing  29/coordinate 2 (+)>>>
             <<<Displacing  29/coordinate 2 (-)>>>
             <<<Displacing  30/coordinate 1 (+)>>>
             <<<Displacing  30/coordinate 1 (-)>>>
             <<<Displacing  30/coordinate 2 (+)>>>
             <<<Displacing  30/coordinate 2 (-)>>>
             <<<Displacing  31/coordinate 1 (+)>>>
             <<<Displacing  30/coordinate 3 (+)>>>
             <<<Displacing  31/coordinate 1 (-)>>>
             <<<Displacing  30/coordinate 3 (-)>>>
             <<<Displacing  31/coordinate 2 (+)>>>
             <<<Displacing  31/coordinate 2 (-)>>>
             <<<Displacing  31/coordinate 3 (+)>>>
             <<<Displacing  31/coordinate 3 (-)>>>
             <<<Displacing  32/coordinate 1 (+)>>>
             <<<Displacing  32/coordinate 1 (-)>>>
             <<<Displacing  32/coordinate 2 (+)>>>
             <<<Displacing  32/coordinate 2 (-)>>>
             <<<Displacing  32/coordinate 3 (+)>>>
             <<<Displacing  32/coordinate 3 (-)>>>
             <<<Displacing  33/coordinate 1 (+)>>>
             <<<Displacing  33/coordinate 1 (-)>>>
             <<<Displacing  33/coordinate 3 (+)>>>
             <<<Displacing  33/coordinate 3 (-)>>>
             <<<Displacing  33/coordinate 2 (+)>>>
             <<<Displacing  33/coordinate 2 (-)>>>

-----------------------
VIBRATIONAL FREQUENCIES
-----------------------

Scaling factor for frequencies =  1.000000000 (already applied!)

   0:         0.00 cm**-1
   1:         0.00 cm**-1
   2:         0.00 cm**-1
   3:         0.00 cm**-1
   4:         0.00 cm**-1
   5:         0.00 cm**-1
   6:        44.90 cm**-1
   7:        57.67 cm**-1
   8:        63.38 cm**-1
   9:        66.05 cm**-1
  10:        75.22 cm**-1
  11:       113.31 cm**-1
  12:       127.05 cm**-1
  13:       142.62 cm**-1
  14:       166.05 cm**-1
  15:       208.70 cm**-1
  16:       215.51 cm**-1
  17:       244.88 cm**-1
  18:       266.83 cm**-1
  19:       286.72 cm**-1
  20:       309.41 cm**-1
  21:       355.87 cm**-1
  22:       382.16 cm**-1
  23:       398.44 cm**-1
  24:       430.58 cm**-1
  25:       448.05 cm**-1
  26:       498.66 cm**-1
  27:       529.03 cm**-1
  28:       540.74 cm**-1
  29:       589.57 cm**-1
  30:       624.75 cm**-1
  31:       676.09 cm**-1
  32:       695.71 cm**-1
  33:       757.79 cm**-1
  34:       761.47 cm**-1
  35:       792.22 cm**-1
  36:       826.31 cm**-1
  37:       842.94 cm**-1
  38:       881.47 cm**-1
  39:       906.79 cm**-1
  40:       931.24 cm**-1
  41:       934.87 cm**-1
  42:       936.28 cm**-1
  43:       945.89 cm**-1
  44:       968.76 cm**-1
  45:       989.75 cm**-1
  46:      1029.08 cm**-1
  47:      1049.21 cm**-1
  48:      1074.21 cm**-1
  49:      1092.59 cm**-1
  50:      1100.24 cm**-1
  51:      1117.39 cm**-1
  52:      1127.24 cm**-1
  53:      1141.70 cm**-1
  54:      1180.29 cm**-1
  55:      1188.78 cm**-1
  56:      1205.85 cm**-1
  57:      1208.34 cm**-1
  58:      1220.76 cm**-1
  59:      1252.35 cm**-1
  60:      1263.55 cm**-1
  61:      1278.39 cm**-1
  62:      1281.96 cm**-1
  63:      1282.72 cm**-1
  64:      1298.84 cm**-1
  65:      1329.11 cm**-1
  66:      1338.26 cm**-1
  67:      1365.77 cm**-1
  68:      1372.25 cm**-1
  69:      1425.42 cm**-1
  70:      1428.28 cm**-1
  71:      1463.09 cm**-1
  72:      1481.53 cm**-1
  73:      1499.51 cm**-1
  74:      1505.27 cm**-1
  75:      1507.01 cm**-1
  76:      1511.29 cm**-1
  77:      1537.41 cm**-1
  78:      1569.41 cm**-1
  79:      1576.82 cm**-1
  80:      2927.15 cm**-1
  81:      2936.95 cm**-1
  82:      2946.98 cm**-1
  83:      2962.05 cm**-1
  84:      2965.74 cm**-1
  85:      2970.21 cm**-1
  86:      2979.75 cm**-1
  87:      2985.57 cm**-1
  88:      2996.78 cm**-1
  89:      2997.84 cm**-1
  90:      3042.53 cm**-1
  91:      3054.04 cm**-1
  92:      3059.26 cm**-1
  93:      3069.44 cm**-1
  94:      3074.67 cm**-1
  95:      3080.45 cm**-1
  96:      3342.55 cm**-1
  97:      3396.29 cm**-1
  98:      3573.91 cm**-1


------------
NORMAL MODES
------------

These modes are the cartesian displacements weighted by the diagonal matrix
M(i,i)=1/sqrt(m[i]) where m[i] is the mass of the displaced atom
Thus, these vectors are normalized but *not* orthogonal

                  0          1          2          3          4          5    
      0       0.000000   0.000000   0.000000   0.000000   0.000000   0.000000
      1       0.000000   0.000000   0.000000   0.000000   0.000000   0.000000
      2       0.000000   0.000000   0.000000   0.000000   0.000000   0.000000
      3       0.000000   0.000000   0.000000   0.000000   0.000000   0.000000
      4       0.000000   0.000000   0.000000   0.000000   0.000000   0.000000
      5       0.000000   0.000000   0.000000   0.000000   0.000000   0.000000
      6       0.000000   0.000000   0.000000   0.000000   0.000000   0.000000
      7       0.000000   0.000000   0.000000   0.000000   0.000000   0.000000
      8       0.000000   0.000000   0.000000   0.000000   0.000000   0.000000
      9       0.000000   0.000000   0.000000   0.000000   0.000000   0.000000
     10       0.000000   0.000000   0.000000   0.000000   0.000000   0.000000
     11       0.000000   0.000000   0.000000   0.000000   0.000000   0.000000
     12       0.000000   0.000000   0.000000   0.000000   0.000000   0.000000
     13       0.000000   0.000000   0.000000   0.000000   0.000000   0.000000
     14       0.000000   0.000000   0.000000   0.000000   0.000000   0.000000
     15       0.000000   0.000000   0.000000   0.000000   0.000000   0.000000
     16       0.000000   0.000000   0.000000   0.000000   0.000000   0.000000
     17       0.000000   0.000000   0.000000   0.000000   0.000000   0.000000
     18       0.000000   0.000000   0.000000   0.000000   0.000000   0.000000
     19       0.000000   0.000000   0.000000   0.000000   0.000000   0.000000
     20       0.000000   0.000000   0.000000   0.000000   0.000000   0.000000
     21       0.000000   0.000000   0.000000   0.000000   0.000000   0.000000
     22       0.000000   0.000000   0.000000   0.000000   0.000000   0.000000
     23       0.000000   0.000000   0.000000   0.000000   0.000000   0.000000
     24       0.000000   0.000000   0.000000   0.000000   0.000000   0.000000
     25       0.000000   0.000000   0.000000   0.000000   0.000000   0.000000
     26       0.000000   0.000000   0.000000   0.000000   0.000000   0.000000
     27       0.000000   0.000000   0.000000   0.000000   0.000000   0.000000
     28       0.000000   0.000000   0.000000   0.000000   0.000000   0.000000
     29       0.000000   0.000000   0.000000   0.000000   0.000000   0.000000
     30       0.000000   0.000000   0.000000   0.000000   0.000000   0.000000
     31       0.000000   0.000000   0.000000   0.000000   0.000000   0.000000
     32       0.000000   0.000000   0.000000   0.000000   0.000000   0.000000
     33       0.000000   0.000000   0.000000   0.000000   0.000000   0.000000
     34       0.000000   0.000000   0.000000   0.000000   0.000000   0.000000
     35       0.000000   0.000000   0.000000   0.000000   0.000000   0.000000
     36       0.000000   0.000000   0.000000   0.000000   0.000000   0.000000
     37       0.000000   0.000000   0.000000   0.000000   0.000000   0.000000
     38       0.000000   0.000000   0.000000   0.000000   0.000000   0.000000
     39       0.000000   0.000000   0.000000   0.000000   0.000000   0.000000
     40       0.000000   0.000000   0.000000   0.000000   0.000000   0.000000
     41       0.000000   0.000000   0.000000   0.000000   0.000000   0.000000
     42       0.000000   0.000000   0.000000   0.000000   0.000000   0.000000
     43       0.000000   0.000000   0.000000   0.000000   0.000000   0.000000
     44       0.000000   0.000000   0.000000   0.000000   0.000000   0.000000
     45       0.000000   0.000000   0.000000   0.000000   0.000000   0.000000
     46       0.000000   0.000000   0.000000   0.000000   0.000000   0.000000
     47       0.000000   0.000000   0.000000   0.000000   0.000000   0.000000
     48       0.000000   0.000000   0.000000   0.000000   0.000000   0.000000
     49       0.000000   0.000000   0.000000   0.000000   0.000000   0.000000
     50       0.000000   0.000000   0.000000   0.000000   0.000000   0.000000
     51       0.000000   0.000000   0.000000   0.000000   0.000000   0.000000
     52       0.000000   0.000000   0.000000   0.000000   0.000000   0.000000
     53       0.000000   0.000000   0.000000   0.000000   0.000000   0.000000
     54       0.000000   0.000000   0.000000   0.000000   0.000000   0.000000
     55       0.000000   0.000000   0.000000   0.000000   0.000000   0.000000
     56       0.000000   0.000000   0.000000   0.000000   0.000000   0.000000
     57       0.000000   0.000000   0.000000   0.000000   0.000000   0.000000
     58       0.000000   0.000000   0.000000   0.000000   0.000000   0.000000
     59       0.000000   0.000000   0.000000   0.000000   0.000000   0.000000
     60       0.000000   0.000000   0.000000   0.000000   0.000000   0.000000
     61       0.000000   0.000000   0.000000   0.000000   0.000000   0.000000
     62       0.000000   0.000000   0.000000   0.000000   0.000000   0.000000
     63       0.000000   0.000000   0.000000   0.000000   0.000000   0.000000
     64       0.000000   0.000000   0.000000   0.000000   0.000000   0.000000
     65       0.000000   0.000000   0.000000   0.000000   0.000000   0.000000
     66       0.000000   0.000000   0.000000   0.000000   0.000000   0.000000
     67       0.000000   0.000000   0.000000   0.000000   0.000000   0.000000
     68       0.000000   0.000000   0.000000   0.000000   0.000000   0.000000
     69       0.000000   0.000000   0.000000   0.000000   0.000000   0.000000
     70       0.000000   0.000000   0.000000   0.000000   0.000000   0.000000
     71       0.000000   0.000000   0.000000   0.000000   0.000000   0.000000
     72       0.000000   0.000000   0.000000   0.000000   0.000000   0.000000
     73       0.000000   0.000000   0.000000   0.000000   0.000000   0.000000
     74       0.000000   0.000000   0.000000   0.000000   0.000000   0.000000
     75       0.000000   0.000000   0.000000   0.000000   0.000000   0.000000
     76       0.000000   0.000000   0.000000   0.000000   0.000000   0.000000
     77       0.000000   0.000000   0.000000   0.000000   0.000000   0.000000
     78       0.000000   0.000000   0.000000   0.000000   0.000000   0.000000
     79       0.000000   0.000000   0.000000   0.000000   0.000000   0.000000
     80       0.000000   0.000000   0.000000   0.000000   0.000000   0.000000
     81       0.000000   0.000000   0.000000   0.000000   0.000000   0.000000
     82       0.000000   0.000000   0.000000   0.000000   0.000000   0.000000
     83       0.000000   0.000000   0.000000   0.000000   0.000000   0.000000
     84       0.000000   0.000000   0.000000   0.000000   0.000000   0.000000
     85       0.000000   0.000000   0.000000   0.000000   0.000000   0.000000
     86       0.000000   0.000000   0.000000   0.000000   0.000000   0.000000
     87       0.000000   0.000000   0.000000   0.000000   0.000000   0.000000
     88       0.000000   0.000000   0.000000   0.000000   0.000000   0.000000
     89       0.000000   0.000000   0.000000   0.000000   0.000000   0.000000
     90       0.000000   0.000000   0.000000   0.000000   0.000000   0.000000
     91       0.000000   0.000000   0.000000   0.000000   0.000000   0.000000
     92       0.000000   0.000000   0.000000   0.000000   0.000000   0.000000
     93       0.000000   0.000000   0.000000   0.000000   0.000000   0.000000
     94       0.000000   0.000000   0.000000   0.000000   0.000000   0.000000
     95       0.000000   0.000000   0.000000   0.000000   0.000000   0.000000
     96       0.000000   0.000000   0.000000   0.000000   0.000000   0.000000
     97       0.000000   0.000000   0.000000   0.000000   0.000000   0.000000
     98       0.000000   0.000000   0.000000   0.000000   0.000000   0.000000
                  6          7          8          9         10         11    
      0       0.150240  -0.057593   0.077327   0.072228  -0.019569   0.055672
      1      -0.017888  -0.062189   0.161160   0.026920  -0.032748   0.077390
      2      -0.068214  -0.023265   0.040795   0.045499  -0.043174   0.012986
      3       0.075114  -0.028617   0.081813   0.081891  -0.004716  -0.026134
      4       0.004637  -0.047680   0.156885   0.084286  -0.035511  -0.066879
      5      -0.099029  -0.005395   0.042548   0.065967  -0.036753  -0.065467
      6       0.012619   0.019136   0.000357   0.015390   0.042461  -0.059980
      7       0.010289   0.003575   0.022525   0.012202   0.019421  -0.125998
      8      -0.049559   0.014938  -0.040799   0.036687  -0.012021  -0.101944
      9       0.029098   0.035191  -0.084911  -0.059492   0.072896  -0.026408
     10      -0.006203   0.038259  -0.106966  -0.117655   0.075500  -0.068222
     11       0.030610   0.016050  -0.124387  -0.012808   0.003335  -0.083829
     12       0.104563   0.005777  -0.088405  -0.069582   0.059560   0.057603
     13      -0.028978   0.022949  -0.100959  -0.174668   0.079465   0.077728
     14       0.061115  -0.002652  -0.124280  -0.032728  -0.002512  -0.004165
     15       0.165591  -0.040229  -0.008955  -0.004980   0.014253   0.109135
     16      -0.034752  -0.026981   0.031824  -0.103990   0.026783   0.166253
     17       0.011759  -0.021875  -0.042839  -0.004823  -0.025118   0.051874
     18       0.062932  -0.042878   0.149028   0.140836  -0.028794  -0.055914
     19       0.018009  -0.076559   0.256413   0.183624  -0.077783  -0.114506
     20      -0.161355  -0.006163   0.107325   0.103132  -0.049156  -0.087929
     21      -0.016166   0.069837  -0.147079  -0.108023   0.106609  -0.050090
     22      -0.003340   0.076428  -0.205016  -0.175148   0.116186  -0.118855
     23       0.066285   0.031131  -0.181848  -0.038938   0.022126  -0.119916
     24       0.223686  -0.062762  -0.012214  -0.013923   0.004525   0.185905
     25      -0.052468  -0.038576   0.035453  -0.149580   0.031540   0.298081
     26       0.035784  -0.036173  -0.043484  -0.021568  -0.028618   0.125474
     27      -0.075142   0.007001   0.029735  -0.008758  -0.008901  -0.062133
     28       0.052520   0.030286   0.014414   0.075610   0.075525  -0.114213
     29      -0.098403   0.014981  -0.007955   0.082832   0.019976   0.063273
     30      -0.070227  -0.010182  -0.082532   0.052198  -0.154690   0.074973
     31       0.067220  -0.007137  -0.046802   0.113369  -0.046355  -0.092804
     32      -0.082012  -0.009535   0.208680  -0.142846  -0.003000   0.051712
     33      -0.026406  -0.002849   0.031727   0.008382   0.028404  -0.030855
     34       0.001649   0.025072   0.008811   0.099089   0.115138   0.018365
     35      -0.052972   0.000957  -0.007923   0.108109   0.073196   0.138809
     36      -0.043480  -0.090758   0.022158   0.055508   0.089260  -0.105552
     37       0.007004   0.047884   0.011218   0.086006   0.097418   0.034392
     38      -0.124602  -0.122216  -0.030877   0.191617   0.203481   0.209131
     39       0.034840   0.020343   0.036521   0.003598   0.040227   0.039442
     40      -0.082550  -0.120721  -0.015617   0.191074   0.250471   0.046674
     41      -0.057744   0.024204  -0.004172   0.088934   0.038280   0.104940
     42      -0.122637   0.007287   0.037937  -0.033762  -0.053043  -0.117186
     43       0.098944   0.056573  -0.011479   0.073038   0.095197  -0.190089
     44      -0.084796   0.012759  -0.008637   0.091700   0.034764   0.087773
     45      -0.106072  -0.020961  -0.161321   0.144999  -0.258295   0.218116
     46       0.051544  -0.018846   0.041634   0.000238  -0.117395   0.035861
     47      -0.073172  -0.013452   0.328956  -0.290015  -0.001174   0.071324
     48      -0.117412   0.027346   0.005929   0.058603   0.005865   0.030111
     49       0.061711  -0.035980   0.017983   0.071327  -0.091534  -0.019764
     50      -0.010439   0.000398  -0.009641   0.004616  -0.031729  -0.091118
     51      -0.068695   0.039652   0.019188   0.020528   0.067081  -0.041416
     52       0.047307   0.009964   0.021907   0.062897   0.031181  -0.105823
     53      -0.080496   0.028500  -0.031352   0.053463   0.005841  -0.082949
     54      -0.071717   0.064319   0.016528   0.044748   0.121901  -0.027139
     55       0.064556   0.023387   0.017726   0.083171   0.064758  -0.086414
     56      -0.138399   0.047417  -0.026075   0.051268   0.047802  -0.106792
     57      -0.131481   0.054681   0.045374   0.032559   0.105423   0.006861
     58       0.056260  -0.022252   0.040989   0.053878  -0.040954  -0.029588
     59      -0.032136   0.011945  -0.046953   0.043401  -0.030316  -0.111723
     60      -0.037096   0.057498   0.032150  -0.027543  -0.029478   0.008962
     61       0.035687   0.153812   0.019056   0.020161   0.000937   0.090462
     62       0.095453   0.099759   0.021220   0.040554   0.008203   0.152161
     63      -0.042648   0.093867   0.014992  -0.088840  -0.097628   0.046241
     64       0.036692   0.145017   0.022535   0.034076   0.016638   0.081674
     65       0.226936   0.413667   0.127477   0.021187  -0.135880   0.230610
     66      -0.072176   0.147939   0.069830   0.029089  -0.041937   0.045982
     67       0.163647   0.437728   0.104891  -0.028431  -0.152519   0.168162
     68       0.076794  -0.003279  -0.013549   0.031408   0.050247   0.118501
     69      -0.081717  -0.014143  -0.111624   0.084107  -0.193306   0.124474
     70       0.071298  -0.014897  -0.051704   0.079256  -0.140541   0.010695
     71      -0.050671  -0.008480   0.273645  -0.248647   0.001346   0.023151
     72       0.001807  -0.056199   0.003468  -0.058598   0.018189  -0.065596
     73      -0.107360  -0.088590  -0.097410  -0.023448   0.045365   0.070650
     74       0.100647  -0.085672  -0.039700  -0.003518   0.072251   0.068816
     75       0.029063  -0.063237   0.023172   0.024812   0.149146  -0.011679
     76      -0.114057  -0.088779  -0.102380  -0.041606   0.017572   0.058675
     77      -0.010118  -0.368716  -0.146903   0.025695   0.255050   0.084805
     78       0.026204  -0.164128  -0.033517  -0.129072   0.002782  -0.169791
     79      -0.208280  -0.332141  -0.183898   0.044051   0.258569   0.125273
     80       0.116234   0.014342  -0.004637   0.006114   0.025479   0.093819
     81       0.196210  -0.093311   0.140267   0.123123  -0.055943   0.084764
     82      -0.021969  -0.100966   0.263765   0.082166  -0.074423   0.133970
     83      -0.106004  -0.038660   0.104436   0.067378  -0.061149   0.052074
     84       0.115970   0.018623  -0.153346  -0.128264   0.084714   0.091533
     85      -0.042687   0.049720  -0.198989  -0.275290   0.124112   0.133039
     86       0.123642  -0.002299  -0.188200  -0.070222   0.011098   0.021981
     87      -0.028394  -0.022143  -0.002878  -0.107939  -0.086259  -0.084515
     88      -0.111067  -0.015979  -0.095972  -0.134926  -0.161313  -0.009424
     89       0.227652  -0.033454  -0.005172  -0.098884  -0.042047  -0.082776
     90      -0.063125   0.044426   0.019025  -0.045088  -0.062002   0.008638
     91      -0.033270   0.166174  -0.031056  -0.209100  -0.360726  -0.085242
     92       0.222385  -0.107633  -0.030822  -0.106316  -0.001470  -0.102529
     93       0.006819  -0.080056  -0.013918  -0.125198  -0.053597  -0.135027
     94      -0.194340  -0.137836  -0.160908  -0.159137  -0.143576  -0.006434
     95       0.240468  -0.126858  -0.034622  -0.123308  -0.003592  -0.133698
     96      -0.051411  -0.006128  -0.018580  -0.189715  -0.220680  -0.140855
     97      -0.108055  -0.022096  -0.094273  -0.119053  -0.133705   0.001756
     98       0.313143   0.172193   0.075428  -0.136738  -0.204627  -0.125485
                 12         13         14         15         16         17    
      0      -0.022340  -0.004567   0.014446  -0.019206  -0.048403  -0.016326
      1      -0.007599  -0.008174   0.002910  -0.011658   0.008509  -0.009002
      2       0.024538   0.020981  -0.039218   0.042005   0.048399   0.012003
      3       0.011600   0.033492  -0.005748  -0.055568   0.076411  -0.072013
      4       0.013079  -0.035662   0.054989  -0.094678  -0.080290  -0.001430
      5       0.045948   0.031462  -0.033481  -0.000467   0.078178  -0.014431
      6       0.024766   0.064949  -0.031832  -0.031665   0.148479  -0.075724
      7       0.010445  -0.039521   0.067526  -0.085721  -0.104512   0.014896
      8       0.033796   0.005720  -0.000988  -0.012969   0.008365   0.000590
      9       0.011387   0.065653  -0.033134  -0.038661   0.149659  -0.088254
     10      -0.001373  -0.014129   0.043831  -0.093845  -0.038116  -0.026887
     11       0.010157  -0.035691   0.032813  -0.021652  -0.104747   0.049452
     12      -0.023405   0.028857  -0.013354  -0.002948   0.033721  -0.037178
     13      -0.023261   0.012781  -0.007552  -0.008004   0.052490  -0.032159
     14      -0.012910  -0.048164   0.030032   0.020437  -0.150630   0.081128
     15      -0.044081  -0.005457   0.006442   0.027459  -0.059774   0.004091
     16      -0.033089   0.015653  -0.032520   0.066188   0.063514  -0.008392
     17      -0.008477  -0.020471  -0.009966   0.075639  -0.074738   0.077202
     18       0.023438   0.035241  -0.002401  -0.076646   0.080883  -0.082176
     19       0.023721  -0.050812   0.078063  -0.137263  -0.124450  -0.006320
     20       0.068982   0.062699  -0.060035  -0.004866   0.167264  -0.042981
     21       0.023227   0.099076  -0.050420  -0.058521   0.230453  -0.135458
     22       0.002676  -0.010565   0.055709  -0.131524  -0.051153  -0.036510
     23       0.005599  -0.056510   0.058665  -0.047337  -0.174152   0.071706
     24      -0.074856  -0.033062   0.016418   0.078588  -0.140075   0.051130
     25      -0.057856   0.037288  -0.077397   0.166859   0.113208   0.004380
     26      -0.030448  -0.028327  -0.017133   0.128062  -0.100876   0.103598
     27      -0.014130  -0.052853   0.021900   0.094939   0.009172  -0.006411
     28      -0.002768   0.039930   0.029601  -0.067195  -0.055323  -0.020096
     29      -0.094668  -0.010339   0.019398   0.114734  -0.005705  -0.056849
     30       0.039682   0.051250   0.274330  -0.100301   0.021447  -0.015659
     31      -0.033684  -0.067539  -0.286362   0.218817   0.093101  -0.077430
     32      -0.025752   0.018225   0.131883   0.077595   0.012265  -0.056094
     33      -0.037764  -0.093928  -0.059210  -0.067467   0.028972   0.075532
     34      -0.045696   0.108519   0.076392  -0.020184   0.102005   0.147629
     35      -0.135635  -0.039759  -0.066224  -0.080261   0.054042   0.046714
     36      -0.149435  -0.039898  -0.085299  -0.156738   0.024013   0.066952
     37      -0.015659   0.091925   0.082911   0.003546   0.098966   0.143025
     38      -0.325149   0.069899  -0.090894  -0.204576   0.251140   0.323534
     39      -0.012389  -0.137248  -0.109708  -0.191534   0.064696   0.136940
     40      -0.262290   0.227675   0.048603  -0.143811   0.274549   0.388247
     41      -0.096636  -0.049290  -0.039628  -0.003704   0.001771  -0.030301
     42      -0.001277  -0.032638   0.112998   0.306929  -0.020087  -0.097791
     43       0.089061   0.086533  -0.059400  -0.251447  -0.087159   0.012217
     44      -0.106172  -0.020386  -0.006918   0.052641   0.006674  -0.027312
     45       0.059741   0.197809   0.279154  -0.105105  -0.092288   0.025385
     46       0.094628   0.223545  -0.410512  -0.043038  -0.153645   0.110409
     47       0.067922   0.171700   0.006060  -0.125187  -0.128037   0.076177
     48      -0.019495   0.089976  -0.032735   0.125886  -0.120917  -0.063807
     49      -0.083028  -0.173432   0.106999   0.176146   0.121346  -0.108047
     50      -0.007029  -0.102020   0.040196   0.086124   0.268696  -0.080044
     51       0.005229   0.084624  -0.042428   0.028603   0.007820  -0.041784
     52      -0.025900  -0.038964   0.060216  -0.018425  -0.048638  -0.021299
     53       0.011528   0.020780  -0.010396   0.028405  -0.038802  -0.021822
     54       0.011948   0.167146  -0.066802  -0.018310  -0.046495  -0.049972
     55      -0.027069   0.010059   0.041403  -0.046807  -0.021279  -0.044996
     56       0.031035   0.086269  -0.018147  -0.017594  -0.250167   0.028822
     57      -0.036042   0.125294  -0.043377   0.098203  -0.270113  -0.047073
     58      -0.090706  -0.153630   0.092218   0.164541   0.048395  -0.100019
     59       0.032979  -0.024544   0.004204  -0.003002   0.180413  -0.028224
     60       0.036632  -0.157484  -0.056318   0.012783   0.016994   0.080771
     61       0.126836  -0.005172   0.095711   0.095327   0.053541   0.084148
     62       0.023782  -0.123783  -0.072815  -0.128936  -0.032831  -0.089929
     63       0.142479  -0.238323  -0.067668   0.064611  -0.035179   0.008295
     64       0.102232   0.013641   0.097427   0.081378   0.064291   0.098651
     65       0.110345  -0.219611  -0.055128  -0.079241  -0.060631  -0.156998
     66      -0.055534  -0.157930  -0.073315  -0.004712   0.052869   0.123100
     67       0.258738  -0.124094   0.107760   0.148644  -0.002404  -0.018015
     68       0.025049  -0.093191  -0.068339  -0.132702  -0.032129  -0.080328
     69       0.048261   0.102031   0.263519  -0.097834  -0.013149  -0.001964
     70       0.071961   0.136231  -0.361884   0.039501  -0.020296   0.025419
     71       0.046627   0.074759   0.037866  -0.058937  -0.001775   0.002721
     72       0.082922  -0.095152  -0.008102   0.071519   0.024005   0.129848
     73       0.130778  -0.035419   0.038041   0.050281   0.009285   0.016761
     74       0.074358  -0.053862  -0.028173  -0.075518  -0.037225  -0.074747
     75       0.238719  -0.114387   0.051668   0.148057   0.050990   0.193661
     76       0.096860  -0.031639   0.024258   0.032542   0.002807   0.001792
     77       0.237912  -0.106257  -0.035804  -0.065546  -0.072155  -0.110742
     78       0.054493   0.006533   0.041507   0.143007   0.033421   0.155884
     79       0.335937  -0.117531   0.032271   0.057478  -0.020683  -0.008108
     80       0.034059  -0.070668  -0.044576  -0.102908  -0.033077  -0.078001
     81      -0.033982  -0.032716   0.033243  -0.013525  -0.133414   0.019872
     82      -0.009889  -0.003980  -0.011970   0.007851   0.024063  -0.012338
     83       0.030535   0.045764  -0.068866   0.059040   0.127368  -0.017792
     84      -0.036738   0.029553  -0.017094   0.009500   0.030729  -0.035159
     85      -0.036639   0.031905  -0.031530   0.019764   0.102677  -0.043114
     86      -0.037274  -0.077912   0.056850   0.018257  -0.246070   0.107428
     87      -0.043396  -0.120723  -0.087603  -0.033002  -0.007247   0.074127
     88      -0.112308   0.002115  -0.041869  -0.062479  -0.020026  -0.056466
     89      -0.043051   0.163325   0.102613   0.095987   0.028808   0.020481
     90      -0.029375  -0.228813  -0.157570  -0.155525   0.005551   0.190279
     91      -0.354437   0.108694  -0.040967  -0.103476   0.051511   0.150668
     92       0.012640   0.181546   0.131710   0.157909   0.005213  -0.081033
     93       0.006547  -0.038785  -0.004207   0.098904   0.001214   0.030983
     94      -0.088260  -0.077745  -0.122762  -0.133767  -0.123787  -0.337786
     95       0.014926   0.225164   0.165731   0.211507   0.008590  -0.102158
     96      -0.203247  -0.116456  -0.165137  -0.130964  -0.055700  -0.049344
     97      -0.079308  -0.000145  -0.027623  -0.043802  -0.012535  -0.037914
     98      -0.244953   0.256417   0.118628   0.064417   0.127772   0.314870
                 18         19         20         21         22         23    
      0      -0.004426   0.049155   0.005179   0.086653  -0.097907   0.025666
      1      -0.000734   0.041162   0.006274   0.002225  -0.153549   0.017590
      2       0.003200  -0.015715  -0.005520  -0.173997  -0.093114  -0.001554
      3      -0.013355   0.083173  -0.004663  -0.012267   0.099907   0.016069
      4      -0.005520   0.157719   0.010370   0.022647   0.154276  -0.003318
      5      -0.003025   0.038696  -0.008000  -0.183340   0.087456  -0.007951
      6      -0.009524  -0.016346  -0.011979  -0.068498  -0.001303  -0.015211
      7       0.000165   0.046025   0.005294   0.119802   0.001449  -0.024420
      8      -0.000371  -0.001970  -0.007026   0.007100   0.000390  -0.002953
      9      -0.014567   0.062600  -0.008346  -0.124048  -0.100038   0.014412
     10      -0.009817   0.159901   0.008937   0.059757  -0.151399   0.029932
     11       0.003655   0.071589   0.003848  -0.104330  -0.091606  -0.002004
     12      -0.006174   0.026358  -0.003906  -0.032081   0.100701   0.003553
     13      -0.004480   0.039478  -0.002976   0.005528   0.155289   0.012463
     14       0.010291   0.023169   0.003836  -0.086477   0.088618  -0.016730
     15       0.002628  -0.057958  -0.000319   0.145521   0.001426   0.000930
     16       0.006240  -0.134018  -0.007235   0.088123  -0.000411  -0.010464
     17       0.015312  -0.097439  -0.003362  -0.119111  -0.003514  -0.038193
     18      -0.016871   0.131895  -0.003005  -0.051776   0.220502   0.018493
     19      -0.010515   0.249032   0.016699   0.042437   0.339418   0.008523
     20      -0.006952   0.054257  -0.012399  -0.338599   0.193953  -0.017413
     21      -0.022845   0.098346  -0.013347  -0.151888  -0.221458   0.038450
     22      -0.014476   0.233374   0.024284   0.021485  -0.340743   0.048039
     23       0.004469   0.123659   0.023601  -0.118810  -0.202973   0.000652
     24       0.013239  -0.160306   0.001553   0.241396  -0.001391  -0.013544
     25       0.016317  -0.328895  -0.015710   0.131885  -0.004410  -0.031008
     26       0.023221  -0.200539  -0.004810  -0.057717  -0.006027  -0.050498
     27      -0.005763   0.041208  -0.004327   0.074115  -0.002402  -0.052700
     28       0.006246  -0.212007  -0.007209  -0.003110   0.002601   0.006807
     29      -0.011606   0.086782  -0.007304   0.170875   0.004697   0.091839
     30       0.001703  -0.091069   0.015642  -0.062439  -0.046629  -0.179667
     31      -0.022405   0.052020   0.051604  -0.001061  -0.010230  -0.073398
     32      -0.015296   0.052932   0.028334   0.054307   0.084816   0.310153
     33       0.021221  -0.025734   0.002255  -0.013017  -0.005381  -0.147893
     34       0.041456  -0.019888   0.005610  -0.073573   0.001380   0.082087
     35       0.020977   0.071885   0.005071   0.056830  -0.001671  -0.034649
     36       0.018109  -0.104834  -0.000190  -0.025371  -0.007159  -0.187249
     37       0.040709  -0.002464   0.005711  -0.066496   0.001679   0.089164
     38       0.079813   0.183779   0.023574  -0.084547  -0.006433  -0.057091
     39       0.041813  -0.032628   0.011612  -0.123009  -0.008959  -0.228809
     40       0.091369   0.058185   0.018140  -0.179746  -0.003244   0.050600
     41       0.001844   0.057399  -0.001583   0.121829   0.000873   0.005919
     42      -0.038610   0.122150  -0.019781   0.187561   0.007786   0.102919
     43       0.022447  -0.429212   0.008727  -0.143253  -0.007991  -0.152294
     44      -0.001250   0.073010  -0.003466   0.140773   0.002104   0.049524
     45       0.005935   0.019418  -0.060171   0.070057   0.086764   0.354301
     46       0.020044   0.113469  -0.767712   0.059943  -0.050415  -0.089474
     47       0.016695   0.050582  -0.593251   0.042687  -0.015378   0.025041
     48      -0.021723   0.033903  -0.123832  -0.098902   0.032432   0.024633
     49      -0.024060  -0.002019  -0.099859  -0.209549   0.013974   0.002091
     50      -0.009627  -0.059100   0.109978   0.126527  -0.025375  -0.041499
     51      -0.006213  -0.046337   0.003415   0.034330   0.000073  -0.020863
     52       0.000779  -0.120212  -0.012811   0.026893   0.001145  -0.007386
     53      -0.003948  -0.056540  -0.002862   0.143952   0.001133   0.017276
     54      -0.002401  -0.143297   0.005088   0.052580   0.005691   0.006980
     55       0.002722  -0.204723  -0.013192   0.018566   0.004969   0.015195
     56       0.000270  -0.055186   0.008287   0.209008   0.002626   0.015573
     57      -0.019128  -0.002540   0.020730  -0.074823  -0.003696  -0.003944
     58      -0.022941  -0.018712  -0.018332  -0.201601  -0.007276  -0.016732
     59       0.002687  -0.078275  -0.013737   0.241211   0.006428   0.008693
     60       0.023933   0.023937   0.001051   0.042100  -0.002968  -0.110998
     61       0.031274   0.044525   0.001685  -0.009324   0.001908   0.063268
     62      -0.000939  -0.020339  -0.001223  -0.026173  -0.001138  -0.028874
     63       0.003169   0.047621  -0.001974   0.104443  -0.004134  -0.185693
     64       0.035850   0.037372   0.002279  -0.023893   0.002010   0.078150
     65       0.071396   0.004482  -0.005721  -0.026147  -0.000155   0.002838
     66       0.072476   0.067104   0.004184   0.080264  -0.005615  -0.196916
     67       0.080449   0.060792  -0.004208  -0.001669   0.003457   0.076753
     68      -0.030577  -0.039017  -0.001051  -0.040996  -0.000407   0.002104
     69       0.002758  -0.050217   0.008540  -0.018572  -0.004840  -0.015417
     70       0.000941   0.032643   0.060667   0.026399   0.004723   0.006924
     71       0.001055  -0.031717   0.058703  -0.010264  -0.001034  -0.014529
     72       0.002074  -0.007329  -0.000081   0.009054   0.003624   0.080223
     73      -0.048080   0.034434   0.001022   0.039097  -0.003612  -0.102648
     74      -0.050347  -0.047505  -0.002513  -0.047541   0.002463   0.085118
     75      -0.016846   0.014853   0.000135   0.020511   0.004299   0.105577
     76      -0.043735   0.028523   0.000931   0.035343  -0.003672  -0.105116
     77      -0.129208  -0.072167  -0.004164  -0.031282   0.001638   0.068260
     78       0.003107   0.000051   0.000732   0.023379   0.004855   0.113657
     79      -0.128160   0.007656  -0.001045   0.044490  -0.003651  -0.092349
     80      -0.030248  -0.042672  -0.002324  -0.052801   0.001912   0.066834
     81      -0.000044   0.069962   0.014902   0.080397  -0.216667   0.031581
     82      -0.000948   0.048248   0.011251  -0.027064  -0.336838   0.043981
     83      -0.000181  -0.023686  -0.007426  -0.203017  -0.202484   0.021819
     84      -0.006124   0.033848  -0.003396  -0.057370   0.218802   0.006939
     85      -0.005361   0.035429  -0.005728  -0.100828   0.338033   0.011889
     86       0.012072   0.056074   0.009944  -0.001464   0.197299  -0.005346
     87       0.022776  -0.059316  -0.001614  -0.039962   0.007899   0.197818
     88       0.001413  -0.010260   0.000279  -0.005095  -0.001300  -0.041426
     89       0.008359   0.046142   0.001831   0.032361  -0.002570  -0.066571
     90      -0.318794  -0.147290  -0.006893  -0.087856   0.012624   0.333261
     91      -0.350555  -0.039167  -0.001559   0.009230  -0.001648  -0.059219
     92       0.241175   0.090577   0.004507   0.048994  -0.004477  -0.119695
     93       0.228938   0.026224   0.002671   0.020440   0.002483   0.041719
     94       0.420765  -0.037489   0.001271  -0.081089   0.004166   0.117651
     95       0.336773   0.126425   0.006500   0.073493  -0.006611  -0.183101
     96       0.176742  -0.104924  -0.001907  -0.101016   0.012758   0.332191
     97      -0.019349  -0.001470   0.000345   0.005619  -0.002172  -0.064887
     98      -0.500209   0.016424  -0.001023   0.064199  -0.004296  -0.120786
                 24         25         26         27         28         29    
      0      -0.009030  -0.025812   0.022795  -0.077046   0.032035  -0.053081
      1      -0.002385  -0.028296  -0.009013  -0.115800  -0.046315   0.200198
      2       0.007398  -0.026811  -0.002920  -0.051500  -0.012858  -0.266239
      3      -0.008371  -0.043647   0.005239   0.068306   0.019043   0.284611
      4      -0.013283   0.021355  -0.005055   0.016144  -0.001833  -0.097581
      5       0.001592  -0.019905  -0.003080   0.049046   0.009583  -0.158710
      6       0.023858   0.028545  -0.021269   0.163780  -0.021369   0.073832
[...]
     19      -0.002667  -0.000276  -0.000260
     20      -0.001280  -0.000009   0.000048
     21       0.003754  -0.000163   0.002071
     22      -0.006526   0.000318  -0.001892
     23       0.004612  -0.000517   0.001845
     24      -0.000418   0.000365  -0.000043
     25      -0.000467   0.000238  -0.000172
     26       0.001289  -0.000696   0.000357
     27       0.000653  -0.022123  -0.000011
     28       0.000391  -0.007326   0.000120
     29       0.001905  -0.065418   0.000149
     30       0.048267  -0.019955   0.010791
     31      -0.010700   0.008104  -0.024582
     32       0.027077  -0.011113   0.030510
     33      -0.000032  -0.000976   0.000004
     34      -0.000065   0.000482  -0.000072
     35       0.000205  -0.002511   0.000090
     36       0.000990  -0.000522   0.000606
     37       0.001625  -0.002262   0.000944
     38       0.000260  -0.001034  -0.000153
     39      -0.001646   0.005999  -0.000014
     40      -0.000861   0.004823  -0.000286
     41      -0.000277   0.011895  -0.001113
     42      -0.008365   0.325307  -0.001063
     43      -0.003462   0.084526  -0.000336
     44      -0.027920   0.938255  -0.002731
     45      -0.009013   0.001286   0.210385
     46      -0.016191   0.000914   0.591871
     47       0.018399  -0.002049  -0.774248
     48       0.460796   0.014549   0.009679
     49      -0.881091  -0.027588  -0.023075
     50      -0.048299  -0.001830   0.000596
     51      -0.002861  -0.000912  -0.000069
     52       0.001751   0.000587   0.000008
     53      -0.001444  -0.001518   0.000036
     54       0.009279  -0.002312   0.000016
     55      -0.011627   0.008456  -0.000191
     56      -0.003610   0.001208  -0.000131
     57      -0.027923  -0.000840  -0.000605
     58       0.055576   0.001455   0.001335
     59       0.004135   0.000215   0.000028
     60       0.000067  -0.000099   0.000020
     61       0.000196  -0.000094  -0.000001
     62      -0.000156   0.000264  -0.000010
     63      -0.000472   0.000012  -0.000033
     64      -0.001927   0.000278   0.000306
     65       0.000113  -0.000477  -0.000014
     66       0.000446   0.002522  -0.000185
     67       0.000106  -0.000191  -0.000001
     68       0.001376   0.001438  -0.000244
     69      -0.002114   0.001190  -0.013873
     70       0.000921  -0.000626  -0.035712
     71      -0.002920   0.000745   0.046850
     72       0.000039  -0.000056   0.000005
     73       0.000009   0.000036  -0.000018
     74       0.000038  -0.000055   0.000021
     75      -0.000064  -0.000188   0.000065
     76      -0.000088  -0.000418   0.000154
     77       0.000130  -0.000003  -0.000040
     78      -0.000242  -0.000156  -0.000011
     79      -0.000162   0.000316  -0.000021
     80      -0.000471   0.000952  -0.000173
     81       0.001190  -0.000377   0.000132
     82      -0.001744   0.000719  -0.000218
     83       0.001675  -0.000788   0.000201
     84      -0.000798   0.000758   0.000280
     85       0.000243  -0.000315  -0.000182
     86       0.000530  -0.000391  -0.000037
     87       0.000002   0.000015  -0.000000
     88       0.000061  -0.000021  -0.000004
     89      -0.000021  -0.000001   0.000006
     90       0.000070   0.000055  -0.000018
     91       0.000039   0.000005   0.000005
     92       0.000292   0.000036  -0.000016
     93       0.000188  -0.000543   0.000046
     94       0.000009  -0.000037   0.000003
     95      -0.000193   0.000363  -0.000033
     96      -0.000103   0.000029  -0.000009
     97      -0.000636   0.000263   0.000018
     98       0.000012  -0.000045  -0.000002


-----------
IR SPECTRUM  
-----------

 Mode    freq (cm**-1)   T**2         TX         TY         TZ
-------------------------------------------------------------------
   6:        44.90    0.000000  (  0.000000   0.000000   0.000000)
   7:        57.67    0.000000  (  0.000000   0.000000   0.000000)
   8:        63.38    0.000000  (  0.000000   0.000000   0.000000)
   9:        66.05    0.000000  (  0.000000   0.000000   0.000000)
  10:        75.22    0.000000  (  0.000000   0.000000   0.000000)
  11:       113.31    0.000000  (  0.000000   0.000000   0.000000)
  12:       127.05    0.000000  (  0.000000   0.000000   0.000000)
  13:       142.62    0.000000  (  0.000000   0.000000   0.000000)
  14:       166.05    0.000000  (  0.000000   0.000000   0.000000)
  15:       208.70    0.000000  (  0.000000   0.000000   0.000000)
  16:       215.51    0.000000  (  0.000000   0.000000   0.000000)
  17:       244.88    0.000000  (  0.000000   0.000000   0.000000)
  18:       266.83    0.000000  (  0.000000   0.000000   0.000000)
  19:       286.72    0.000000  (  0.000000   0.000000   0.000000)
  20:       309.41    0.000000  (  0.000000   0.000000   0.000000)
  21:       355.87    0.000000  (  0.000000   0.000000   0.000000)
  22:       382.16    0.000000  (  0.000000   0.000000   0.000000)
  23:       398.44    0.000000  (  0.000000   0.000000   0.000000)
  24:       430.58    0.000000  (  0.000000   0.000000   0.000000)
  25:       448.05    0.000000  (  0.000000   0.000000   0.000000)
  26:       498.66    0.000000  (  0.000000   0.000000   0.000000)
  27:       529.03    0.000000  (  0.000000   0.000000   0.000000)
  28:       540.74    0.000000  (  0.000000   0.000000   0.000000)
  29:       589.57    0.000000  (  0.000000   0.000000   0.000000)
  30:       624.75    0.000000  (  0.000000   0.000000   0.000000)
  31:       676.09    0.000000  (  0.000000   0.000000   0.000000)
  32:       695.71    0.000000  (  0.000000   0.000000   0.000000)
  33:       757.79    0.000000  (  0.000000   0.000000   0.000000)
  34:       761.47    0.000000  (  0.000000   0.000000   0.000000)
  35:       792.22    0.000000  (  0.000000   0.000000   0.000000)
  36:       826.31    0.000000  (  0.000000   0.000000   0.000000)
  37:       842.94    0.000000  (  0.000000   0.000000   0.000000)
  38:       881.47    0.000000  (  0.000000   0.000000   0.000000)
  39:       906.79    0.000000  (  0.000000   0.000000   0.000000)
  40:       931.24    0.000000  (  0.000000   0.000000   0.000000)
  41:       934.87    0.000000  (  0.000000   0.000000   0.000000)
  42:       936.28    0.000000  (  0.000000   0.000000   0.000000)
  43:       945.89    0.000000  (  0.000000   0.000000   0.000000)
  44:       968.76    0.000000  (  0.000000   0.000000   0.000000)
  45:       989.75    0.000000  (  0.000000   0.000000   0.000000)
  46:      1029.08    0.000000  (  0.000000   0.000000   0.000000)
  47:      1049.21    0.000000  (  0.000000   0.000000   0.000000)
  48:      1074.21    0.000000  (  0.000000   0.000000   0.000000)
  49:      1092.59    0.000000  (  0.000000   0.000000   0.000000)
  50:      1100.24    0.000000  (  0.000000   0.000000   0.000000)
  51:      1117.39    0.000000  (  0.000000   0.000000   0.000000)
  52:      1127.24    0.000000  (  0.000000   0.000000   0.000000)
  53:      1141.70    0.000000  (  0.000000   0.000000   0.000000)
  54:      1180.29    0.000000  (  0.000000   0.000000   0.000000)
  55:      1188.78    0.000000  (  0.000000   0.000000   0.000000)
  56:      1205.85    0.000000  (  0.000000   0.000000   0.000000)
  57:      1208.34    0.000000  (  0.000000   0.000000   0.000000)
  58:      1220.76    0.000000  (  0.000000   0.000000   0.000000)
  59:      1252.35    0.000000  (  0.000000   0.000000   0.000000)
  60:      1263.55    0.000000  (  0.000000   0.000000   0.000000)
  61:      1278.39    0.000000  (  0.000000   0.000000   0.000000)
  62:      1281.96    0.000000  (  0.000000   0.000000   0.000000)
  63:      1282.72    0.000000  (  0.000000   0.000000   0.000000)
  64:      1298.84    0.000000  (  0.000000   0.000000   0.000000)
  65:      1329.11    0.000000  (  0.000000   0.000000   0.000000)
  66:      1338.26    0.000000  (  0.000000   0.000000   0.000000)
  67:      1365.77    0.000000  (  0.000000   0.000000   0.000000)
  68:      1372.25    0.000000  (  0.000000   0.000000   0.000000)
  69:      1425.42    0.000000  (  0.000000   0.000000   0.000000)
  70:      1428.28    0.000000  (  0.000000   0.000000   0.000000)
  71:      1463.09    0.000000  (  0.000000   0.000000   0.000000)
  72:      1481.53    0.000000  (  0.000000   0.000000   0.000000)
  73:      1499.51    0.000000  (  0.000000   0.000000   0.000000)
  74:      1505.27    0.000000  (  0.000000   0.000000   0.000000)
  75:      1507.01    0.000000  (  0.000000   0.000000   0.000000)
  76:      1511.29    0.000000  (  0.000000   0.000000   0.000000)
  77:      1537.41    0.000000  (  0.000000   0.000000   0.000000)
  78:      1569.41    0.000000  (  0.000000   0.000000   0.000000)
  79:      1576.82    0.000000  (  0.000000   0.000000   0.000000)
  80:      2927.15    0.000000  (  0.000000   0.000000   0.000000)
  81:      2936.95    0.000000  (  0.000000   0.000000   0.000000)
  82:      2946.98    0.000000  (  0.000000   0.000000   0.000000)
  83:      2962.05    0.000000  (  0.000000   0.000000   0.000000)
  84:      2965.74    0.000000  (  0.000000   0.000000   0.000000)
  85:      2970.21    0.000000  (  0.000000   0.000000   0.000000)
  86:      2979.75    0.000000  (  0.000000   0.000000   0.000000)
  87:      2985.57    0.000000  (  0.000000   0.000000   0.000000)
  88:      2996.78    0.000000  (  0.000000   0.000000   0.000000)
  89:      2997.84    0.000000  (  0.000000   0.000000   0.000000)
  90:      3042.53    0.000000  (  0.000000   0.000000   0.000000)
  91:      3054.04    0.000000  (  0.000000   0.000000   0.000000)
  92:      3059.26    0.000000  (  0.000000   0.000000   0.000000)
  93:      3069.44    0.000000  (  0.000000   0.000000   0.000000)
  94:      3074.67    0.000000  (  0.000000   0.000000   0.000000)
  95:      3080.45    0.000000  (  0.000000   0.000000   0.000000)
  96:      3342.55    0.000000  (  0.000000   0.000000   0.000000)
  97:      3396.29    0.000000  (  0.000000   0.000000   0.000000)
  98:      3573.91    0.000000  (  0.000000   0.000000   0.000000)

The first frequency considered to be a vibration is 6
The total number of vibrations considered is 93


--------------------------
THERMOCHEMISTRY AT 298.15K
--------------------------

Temperature         ... 298.15 K
Pressure            ... 1.00 atm
Total Mass          ... 197.28 AMU

Throughout the following assumptions are being made:
  (1) The electronic state is orbitally nondegenerate
  (2) There are no thermally accessible electronically excited states
  (3) Hindered rotations indicated by low frequency modes are not
      treated as such but are treated as vibrations and this may
      cause some error
  (4) All equations used are the standard statistical mechanics
      equations for an ideal gas
  (5) All vibrations are strictly harmonic

freq.      44.90  E(vib)   ...       0.53 
freq.      57.67  E(vib)   ...       0.51 
freq.      63.38  E(vib)   ...       0.51 
freq.      66.05  E(vib)   ...       0.50 
freq.      75.22  E(vib)   ...       0.49 
freq.     113.31  E(vib)   ...       0.45 
freq.     127.05  E(vib)   ...       0.43 
freq.     142.62  E(vib)   ...       0.41 
freq.     166.05  E(vib)   ...       0.39 
freq.     208.70  E(vib)   ...       0.34 
freq.     215.51  E(vib)   ...       0.34 
freq.     244.88  E(vib)   ...       0.31 
freq.     266.83  E(vib)   ...       0.29 
freq.     286.72  E(vib)   ...       0.27 
freq.     309.41  E(vib)   ...       0.26 
freq.     355.87  E(vib)   ...       0.22 
freq.     382.16  E(vib)   ...       0.21 
freq.     398.44  E(vib)   ...       0.20 
freq.     430.58  E(vib)   ...       0.18 
freq.     448.05  E(vib)   ...       0.17 
freq.     498.66  E(vib)   ...       0.14 
freq.     529.03  E(vib)   ...       0.13 
freq.     540.74  E(vib)   ...       0.12 
freq.     589.57  E(vib)   ...       0.10 
freq.     624.75  E(vib)   ...       0.09 
freq.     676.09  E(vib)   ...       0.08 
freq.     695.71  E(vib)   ...       0.07 
freq.     757.79  E(vib)   ...       0.06 
freq.     761.47  E(vib)   ...       0.06 
freq.     792.22  E(vib)   ...       0.05 
freq.     826.31  E(vib)   ...       0.04 
freq.     842.94  E(vib)   ...       0.04 
freq.     881.47  E(vib)   ...       0.04 
freq.     906.79  E(vib)   ...       0.03 
freq.     931.24  E(vib)   ...       0.03 
freq.     934.87  E(vib)   ...       0.03 
freq.     936.28  E(vib)   ...       0.03 
freq.     945.89  E(vib)   ...       0.03 
freq.     968.76  E(vib)   ...       0.03 
freq.     989.75  E(vib)   ...       0.02 
freq.    1029.08  E(vib)   ...       0.02 
freq.    1049.21  E(vib)   ...       0.02 
freq.    1074.21  E(vib)   ...       0.02 
freq.    1092.59  E(vib)   ...       0.02 
freq.    1100.24  E(vib)   ...       0.02 
freq.    1117.39  E(vib)   ...       0.01 
freq.    1127.24  E(vib)   ...       0.01 
freq.    1141.70  E(vib)   ...       0.01 
freq.    1180.29  E(vib)   ...       0.01 
freq.    1188.78  E(vib)   ...       0.01 
freq.    1205.85  E(vib)   ...       0.01 
freq.    1208.34  E(vib)   ...       0.01 
freq.    1220.76  E(vib)   ...       0.01 
freq.    1252.35  E(vib)   ...       0.01 
freq.    1263.55  E(vib)   ...       0.01 
freq.    1278.39  E(vib)   ...       0.01 
freq.    1281.96  E(vib)   ...       0.01 
freq.    1282.72  E(vib)   ...       0.01 
freq.    1298.84  E(vib)   ...       0.01 
freq.    1329.11  E(vib)   ...       0.01 
freq.    1338.26  E(vib)   ...       0.01 
freq.    1365.77  E(vib)   ...       0.01 
freq.    1372.25  E(vib)   ...       0.01 
freq.    1425.42  E(vib)   ...       0.00 
freq.    1428.28  E(vib)   ...       0.00 
freq.    1463.09  E(vib)   ...       0.00 
freq.    1481.53  E(vib)   ...       0.00 
freq.    1499.51  E(vib)   ...       0.00 
freq.    1505.27  E(vib)   ...       0.00 
freq.    1507.01  E(vib)   ...       0.00 
freq.    1511.29  E(vib)   ...       0.00 
freq.    1537.41  E(vib)   ...       0.00 
freq.    1569.41  E(vib)   ...       0.00 
freq.    1576.82  E(vib)   ...       0.00 
freq.    2927.15  E(vib)   ...       0.00 
freq.    2936.95  E(vib)   ...       0.00 
freq.    2946.98  E(vib)   ...       0.00 
freq.    2962.05  E(vib)   ...       0.00 
freq.    2965.74  E(vib)   ...       0.00 
freq.    2970.21  E(vib)   ...       0.00 
freq.    2979.75  E(vib)   ...       0.00 
freq.    2985.57  E(vib)   ...       0.00 
freq.    2996.78  E(vib)   ...       0.00 
freq.    2997.84  E(vib)   ...       0.00 
freq.    3042.53  E(vib)   ...       0.00 
freq.    3054.04  E(vib)   ...       0.00 
freq.    3059.26  E(vib)   ...       0.00 
freq.    3069.44  E(vib)   ...       0.00 
freq.    3074.67  E(vib)   ...       0.00 
freq.    3080.45  E(vib)   ...       0.00 
freq.    3342.55  E(vib)   ...       0.00 
freq.    3396.29  E(vib)   ...       0.00 
freq.    3573.91  E(vib)   ...       0.00 

------------
INNER ENERGY
------------

The inner energy is: U= E(el) + E(ZPE) + E(vib) + E(rot) + E(trans)
    E(el)   - is the total energy from the electronic structure calculation
              = E(kin-el) + E(nuc-el) + E(el-el) + E(nuc-nuc)
    E(ZPE)  - the the zero temperature vibrational energy from the frequency calculation
    E(vib)  - the the finite temperature correction to E(ZPE) due to population
              of excited vibrational states
    E(rot)  - is the rotational thermal energy
    E(trans)- is the translational thermal energy

Summary of contributions to the inner energy U:
Electronic energy                ...    -44.30001336 Eh
Zero point energy                ...      0.27953072 Eh     175.41 kcal/mol
Thermal vibrational correction   ...      0.01355858 Eh       8.51 kcal/mol
Thermal rotational correction    ...      0.00141627 Eh       0.89 kcal/mol
Thermal translational correction ...      0.00141627 Eh       0.89 kcal/mol
-----------------------------------------------------------------------
Total thermal energy                    -44.00409152 Eh


Summary of corrections to the electronic energy:
(perhaps to be used in another calculation)
Total thermal correction                  0.01639112 Eh      10.29 kcal/mol
Non-thermal (ZPE) correction              0.27953072 Eh     175.41 kcal/mol
-----------------------------------------------------------------------
Total correction                          0.29592184 Eh     185.69 kcal/mol


--------
ENTHALPY
--------

The enthalpy is H = U + kB*T
                kB is Boltzmann's constant
Total free energy                 ...    -44.00409152 Eh 
Thermal Enthalpy correction       ...      0.00094421 Eh       0.59 kcal/mol
-----------------------------------------------------------------------
Total Enthalpy                    ...    -44.00314731 Eh


Note: Only C1 symmetry has been detected, increase convergence thresholds 
      if your molecule has a higher symmetry. Symmetry factor of 1.0 is   
      used for the rotational entropy correction. 
 

Note: Rotational entropy computed according to Herzberg 
Infrared and Raman Spectra, Chapter V,1, Van Nostrand Reinhold, 1945 
Point Group:  C1, Symmetry Number:   1  
Rotational constants in cm-1:     0.032071     0.010844     0.008759 

Vibrational entropy computed according to the QRRHO of S. Grimme
Chem.Eur.J. 2012 18 9955


-------
ENTROPY
-------

The entropy contributions are T*S = T*(S(el)+S(vib)+S(rot)+S(trans))
     S(el)   - electronic entropy
     S(vib)  - vibrational entropy
     S(rot)  - rotational entropy
     S(trans)- translational entropy
The entropies will be listed as mutliplied by the temperature to get
units of energy

Electronic entropy                ...      0.00000000 Eh      0.00 kcal/mol
Vibrational entropy               ...      0.02384430 Eh     14.96 kcal/mol
Rotational entropy                ...      0.01550713 Eh      9.73 kcal/mol
Translational entropy             ...      0.01983352 Eh     12.45 kcal/mol
-----------------------------------------------------------------------
Final entropy term                ...      0.05918495 Eh     37.14 kcal/mol

In case the symmetry of your molecule has not been determined correctly
or in case you have a reason to use a different symmetry number we print 
out the resulting rotational entropy values for sn=1,12 :
 --------------------------------------------------------
|  sn= 1 | S(rot)=       0.01550713 Eh      9.73 kcal/mol|
|  sn= 2 | S(rot)=       0.01485268 Eh      9.32 kcal/mol|
|  sn= 3 | S(rot)=       0.01446984 Eh      9.08 kcal/mol|
|  sn= 4 | S(rot)=       0.01419822 Eh      8.91 kcal/mol|
|  sn= 5 | S(rot)=       0.01398753 Eh      8.78 kcal/mol|
|  sn= 6 | S(rot)=       0.01381539 Eh      8.67 kcal/mol|
|  sn= 7 | S(rot)=       0.01366984 Eh      8.58 kcal/mol|
|  sn= 8 | S(rot)=       0.01354376 Eh      8.50 kcal/mol|
|  sn= 9 | S(rot)=       0.01343255 Eh      8.43 kcal/mol|
|  sn=10 | S(rot)=       0.01333308 Eh      8.37 kcal/mol|
|  sn=11 | S(rot)=       0.01324309 Eh      8.31 kcal/mol|
|  sn=12 | S(rot)=       0.01316093 Eh      8.26 kcal/mol|
 --------------------------------------------------------


-------------------
GIBBS FREE ENERGY
-------------------

The Gibbs free energy is G = H - T*S

Total enthalpy                    ...    -44.00314731 Eh 
Total entropy correction          ...     -0.05918495 Eh    -37.14 kcal/mol
-----------------------------------------------------------------------
Final Gibbs free energy         ...    -44.06233227 Eh

For completeness - the Gibbs free energy minus the electronic energy
G-E(el)                           ...      0.23768109 Eh    149.15 kcal/mol


Total Time for Numerical Frequencies  :        91.583 sec
Time for Reference State(s)           :         0.154 sec
Time for Displacements                :        83.946 sec

Timings for individual modules:

Sum of individual times         ...        0.289 sec (=   0.005 min)
XTB module                      ...        0.289 sec (=   0.005 min) 100.0 %
                             ****ORCA TERMINATED NORMALLY****
TOTAL RUN TIME: 0 days 0 hours 1 minutes 32 seconds 238 msec
(SLURM) EXECUTION TIME: 92.696293977 seconds.
