(SLURM) JOB ID:         132

                                 *****************
                                 * O   R   C   A *
                                 *****************

           --- An Ab Initio, DFT and Semiempirical electronic structure package ---

                  #######################################################
                  #                        -***-                        #
                  #          Department of theory and spectroscopy      #
                  #               Directorship: Frank Neese             #
                  #        Max Planck Institute fuer Kohlenforschung    #
                  #                Kaiser Wilhelm Platz 1               #
                  #                 D-45470 Muelheim/Ruhr               #
                  #                      Germany                        #
                  #                                                     #
                  #                  All rights reserved                #
                  #                        -***-                        #
                  #######################################################


                         Program Version 4.2.1 -  RELEASE  -


 With contributions from (in alphabetic order):
   Daniel Aravena         : Magnetic Suceptibility
   Michael Atanasov       : Ab Initio Ligand Field Theory (pilot matlab implementation)
   Alexander A. Auer      : GIAO ZORA, VPT2
   Ute Becker             : Parallelization
   Giovanni Bistoni       : ED, misc. LED, open-shell LED, HFLD
   Martin Brehm           : Molecular dynamics
   Dmytro Bykov           : SCF Hessian
   Vijay G. Chilkuri      : MRCI spin determinant printing, contributions to CSF-ICE
   Dipayan Datta          : RHF DLPNO-CCSD density
   Achintya Kumar Dutta   : EOM-CC, STEOM-CC
   Dmitry Ganyushin       : Spin-Orbit,Spin-Spin,Magnetic field MRCI
   Miquel Garcia          : C-PCM Hessian, Gaussian charge scheme
   Yang Guo               : DLPNO-NEVPT2, CIM, IAO-localization
   Andreas Hansen         : Spin unrestricted coupled pair/coupled cluster methods
   Benjamin Helmich-Paris : CASSCF linear response (MC-RPA)
   Lee Huntington         : MR-EOM, pCC
   Robert Izsak           : Overlap fitted RIJCOSX, COSX-SCS-MP3, EOM
   Christian Kollmar      : KDIIS, OOCD, Brueckner-CCSD(T), CCSD density
   Simone Kossmann        : Meta GGA functionals, TD-DFT gradient, OOMP2, MP2 Hessian
   Martin Krupicka        : AUTO-CI
   Lucas Lang             : DCDCAS
   Dagmar Lenk            : GEPOL surface, SMD
   Dimitrios Liakos       : Extrapolation schemes; Compound Job, initial MDCI parallelization
   Dimitrios Manganas     : Further ROCIS development; embedding schemes
   Dimitrios Pantazis     : SARC Basis sets
   Taras Petrenko         : DFT Hessian,TD-DFT gradient, ASA, ECA, R-Raman, ABS, FL, XAS/XES, NRVS
   Peter Pinski           : DLPNO-MP2, DLPNO-MP2 Gradient
   Christoph Reimann      : Effective Core Potentials
   Marius Retegan         : Local ZFS, SOC
   Christoph Riplinger    : Optimizer, TS searches, QM/MM, DLPNO-CCSD(T), (RO)-DLPNO pert. Triples
   Tobias Risthaus        : Range-separated hybrids, TD-DFT gradient, RPA, STAB
   Michael Roemelt        : Original ROCIS implementation
   Masaaki Saitow         : Open-shell DLPNO-CCSD energy and density
   Barbara Sandhoefer     : DKH picture change effects
   Avijit Sen             : IP-ROCIS
   Kantharuban Sivalingam : CASSCF convergence, NEVPT2, FIC-MRCI
   Bernardo de Souza      : ESD, SOC TD-DFT
   Georgi Stoychev        : AutoAux, RI-MP2 NMR
   Willem Van den Heuvel  : Paramagnetic NMR
   Boris Wezisla          : Elementary symmetry handling
   Frank Wennmohs         : Technical directorship


 We gratefully acknowledge several colleagues who have allowed us to
 interface, adapt or use parts of their codes:
   Stefan Grimme, W. Hujo, H. Kruse,             : VdW corrections, initial TS optimization,
                  C. Bannwarth                     DFT functionals, gCP, sTDA/sTD-DF
   Ed Valeev, F. Pavosevic, A. Kumar             : LibInt (2-el integral package), F12 methods
   Garnet Chan, S. Sharma, J. Yang, R. Olivares  : DMRG
   Ulf Ekstrom                                   : XCFun DFT Library
   Mihaly Kallay                                 : mrcc  (arbitrary order and MRCC methods)
   Andreas Klamt, Michael Diedenhofen            : otool_cosmo (COSMO solvation model)
   Jiri Pittner, Ondrej Demel                    : Mk-CCSD
   Frank Weinhold                                : gennbo (NPA and NBO analysis)
   Christopher J. Cramer and Donald G. Truhlar   : smd solvation model
   Lars Goerigk                                  : TD-DFT with DH, B97 family of functionals
   V. Asgeirsson, H. Jonsson                     : NEB implementation
   FAccTs GmbH                                   : IRC, NEB, NEB-TS, Multilevel, MM, QM/MM, CI optimization
   S Lehtola, MJT Oliveira, MAL Marques          : LibXC Library


 Your calculation uses the libint2 library for the computation of 2-el integrals
 For citations please refer to: http://libint.valeyev.net

 Your ORCA version has been built with support for libXC version: 4.2.3
 For citations please refer to: https://tddft.org/programs/libxc/

 This ORCA versions uses:
   CBLAS   interface :  Fast vector & matrix operations
   LAPACKE interface :  Fast linear algebra routines
   SCALAPACK package :  Parallel linear algebra routines




***************************************
The coordinates will be read from file: init.xyz
***************************************


Your calculation utilizes the SMD solvation module
Please cite in your paper:
A.V. Marenich, C.J. Cramer, D.G. Truhlar J. Phys. Chem. B, 113, (2009), 6378 

Your calculation utilizes the semiempirical GFN2-xTB method
Please cite in your paper:
C. Bannwarth, Ehlert S., S. Grimme,  J. Chem. Theory Comput., 15, (2019), 1652.
   

----- Orbital basis set information -----
Your calculation utilizes the basis: def2-SVP
   F. Weigend and R. Ahlrichs, Phys. Chem. Chem. Phys. 7, 3297 (2005).

================================================================================
                                        WARNINGS
                       Please study these warnings very carefully!
================================================================================

WARNING: Gradients needed for Numerical Frequencies
  ===> : Setting RunTyp to EnGrad

WARNING: The environment variable RSH_COMMAND is not set!
  ===> : All Displacements for the Numerical Hessian calculation
         will be started on localhost

WARNING: Found dipole moment calculation with XTB calculation
  ===> : Switching off dipole moment calculation


INFO   : the flag for use of LIBINT has been found!

================================================================================
                                       INPUT FILE
================================================================================
NAME = /tmp/slurm-scratch/freq.132/freq.inp
|  1> ! XTB2 NumFreq
|  2> %maxcore 1450
|  3> 
|  4> * xyzfile 0 1 init.xyz
|  5> 
|  6> %cpcm
|  7>  smd true
|  8>  smdsolvent "ch2cl2"
|  9> end
| 10> %pal nprocs 8 end
| 11> 
| 12>                          ****END OF INPUT****
================================================================================

                     *******************************
                     * Energy+Gradient Calculation *
                     *******************************

      -----------------------------------------------------------      
     |                   =====================                   |     
     |                           x T B                           |     
     |                   =====================                   |     
     |                         S. Grimme                         |     
     |          Mulliken Center for Theoretical Chemistry        |     
     |                    University of Bonn                     |     
      -----------------------------------------------------------      

   * xtb version 6.3.0 (preview) compiled by 'ehlert@majestix' on 2020-01-15

   This program is distributed in the hope that it will be useful,
   but WITHOUT ANY WARRANTY; without even the implied warranty of
   MERCHANTABILITY or FITNESS FOR A PARTICULAR PURPOSE.
   
   FOR NON-COMMERCIAL, ACADEMIA USE ONLY.
   
   Cite this work as:
   * S. Grimme, C. Bannwarth, P. Shushkov, J. Chem. Theory Comput., 2017,
     13, 1989-2009. DOI: 10.1021/acs.jctc.7b00118
   * C. Bannwarth, S. Ehlert and S. Grimme., J. Chem. Theory Comput., 2019,
     15, 1652-1671. DOI: 10.1021/acs.jctc.8b01176
   * P. Pracht, E. Caldeweyher, S. Ehlert, S. Grimme, ChemRxiv, 2019, preprint.
     DOI: 10.26434/chemrxiv.8326202.v1
   * S. Grimme, S. Spicher unpublished
   
   for DFT-D4:
   * E. Caldeweyher, C. Bannwarth and S. Grimme, J. Chem. Phys., 2017,
     147, 034112. DOI: 10.1063/1.4993215
   * E. Caldeweyher, S. Ehlert, A. Hansen, H. Neugebauer, S. Spicher,
     C. Bannwarth and S. Grimme, J. Chem. Phys., 2019, 150, 154122.
     DOI: 10.1063/1.5090222
   
   for sTDA-xTB:
   * S. Grimme and C. Bannwarth, J. Chem. Phys., 2016, 145, 054103.
     DOI: 10.1063/1.4959605
   
   in the mass-spec context:
   * V. Asgeirsson, C. Bauer and S. Grimme, Chem. Sci., 2017, 8, 4879.
     DOI: 10.1039/c7sc00601b
   
   for metadynamics refer to:
   * S. Grimme, J. Chem. Theory Comput., 2019, 155, 2847-2862
     DOI: 10.1021/acs.jctc.9b00143
   
   with help from (in alphabetical order)
   C. Bannwarth, F. Bohle, G. Brandenburg, E. Caldeweyher, M. Checinski,
   S. Dohm, S. Ehlert, S. Ehrlich, F. März, H. Neugebauer, J. Pisarek,
   P. Pracht, P. Shushkov, and S. Spicher.
   
 * started run on 2020/08/23 at 12:05:15.949     

           -------------------------------------------------
          |                Calculation Setup                |
           -------------------------------------------------

          program call               : /opt/orca/otool_xtb /tmp/slurm-scratch/freq.132/freq_XTB.xyz --grad -c 0 -u 0 -P 8 --namespace /tmp/slurm-scratch/freq.132/freq --gbsa CH2Cl2
          hostname                   : headnode-pbs
          calculation namespace      : /tmp/slurm-scratch/freq.132/freq
          coordinate file            : /tmp/slurm-scratch/freq.132/freq_XTB.xyz
          omp threads                :                     8
          number of atoms            :                    49
          number of electrons        :                   112
          charge                     :                     0
          spin                       :                   0.0
          first test random number   :      0.16730191568875


molecular fragmentation (1/2 indicates fragments):
1111111111222222221222222121122222222222222222222
# atoms in fragment 1/2:    14    35
 fragment masses (1/2) :      106.12      164.29
CMA distance (Bohr)    :   6.999
constraining FC (au)   :  0.0500

########################################################################
# WARNING! Please study the warnings concerning your input carefully
#  - Process number higher than OMP_NUM_THREADS, I hope you know what you are doing.
########################################################################

           ------------------------------------------------- 
          |                 G F N 2 - x T B                 |
          | Geometry, Frequencies, Noncovalent interactions |
          |            JCTC 2019 parametrisation            |
           ------------------------------------------------- 
             k(s)              :                1.8500
             k(p)              :                2.2300
             k(d)              :                2.2300
             k(f)              :                2.0000
             kEN (H0ij)        :               -2.0000
             D4 a1             :                0.5200
             D4 a2             :                5.0000
             D4 s6             :                1.0000
             D4 s8             :                2.7000
             D4 s9             :                5.0000
             alphaj            :                2.0000

  Z AO/shell   Hii/eV     exponent
  1     Wed Apr 25 08:07:45 CEST 2018   EN: 2.200 GM2: 0.406  GM3: 0.0800  RAES: 1.40
     1s    -10.707211    1.230000
  6     Wed Apr 25 08:07:45 CEST 2018   EN: 2.550 GM2: 0.538  GM3: 0.1500  RAES: 3.00
     2s    -13.970922    2.096432
     2p    -10.063292    1.800000
  7     Wed Apr 25 08:07:45 CEST 2018   EN: 3.040 GM2: 0.461  GM3:-0.0640  RAES: 1.90
     2s    -16.686243    2.339881
     2p    -12.523956    2.014332
  8     Wed Apr 25 08:07:45 CEST 2018   EN: 3.440 GM2: 0.452  GM3:-0.0517  RAES: 1.80
     2s    -20.229985    2.439742
     2p    -15.503117    2.137023

 Solvent             : CH2Cl2
 Using internal parameter file: .param_gbsa2_CH2Cl2
 Gsolv ref. state (COSMO-RS): gsolv [1 M gas/solution]
 temperature (mdtemp)       :    298.150000000000     
 dielectric constant        :    8.93000000000000     
 rho                        :    1.33000000000000     
 mass                       :    84.9300000000000     
 surface tension            :    15.5689454083859     
 probe radius               :   0.719875900000000     
 Gshift (Eh)                :   4.440829173451759E-003
 c1                         :    1.49173776000000     
 soset                      :   0.000000000000000E+000
 HB correction              :  F
           ------------------------------------------------- 
          |        Self-Consistent Charge Iterations        |
           ------------------------------------------------- 

          ...................................................
          :                      SETUP                      :
          :.................................................:
          :  # basis functions                 106          :
          :  # atomic orbitals                 106          :
          :  # shells                           68          :
          :  # electrons                       112          :
          :  max. iterations                   250          :
          :  Hamiltonian                  GFN2-xTB          :
          :  GBSA solvation                   true          :
          :  PC potential                    false          :
          :  electronic temp.          300.0000000     K    :
          :  accuracy                    1.0000000          :
          :  -> integral cutoff          0.2500000E+02      :
          :  -> integral neglect         0.1000000E-07      :
          :  -> SCF convergence          0.1000000E-05 Eh   :
          :  -> wf. convergence          0.1000000E-03 e    :
          :  Broyden damping             0.4000000          :
          ...................................................
  Checking positiv definite overlap ...  done.
 

 iter      E             dE          RMSdq      gap      omega  full diag
   1    -62.1013093 -0.621013E+02  0.368E+00    2.42       0.0  T
   2    -62.1926911 -0.913819E-01  0.197E+00    2.15       1.0  T
   3    -62.1939029 -0.121178E-02  0.919E-01    2.22       1.0  T
   4    -62.1987626 -0.485969E-02  0.210E-01    2.00       1.0  T
   5    -62.1998028 -0.104018E-02  0.709E-02    2.03       1.0  T
   6    -62.1998528 -0.499689E-04  0.349E-02    2.04       1.0  T
   7    -62.1998705 -0.177134E-04  0.122E-02    2.04       1.2  T
   8    -62.1998717 -0.125737E-05  0.378E-03    2.04       3.8  T
   9    -62.1998719 -0.145181E-06  0.159E-03    2.04       9.0  T
  10    -62.1998719 -0.241717E-07  0.820E-04    2.04      17.4  T
  11    -62.1998719 -0.644221E-08  0.352E-04    2.04      40.6  T

   *** convergence criteria satisfied after 11 iterations ***

         #    Occupation            Energy/Eh            Energy/eV
      -------------------------------------------------------------
         1        2.0000           -0.7140858             -19.4313
       ...           ...                  ...                  ...
        50        2.0000           -0.4261754             -11.5968
        51        2.0000           -0.4199329             -11.4270
        52        2.0000           -0.4195879             -11.4176
        53        2.0000           -0.4187576             -11.3950
        54        2.0000           -0.4025835             -10.9549
        55        2.0000           -0.3861559             -10.5078
        56        2.0000           -0.3680838             -10.0161 (HOMO)
        57                         -0.2930312              -7.9738 (LUMO)
        58                         -0.2384214              -6.4878
        59                         -0.2048368              -5.5739
        60                         -0.0989600              -2.6928
        61                          0.0065581               0.1785
       ...                                ...                  ...
       106                          0.6464402              17.5905
      -------------------------------------------------------------
                  HL-Gap            0.0750526 Eh            2.0423 eV
             Fermi-level           -0.3305575 Eh           -8.9949 eV

 SCC (total)                   0 d,  0 h,  0 min,  0.118 sec
 SCC setup                      ...        0 min,  0.002 sec (  1.919%)
 Dispersion                     ...        0 min,  0.001 sec (  0.799%)
 integral evaluation            ...        0 min,  0.013 sec ( 11.134%)
 zeroth order Hamiltonian       ...        0 min,  0.000 sec (  0.033%)
 iterations                     ...        0 min,  0.077 sec ( 65.334%)
 molecular gradient             ...        0 min,  0.024 sec ( 20.001%)
 printout                       ...        0 min,  0.001 sec (  0.699%)

         :::::::::::::::::::::::::::::::::::::::::::::::::::::
         ::                     SUMMARY                     ::
         :::::::::::::::::::::::::::::::::::::::::::::::::::::
         :: total energy             -61.364586115557 Eh    ::
         :: total w/o Gsasa/hb       -61.341884169406 Eh    ::
         :: gradient norm              0.027932970350 Eh/a0 ::
         :: HOMO-LUMO gap              2.042284547956 eV    ::
         ::.................................................::
         :: SCC energy               -62.222573852898 Eh    ::
         :: -> isotropic ES            0.095682736966 Eh    ::
         :: -> anisotropic ES          0.004075228772 Eh    ::
         :: -> anisotropic XC          0.037668678128 Eh    ::
         :: -> dispersion             -0.042305546549 Eh    ::
         :: -> Gsolv                  -0.033463884470 Eh    ::
         ::    -> Gborn               -0.010761938319 Eh    ::
         ::    -> Gsasa               -0.027142775324 Eh    ::
         ::    -> Ghb                  0.000000000000 Eh    ::
         ::    -> Gshift               0.004440829173 Eh    ::
         :: repulsion energy           0.856602462917 Eh    ::
         :: add. restraining           0.000000000000 Eh    ::
         :::::::::::::::::::::::::::::::::::::::::::::::::::::

           -------------------------------------------------
          |                Property Printout                |
           -------------------------------------------------

    * Orbital Energies and Occupations

         #    Occupation            Energy/Eh            Energy/eV
      -------------------------------------------------------------
         1        2.0000           -0.7140858             -19.4313
       ...           ...                  ...                  ...
        44        2.0000           -0.4405281             -11.9874
        45        2.0000           -0.4387426             -11.9388
        46        2.0000           -0.4380740             -11.9206
        47        2.0000           -0.4346896             -11.8285
        48        2.0000           -0.4323121             -11.7638
        49        2.0000           -0.4290065             -11.6739
        50        2.0000           -0.4261754             -11.5968
        51        2.0000           -0.4199329             -11.4270
        52        2.0000           -0.4195879             -11.4176
        53        2.0000           -0.4187576             -11.3950
        54        2.0000           -0.4025835             -10.9549
        55        2.0000           -0.3861559             -10.5078
        56        2.0000           -0.3680838             -10.0161 (HOMO)
        57                         -0.2930312              -7.9738 (LUMO)
        58                         -0.2384214              -6.4878
        59                         -0.2048368              -5.5739
        60                         -0.0989600              -2.6928
        61                          0.0065581               0.1785
        62                          0.0277143               0.7541
        63                          0.0685404               1.8651
        64                          0.0834548               2.2709
        65                          0.0911430               2.4801
        66                          0.0977447               2.6598
        67                          0.1089071               2.9635
       ...                                ...                  ...
       106                          0.6464402              17.5905
      -------------------------------------------------------------
                  HL-Gap            0.0750526 Eh            2.0423 eV
             Fermi-level           -0.3305575 Eh           -8.9949 eV

     #   Z        covCN         q      C6AA      α(0)
     1   6 C      2.968    -0.009    28.249     8.718
     2   6 C      2.921    -0.023    28.576     8.766
     3   6 C      2.914    -0.025    28.629     8.774
     4   6 C      2.917    -0.017    28.433     8.744
     5   6 C      2.914    -0.023    28.591     8.768
     6   6 C      2.919    -0.013    28.329     8.728
     7   6 C      2.767     0.211    23.529     7.944
     8   1 H      0.925     0.050     2.325     2.385
     9   1 H      0.926     0.050     2.322     2.383
    10   1 H      0.925     0.054     2.269     2.355
    11   7 N      2.629    -0.380    29.834     8.112
    12   6 C      3.731     0.026    20.223     6.419
    13   1 H      0.860     0.171     1.267     1.763
    14   6 C      3.802    -0.066    21.767     6.642
    15   1 H      0.923     0.006     2.963     2.692
    16   1 H      0.924     0.026     2.648     2.545
    17   1 H      0.924     0.039     2.458     2.452
    18   1 H      0.924     0.037     2.483     2.464
    19   8 O      0.856    -0.402    21.726     6.249
    20   7 N      2.628    -0.371    29.571     8.076
    21   1 H      0.860     0.168     1.283     1.775
    22   1 H      0.860     0.149     1.408     1.859
    23   8 O      1.605    -0.629    25.887     6.867
    24   1 H      0.801     0.308     0.699     1.314
    25   1 H      0.805     0.281     0.782     1.389
    26   1 H      0.923     0.033     2.551     2.498
    27   1 H      0.860     0.140     1.471     1.900
    28   1 H      0.925     0.051     2.304     2.374
    29   1 H      0.925     0.050     2.323     2.383
    30   6 C      3.800    -0.053    21.524     6.606
    31   1 H      0.924     0.030     2.580     2.512
    32   1 H      0.924     0.030     2.586     2.515
    33   6 C      3.731     0.018    20.362     6.441
    34   1 H      0.924     0.016     2.797     2.615
    35   1 H      0.924     0.037     2.489     2.467
    36   6 C      3.803    -0.070    21.832     6.652
    37   1 H      0.924     0.040     2.454     2.450
    38   1 H      0.924     0.038     2.481     2.463
    39   6 C      3.800    -0.055    21.565     6.612
    40   1 H      0.924     0.034     2.529     2.487
    41   1 H      0.924     0.035     2.517     2.481
    42   6 C      3.749    -0.102    22.510     6.767
    43   1 H      0.924     0.037     2.494     2.470
    44   1 H      0.924     0.035     2.523     2.484
    45   1 H      0.924     0.035     2.521     2.483
    46   6 C      3.750    -0.103    22.540     6.771
    47   1 H      0.924     0.040     2.454     2.450
    48   1 H      0.924     0.035     2.515     2.480
    49   1 H      0.924     0.034     2.533     2.489

 Mol. C6AA /au·bohr⁶  :      19235.871882
 Mol. C8AA /au·bohr⁸  :     417017.219710
 Mol. α(0) /au        :        212.030561


Wiberg/Mayer (AO) data.
largest (>0.10) Wiberg bond orders for each atom
          total WBO             WBO to atom ...
     1  C   3.989        C    2 1.370    C    6 1.367    C    7 1.065
     2  C   3.989        C    3 1.458    C    1 1.370    H    8 0.966    C    5 0.105
     3  C   3.991        C    2 1.458    C    4 1.430    H   28 0.969    C    6 0.105
     4  C   3.989        C    3 1.430    C    5 1.426    H   10 0.970
     5  C   3.991        C    6 1.460    C    4 1.426    H   29 0.969    C    2 0.105
     6  C   3.989        C    5 1.460    C    1 1.367    H    9 0.966    C    3 0.105
     7  C   3.909        O   19 1.808    C    1 1.065    H   26 0.934
     8  H   0.998        C    2 0.966
     9  H   0.998        C    6 0.966
    10  H   0.997        C    4 0.970
    11  N   3.021        C   12 1.019    H   27 0.966    H   13 0.940
    12  C   3.986        N   11 1.019    C   14 1.006    H   16 0.974    H   15 0.970
    13  H   0.971        N   11 0.940
    14  C   3.995        C   30 1.007    C   12 1.006    H   18 0.976    H   17 0.975
    15  H   1.000        C   12 0.970
    16  H   0.999        C   12 0.974
    17  H   0.998        C   14 0.975
    18  H   0.999        C   14 0.976
    19  O   2.034        C    7 1.808
    20  N   3.068        C   33 1.010    H   22 0.964    H   21 0.948
    21  H   0.972        N   20 0.948
    22  H   0.977        N   20 0.964
    23  O   1.818        H   25 0.919    H   24 0.833
    24  H   0.905        O   23 0.833
    25  H   0.921        O   23 0.919
    26  H   0.998        C    7 0.934
    27  H   0.980        N   11 0.966
    28  H   0.997        C    3 0.969
    29  H   0.997        C    5 0.969
    30  C   3.998        C   42 1.020    C   14 1.007    H   31 0.978    H   32 0.978
    31  H   0.999        C   30 0.978
    32  H   0.999        C   30 0.978
    33  C   3.981        N   20 1.010    C   36 1.006    H   35 0.977    H   34 0.971
    34  H   1.000        C   33 0.971
    35  H   0.998        C   33 0.977
    36  C   3.995        C   39 1.007    C   33 1.006    H   37 0.974    H   38 0.971
    37  H   0.998        C   36 0.974
    38  H   0.999        C   36 0.971
    39  C   3.997        C   46 1.020    C   36 1.007    H   41 0.978    H   40 0.976
    40  H   0.999        C   39 0.976
    41  H   0.999        C   39 0.978
    42  C   3.996        C   30 1.020    H   44 0.988    H   45 0.988    H   43 0.987
    43  H   0.998        C   42 0.987
    44  H   0.999        C   42 0.988
    45  H   0.999        C   42 0.988
    46  C   3.996        C   39 1.020    H   48 0.988    H   49 0.987    H   47 0.987
    47  H   0.998        C   46 0.987
    48  H   0.999        C   46 0.988
    49  H   0.999        C   46 0.987

molecular dipole:
                 x           y           z       tot (Debye)
 q only:       -2.106       0.216       0.506
   full:       -2.323       0.144       0.604       6.111
molecular quadrupole (traceless):
                xx          xy          yy          xz          yz          zz
 q only:       -5.791      10.268       9.434       3.129      -3.345      -3.643
  q+dip:      -11.498      11.795      13.951       4.832      -0.683      -2.453
   full:      -12.250      11.659      13.030       4.552      -2.429      -0.780

           -------------------------------------------------
          |                Property Printout                |
           -------------------------------------------------

    * Orbital Energies and Occupations

         #    Occupation            Energy/Eh            Energy/eV
      -------------------------------------------------------------
         1        2.0000           -0.7140858             -19.4313
       ...           ...                  ...                  ...
        44        2.0000           -0.4405281             -11.9874
        45        2.0000           -0.4387426             -11.9388
        46        2.0000           -0.4380740             -11.9206
        47        2.0000           -0.4346896             -11.8285
        48        2.0000           -0.4323121             -11.7638
        49        2.0000           -0.4290065             -11.6739
        50        2.0000           -0.4261754             -11.5968
        51        2.0000           -0.4199329             -11.4270
        52        2.0000           -0.4195879             -11.4176
        53        2.0000           -0.4187576             -11.3950
        54        2.0000           -0.4025835             -10.9549
        55        2.0000           -0.3861559             -10.5078
        56        2.0000           -0.3680838             -10.0161 (HOMO)
        57                         -0.2930312              -7.9738 (LUMO)
        58                         -0.2384214              -6.4878
        59                         -0.2048368              -5.5739
        60                         -0.0989600              -2.6928
        61                          0.0065581               0.1785
        62                          0.0277143               0.7541
        63                          0.0685404               1.8651
        64                          0.0834548               2.2709
        65                          0.0911430               2.4801
        66                          0.0977447               2.6598
        67                          0.1089071               2.9635
       ...                                ...                  ...
       106                          0.6464402              17.5905
      -------------------------------------------------------------
                  HL-Gap            0.0750526 Eh            2.0423 eV
             Fermi-level           -0.3305575 Eh           -8.9949 eV

     #   Z        covCN         q      C6AA      α(0)
     1   6 C      2.968    -0.009    28.249     8.718
     2   6 C      2.921    -0.023    28.576     8.766
     3   6 C      2.914    -0.025    28.629     8.774
     4   6 C      2.917    -0.017    28.433     8.744
     5   6 C      2.914    -0.023    28.591     8.768
     6   6 C      2.919    -0.013    28.329     8.728
     7   6 C      2.767     0.211    23.529     7.944
     8   1 H      0.925     0.050     2.325     2.385
     9   1 H      0.926     0.050     2.322     2.383
    10   1 H      0.925     0.054     2.269     2.355
    11   7 N      2.629    -0.380    29.834     8.112
    12   6 C      3.731     0.026    20.223     6.419
    13   1 H      0.860     0.171     1.267     1.763
    14   6 C      3.802    -0.066    21.767     6.642
    15   1 H      0.923     0.006     2.963     2.692
    16   1 H      0.924     0.026     2.648     2.545
    17   1 H      0.924     0.039     2.458     2.452
    18   1 H      0.924     0.037     2.483     2.464
    19   8 O      0.856    -0.402    21.726     6.249
    20   7 N      2.628    -0.371    29.571     8.076
    21   1 H      0.860     0.168     1.283     1.775
    22   1 H      0.860     0.149     1.408     1.859
    23   8 O      1.605    -0.629    25.887     6.867
    24   1 H      0.801     0.308     0.699     1.314
    25   1 H      0.805     0.281     0.782     1.389
    26   1 H      0.923     0.033     2.551     2.498
    27   1 H      0.860     0.140     1.471     1.900
    28   1 H      0.925     0.051     2.304     2.374
    29   1 H      0.925     0.050     2.323     2.383
    30   6 C      3.800    -0.053    21.524     6.606
    31   1 H      0.924     0.030     2.580     2.512
    32   1 H      0.924     0.030     2.586     2.515
    33   6 C      3.731     0.018    20.362     6.441
    34   1 H      0.924     0.016     2.797     2.615
    35   1 H      0.924     0.037     2.489     2.467
    36   6 C      3.803    -0.070    21.832     6.652
    37   1 H      0.924     0.040     2.454     2.450
    38   1 H      0.924     0.038     2.481     2.463
    39   6 C      3.800    -0.055    21.565     6.612
    40   1 H      0.924     0.034     2.529     2.487
    41   1 H      0.924     0.035     2.517     2.481
    42   6 C      3.749    -0.102    22.510     6.767
    43   1 H      0.924     0.037     2.494     2.470
    44   1 H      0.924     0.035     2.523     2.484
    45   1 H      0.924     0.035     2.521     2.483
    46   6 C      3.750    -0.103    22.540     6.771
    47   1 H      0.924     0.040     2.454     2.450
    48   1 H      0.924     0.035     2.515     2.480
    49   1 H      0.924     0.034     2.533     2.489

 Mol. C6AA /au·bohr⁶  :      19235.871882
 Mol. C8AA /au·bohr⁸  :     417017.219710
 Mol. α(0) /au        :        212.030561


Wiberg/Mayer (AO) data.
largest (>0.10) Wiberg bond orders for each atom
          total WBO             WBO to atom ...
     1  C   3.989        C    2 1.370    C    6 1.367    C    7 1.065
     2  C   3.989        C    3 1.458    C    1 1.370    H    8 0.966    C    5 0.105
     3  C   3.991        C    2 1.458    C    4 1.430    H   28 0.969    C    6 0.105
     4  C   3.989        C    3 1.430    C    5 1.426    H   10 0.970
     5  C   3.991        C    6 1.460    C    4 1.426    H   29 0.969    C    2 0.105
     6  C   3.989        C    5 1.460    C    1 1.367    H    9 0.966    C    3 0.105
     7  C   3.909        O   19 1.808    C    1 1.065    H   26 0.934
     8  H   0.998        C    2 0.966
     9  H   0.998        C    6 0.966
    10  H   0.997        C    4 0.970
    11  N   3.021        C   12 1.019    H   27 0.966    H   13 0.940
    12  C   3.986        N   11 1.019    C   14 1.006    H   16 0.974    H   15 0.970
    13  H   0.971        N   11 0.940
    14  C   3.995        C   30 1.007    C   12 1.006    H   18 0.976    H   17 0.975
    15  H   1.000        C   12 0.970
    16  H   0.999        C   12 0.974
    17  H   0.998        C   14 0.975
    18  H   0.999        C   14 0.976
    19  O   2.034        C    7 1.808
    20  N   3.068        C   33 1.010    H   22 0.964    H   21 0.948
    21  H   0.972        N   20 0.948
    22  H   0.977        N   20 0.964
    23  O   1.818        H   25 0.919    H   24 0.833
    24  H   0.905        O   23 0.833
    25  H   0.921        O   23 0.919
    26  H   0.998        C    7 0.934
    27  H   0.980        N   11 0.966
    28  H   0.997        C    3 0.969
    29  H   0.997        C    5 0.969
    30  C   3.998        C   42 1.020    C   14 1.007    H   31 0.978    H   32 0.978
    31  H   0.999        C   30 0.978
    32  H   0.999        C   30 0.978
    33  C   3.981        N   20 1.010    C   36 1.006    H   35 0.977    H   34 0.971
    34  H   1.000        C   33 0.971
    35  H   0.998        C   33 0.977
    36  C   3.995        C   39 1.007    C   33 1.006    H   37 0.974    H   38 0.971
    37  H   0.998        C   36 0.974
    38  H   0.999        C   36 0.971
    39  C   3.997        C   46 1.020    C   36 1.007    H   41 0.978    H   40 0.976
    40  H   0.999        C   39 0.976
    41  H   0.999        C   39 0.978
    42  C   3.996        C   30 1.020    H   44 0.988    H   45 0.988    H   43 0.987
    43  H   0.998        C   42 0.987
    44  H   0.999        C   42 0.988
    45  H   0.999        C   42 0.988
    46  C   3.996        C   39 1.020    H   48 0.988    H   49 0.987    H   47 0.987
    47  H   0.998        C   46 0.987
    48  H   0.999        C   46 0.988
    49  H   0.999        C   46 0.987

molecular dipole:
                 x           y           z       tot (Debye)
 q only:       -2.106       0.216       0.506
   full:       -2.323       0.144       0.604       6.111
molecular quadrupole (traceless):
                xx          xy          yy          xz          yz          zz
 q only:       -5.791      10.268       9.434       3.129      -3.345      -3.643
  q+dip:      -11.498      11.795      13.951       4.832      -0.683      -2.453
   full:      -12.250      11.659      13.030       4.552      -2.429      -0.780


           -------------------------------------------------
          | TOTAL ENERGY              -61.364586115557 Eh   |
          | GRADIENT NORM               0.027932970350 Eh/α |
          | HOMO-LUMO GAP               2.042284547956 eV   |
           -------------------------------------------------

------------------------------------------------------------------------
 * finished run on 2020/08/23 at 12:05:16.141     
------------------------------------------------------------------------
 total:
 * wall-time:     0 d,  0 h,  0 min,  0.192 sec
 *  cpu-time:     0 d,  0 h,  0 min,  1.169 sec
 * ratio c/w:     6.091 speedup
 SCF:
 * wall-time:     0 d,  0 h,  0 min,  0.119 sec
 *  cpu-time:     0 d,  0 h,  0 min,  0.652 sec
 * ratio c/w:     5.479 speedup


-------------------------   --------------------
FINAL SINGLE POINT ENERGY       -61.364586115560
-------------------------   --------------------


----------------------------------------------------------------------------
                           ORCA NUMERICAL FREQUENCIES
                              (8-process run)
----------------------------------------------------------------------------

Number of atoms                ... 49
Central differences            ... used
Number of displacements        ... 294
Numerical increment            ... 5.000e-03 bohr
IR-spectrum generation         ... on
Raman-spectrum generation      ... off
Surface Crossing Hessian       ... off
List of participating nodes    ...  /tmp/slurm-scratch/freq.132/freq.hostnames

The output will be reduced. Please look at the following files:
SCF program output             ... >/tmp/slurm-scratch/freq.132/freq.lastscf
Integral program output        ... >/tmp/slurm-scratch/freq.132/freq.lastint
Gradient program output        ... >/tmp/slurm-scratch/freq.132/freq.lastgrad
Dipole moment program output   ... >/tmp/slurm-scratch/freq.132/freq.lastmom
AutoCI program output          ... >/tmp/slurm-scratch/freq.132/freq.lastautoci


         <<< Energy and Gradient at the input geometry >>>

        <<< Energy and Gradient at displaced geometries >>>
             <<<Displacing   3/coordinate 2 (+)>>>
             <<<Displacing   2/coordinate 3 (+)>>>
             <<<Displacing   1/coordinate 1 (+)>>>
             <<<Displacing   3/coordinate 2 (-)>>>
             <<<Displacing   2/coordinate 3 (-)>>>
             <<<Displacing   1/coordinate 1 (-)>>>
             <<<Displacing   2/coordinate 2 (+)>>>
             <<<Displacing   1/coordinate 2 (+)>>>
             <<<Displacing   1/coordinate 3 (+)>>>
             <<<Displacing   2/coordinate 2 (-)>>>
             <<<Displacing   1/coordinate 2 (-)>>>
             <<<Displacing   1/coordinate 3 (-)>>>
             <<<Displacing   3/coordinate 1 (+)>>>
             <<<Displacing   3/coordinate 1 (-)>>>
             <<<Displacing   2/coordinate 1 (+)>>>
             <<<Displacing   2/coordinate 1 (-)>>>
             <<<Displacing   5/coordinate 2 (+)>>>
             <<<Displacing   5/coordinate 2 (-)>>>
             <<<Displacing   4/coordinate 1 (+)>>>
             <<<Displacing   4/coordinate 2 (+)>>>
             <<<Displacing   3/coordinate 3 (+)>>>
             <<<Displacing   4/coordinate 1 (-)>>>
             <<<Displacing   4/coordinate 2 (-)>>>
             <<<Displacing   3/coordinate 3 (-)>>>
             <<<Displacing   5/coordinate 1 (+)>>>
             <<<Displacing   6/coordinate 1 (+)>>>
             <<<Displacing   4/coordinate 3 (+)>>>
             <<<Displacing   5/coordinate 1 (-)>>>
             <<<Displacing   6/coordinate 1 (-)>>>
             <<<Displacing   4/coordinate 3 (-)>>>
             <<<Displacing   5/coordinate 3 (+)>>>
             <<<Displacing   5/coordinate 3 (-)>>>
             <<<Displacing   7/coordinate 2 (+)>>>
             <<<Displacing   7/coordinate 2 (-)>>>
             <<<Displacing   6/coordinate 3 (+)>>>
             <<<Displacing   7/coordinate 1 (+)>>>
             <<<Displacing   6/coordinate 3 (-)>>>
             <<<Displacing   6/coordinate 2 (+)>>>
             <<<Displacing   7/coordinate 1 (-)>>>
             <<<Displacing   6/coordinate 2 (-)>>>
             <<<Displacing   7/coordinate 3 (+)>>>
             <<<Displacing   8/coordinate 2 (+)>>>
             <<<Displacing   8/coordinate 1 (+)>>>
             <<<Displacing   7/coordinate 3 (-)>>>
             <<<Displacing   8/coordinate 2 (-)>>>
             <<<Displacing   8/coordinate 1 (-)>>>
             <<<Displacing   8/coordinate 3 (+)>>>
             <<<Displacing   8/coordinate 3 (-)>>>
             <<<Displacing   9/coordinate 1 (+)>>>
             <<<Displacing  10/coordinate 3 (+)>>>
             <<<Displacing   9/coordinate 2 (+)>>>
             <<<Displacing   9/coordinate 1 (-)>>>
             <<<Displacing  10/coordinate 3 (-)>>>
             <<<Displacing   9/coordinate 2 (-)>>>
             <<<Displacing   9/coordinate 3 (+)>>>
             <<<Displacing  10/coordinate 1 (+)>>>
             <<<Displacing   9/coordinate 3 (-)>>>
             <<<Displacing  10/coordinate 1 (-)>>>
             <<<Displacing  11/coordinate 1 (+)>>>
             <<<Displacing  10/coordinate 2 (+)>>>
             <<<Displacing  11/coordinate 2 (+)>>>
             <<<Displacing  11/coordinate 1 (-)>>>
             <<<Displacing  10/coordinate 2 (-)>>>
             <<<Displacing  11/coordinate 2 (-)>>>
             <<<Displacing  11/coordinate 3 (+)>>>
             <<<Displacing  12/coordinate 2 (+)>>>
             <<<Displacing  11/coordinate 3 (-)>>>
             <<<Displacing  12/coordinate 2 (-)>>>
             <<<Displacing  12/coordinate 1 (+)>>>
             <<<Displacing  12/coordinate 1 (-)>>>
             <<<Displacing  12/coordinate 3 (+)>>>
             <<<Displacing  13/coordinate 1 (+)>>>
             <<<Displacing  12/coordinate 3 (-)>>>
             <<<Displacing  13/coordinate 1 (-)>>>
             <<<Displacing  13/coordinate 3 (+)>>>
             <<<Displacing  13/coordinate 3 (-)>>>
             <<<Displacing  13/coordinate 2 (+)>>>
             <<<Displacing  13/coordinate 2 (-)>>>
             <<<Displacing  14/coordinate 1 (+)>>>
             <<<Displacing  14/coordinate 1 (-)>>>
             <<<Displacing  14/coordinate 3 (+)>>>
             <<<Displacing  14/coordinate 3 (-)>>>
             <<<Displacing  15/coordinate 1 (+)>>>
             <<<Displacing  14/coordinate 2 (+)>>>
             <<<Displacing  15/coordinate 1 (-)>>>
             <<<Displacing  14/coordinate 2 (-)>>>
             <<<Displacing  15/coordinate 3 (+)>>>
             <<<Displacing  15/coordinate 2 (+)>>>
             <<<Displacing  16/coordinate 1 (+)>>>
             <<<Displacing  15/coordinate 3 (-)>>>
             <<<Displacing  16/coordinate 1 (-)>>>
             <<<Displacing  15/coordinate 2 (-)>>>
             <<<Displacing  16/coordinate 2 (+)>>>
             <<<Displacing  16/coordinate 2 (-)>>>
             <<<Displacing  16/coordinate 3 (+)>>>
             <<<Displacing  16/coordinate 3 (-)>>>
             <<<Displacing  17/coordinate 1 (+)>>>
             <<<Displacing  17/coordinate 2 (+)>>>
             <<<Displacing  17/coordinate 1 (-)>>>
             <<<Displacing  17/coordinate 2 (-)>>>
             <<<Displacing  17/coordinate 3 (+)>>>
             <<<Displacing  18/coordinate 1 (+)>>>
             <<<Displacing  17/coordinate 3 (-)>>>
             <<<Displacing  18/coordinate 3 (+)>>>
             <<<Displacing  18/coordinate 1 (-)>>>
             <<<Displacing  18/coordinate 3 (-)>>>
             <<<Displacing  18/coordinate 2 (+)>>>
             <<<Displacing  19/coordinate 1 (+)>>>
             <<<Displacing  18/coordinate 2 (-)>>>
             <<<Displacing  19/coordinate 1 (-)>>>
             <<<Displacing  19/coordinate 2 (+)>>>
             <<<Displacing  19/coordinate 2 (-)>>>
             <<<Displacing  20/coordinate 1 (+)>>>
             <<<Displacing  19/coordinate 3 (+)>>>
             <<<Displacing  20/coordinate 1 (-)>>>
             <<<Displacing  19/coordinate 3 (-)>>>
             <<<Displacing  20/coordinate 3 (+)>>>
             <<<Displacing  20/coordinate 3 (-)>>>
             <<<Displacing  21/coordinate 2 (+)>>>
             <<<Displacing  20/coordinate 2 (+)>>>
             <<<Displacing  21/coordinate 1 (+)>>>
             <<<Displacing  21/coordinate 2 (-)>>>
             <<<Displacing  20/coordinate 2 (-)>>>
             <<<Displacing  21/coordinate 1 (-)>>>
             <<<Displacing  21/coordinate 3 (+)>>>
             <<<Displacing  22/coordinate 1 (+)>>>
             <<<Displacing  21/coordinate 3 (-)>>>
             <<<Displacing  22/coordinate 1 (-)>>>
             <<<Displacing  22/coordinate 2 (+)>>>
             <<<Displacing  22/coordinate 2 (-)>>>
             <<<Displacing  22/coordinate 3 (+)>>>
             <<<Displacing  22/coordinate 3 (-)>>>
             <<<Displacing  23/coordinate 1 (+)>>>
             <<<Displacing  23/coordinate 2 (+)>>>
             <<<Displacing  23/coordinate 1 (-)>>>
             <<<Displacing  23/coordinate 3 (+)>>>
             <<<Displacing  23/coordinate 2 (-)>>>
             <<<Displacing  24/coordinate 1 (+)>>>
             <<<Displacing  23/coordinate 3 (-)>>>
             <<<Displacing  24/coordinate 1 (-)>>>
             <<<Displacing  24/coordinate 2 (+)>>>
             <<<Displacing  24/coordinate 2 (-)>>>
             <<<Displacing  24/coordinate 3 (+)>>>
             <<<Displacing  24/coordinate 3 (-)>>>
             <<<Displacing  25/coordinate 1 (+)>>>
             <<<Displacing  25/coordinate 1 (-)>>>
             <<<Displacing  25/coordinate 2 (+)>>>
             <<<Displacing  25/coordinate 2 (-)>>>
             <<<Displacing  25/coordinate 3 (+)>>>
             <<<Displacing  25/coordinate 3 (-)>>>
             <<<Displacing  26/coordinate 1 (+)>>>
             <<<Displacing  26/coordinate 2 (+)>>>
             <<<Displacing  26/coordinate 1 (-)>>>
             <<<Displacing  26/coordinate 2 (-)>>>
             <<<Displacing  26/coordinate 3 (+)>>>
             <<<Displacing  27/coordinate 1 (+)>>>
             <<<Displacing  26/coordinate 3 (-)>>>
             <<<Displacing  27/coordinate 1 (-)>>>
             <<<Displacing  27/coordinate 2 (+)>>>
             <<<Displacing  27/coordinate 2 (-)>>>
             <<<Displacing  27/coordinate 3 (+)>>>
             <<<Displacing  27/coordinate 3 (-)>>>
             <<<Displacing  28/coordinate 1 (+)>>>
             <<<Displacing  28/coordinate 1 (-)>>>
             <<<Displacing  28/coordinate 2 (+)>>>
             <<<Displacing  28/coordinate 2 (-)>>>
             <<<Displacing  29/coordinate 1 (+)>>>
             <<<Displacing  29/coordinate 1 (-)>>>
             <<<Displacing  29/coordinate 2 (+)>>>
             <<<Displacing  29/coordinate 3 (+)>>>
             <<<Displacing  28/coordinate 3 (+)>>>
             <<<Displacing  29/coordinate 2 (-)>>>
             <<<Displacing  29/coordinate 3 (-)>>>
             <<<Displacing  28/coordinate 3 (-)>>>
             <<<Displacing  30/coordinate 1 (+)>>>
             <<<Displacing  30/coordinate 1 (-)>>>
             <<<Displacing  30/coordinate 2 (+)>>>
             <<<Displacing  31/coordinate 1 (+)>>>
             <<<Displacing  30/coordinate 2 (-)>>>
             <<<Displacing  31/coordinate 1 (-)>>>
             <<<Displacing  30/coordinate 3 (+)>>>
             <<<Displacing  30/coordinate 3 (-)>>>
             <<<Displacing  31/coordinate 2 (+)>>>
             <<<Displacing  32/coordinate 2 (+)>>>
             <<<Displacing  32/coordinate 1 (+)>>>
             <<<Displacing  31/coordinate 2 (-)>>>
             <<<Displacing  32/coordinate 2 (-)>>>
             <<<Displacing  31/coordinate 3 (+)>>>
             <<<Displacing  32/coordinate 1 (-)>>>
             <<<Displacing  31/coordinate 3 (-)>>>
             <<<Displacing  32/coordinate 3 (+)>>>
             <<<Displacing  32/coordinate 3 (-)>>>
             <<<Displacing  33/coordinate 1 (+)>>>
             <<<Displacing  33/coordinate 2 (+)>>>
             <<<Displacing  33/coordinate 1 (-)>>>
             <<<Displacing  33/coordinate 3 (+)>>>
             <<<Displacing  33/coordinate 2 (-)>>>
             <<<Displacing  33/coordinate 3 (-)>>>
             <<<Displacing  35/coordinate 1 (+)>>>
             <<<Displacing  34/coordinate 1 (+)>>>
             <<<Displacing  34/coordinate 2 (+)>>>
             <<<Displacing  34/coordinate 3 (+)>>>
             <<<Displacing  34/coordinate 1 (-)>>>
             <<<Displacing  35/coordinate 1 (-)>>>
             <<<Displacing  34/coordinate 2 (-)>>>
             <<<Displacing  34/coordinate 3 (-)>>>
             <<<Displacing  35/coordinate 2 (+)>>>
             <<<Displacing  35/coordinate 2 (-)>>>
             <<<Displacing  35/coordinate 3 (+)>>>
             <<<Displacing  35/coordinate 3 (-)>>>
             <<<Displacing  36/coordinate 2 (+)>>>
             <<<Displacing  36/coordinate 1 (+)>>>
             <<<Displacing  36/coordinate 2 (-)>>>
             <<<Displacing  36/coordinate 1 (-)>>>
             <<<Displacing  36/coordinate 3 (+)>>>
             <<<Displacing  36/coordinate 3 (-)>>>
             <<<Displacing  37/coordinate 2 (+)>>>
             <<<Displacing  37/coordinate 2 (-)>>>
             <<<Displacing  37/coordinate 1 (+)>>>
             <<<Displacing  37/coordinate 1 (-)>>>
             <<<Displacing  38/coordinate 1 (+)>>>
             <<<Displacing  37/coordinate 3 (+)>>>
             <<<Displacing  38/coordinate 1 (-)>>>
             <<<Displacing  37/coordinate 3 (-)>>>
             <<<Displacing  38/coordinate 2 (+)>>>
             <<<Displacing  38/coordinate 2 (-)>>>
             <<<Displacing  38/coordinate 3 (+)>>>
             <<<Displacing  38/coordinate 3 (-)>>>
             <<<Displacing  39/coordinate 2 (+)>>>
             <<<Displacing  39/coordinate 1 (+)>>>
             <<<Displacing  39/coordinate 2 (-)>>>
             <<<Displacing  39/coordinate 1 (-)>>>
             <<<Displacing  39/coordinate 3 (+)>>>
             <<<Displacing  39/coordinate 3 (-)>>>
             <<<Displacing  40/coordinate 1 (+)>>>
             <<<Displacing  40/coordinate 1 (-)>>>
             <<<Displacing  40/coordinate 2 (+)>>>
             <<<Displacing  40/coordinate 3 (+)>>>
             <<<Displacing  40/coordinate 2 (-)>>>
             <<<Displacing  40/coordinate 3 (-)>>>
             <<<Displacing  41/coordinate 1 (+)>>>
             <<<Displacing  41/coordinate 2 (+)>>>
             <<<Displacing  41/coordinate 1 (-)>>>
             <<<Displacing  41/coordinate 2 (-)>>>
             <<<Displacing  42/coordinate 1 (+)>>>
             <<<Displacing  42/coordinate 1 (-)>>>
             <<<Displacing  41/coordinate 3 (+)>>>
             <<<Displacing  41/coordinate 3 (-)>>>
             <<<Displacing  42/coordinate 2 (+)>>>
             <<<Displacing  42/coordinate 2 (-)>>>
             <<<Displacing  42/coordinate 3 (+)>>>
             <<<Displacing  42/coordinate 3 (-)>>>
             <<<Displacing  43/coordinate 1 (+)>>>
             <<<Displacing  43/coordinate 2 (+)>>>
             <<<Displacing  43/coordinate 1 (-)>>>
             <<<Displacing  43/coordinate 2 (-)>>>
             <<<Displacing  43/coordinate 3 (+)>>>
             <<<Displacing  43/coordinate 3 (-)>>>
             <<<Displacing  44/coordinate 3 (+)>>>
             <<<Displacing  44/coordinate 1 (+)>>>
             <<<Displacing  44/coordinate 3 (-)>>>
             <<<Displacing  44/coordinate 2 (+)>>>
             <<<Displacing  44/coordinate 1 (-)>>>
             <<<Displacing  44/coordinate 2 (-)>>>
             <<<Displacing  45/coordinate 2 (+)>>>
             <<<Displacing  45/coordinate 1 (+)>>>
             <<<Displacing  45/coordinate 2 (-)>>>
             <<<Displacing  45/coordinate 1 (-)>>>
             <<<Displacing  45/coordinate 3 (+)>>>
             <<<Displacing  45/coordinate 3 (-)>>>
             <<<Displacing  46/coordinate 1 (+)>>>
             <<<Displacing  46/coordinate 1 (-)>>>
             <<<Displacing  46/coordinate 2 (+)>>>
             <<<Displacing  46/coordinate 2 (-)>>>
             <<<Displacing  46/coordinate 3 (+)>>>
             <<<Displacing  46/coordinate 3 (-)>>>
             <<<Displacing  47/coordinate 1 (+)>>>
             <<<Displacing  47/coordinate 3 (+)>>>
             <<<Displacing  47/coordinate 1 (-)>>>
             <<<Displacing  47/coordinate 2 (+)>>>
             <<<Displacing  47/coordinate 3 (-)>>>
             <<<Displacing  47/coordinate 2 (-)>>>
             <<<Displacing  48/coordinate 1 (+)>>>
             <<<Displacing  48/coordinate 1 (-)>>>
             <<<Displacing  48/coordinate 3 (+)>>>
             <<<Displacing  48/coordinate 2 (+)>>>
             <<<Displacing  48/coordinate 2 (-)>>>
             <<<Displacing  48/coordinate 3 (-)>>>
             <<<Displacing  49/coordinate 1 (+)>>>
             <<<Displacing  49/coordinate 1 (-)>>>
             <<<Displacing  49/coordinate 2 (+)>>>
             <<<Displacing  49/coordinate 3 (+)>>>
             <<<Displacing  49/coordinate 2 (-)>>>
             <<<Displacing  49/coordinate 3 (-)>>>

-----------------------
VIBRATIONAL FREQUENCIES
-----------------------

Scaling factor for frequencies =  1.000000000 (already applied!)

   0:         0.00 cm**-1
   1:         0.00 cm**-1
   2:         0.00 cm**-1
   3:         0.00 cm**-1
   4:         0.00 cm**-1
   5:         0.00 cm**-1
   6:       -48.76 cm**-1 ***imaginary mode***
   7:        26.11 cm**-1
   8:        34.16 cm**-1
   9:        37.64 cm**-1
  10:        38.55 cm**-1
  11:        43.21 cm**-1
  12:        49.43 cm**-1
  13:        55.46 cm**-1
  14:        62.41 cm**-1
  15:        71.69 cm**-1
  16:        77.26 cm**-1
  17:        83.21 cm**-1
  18:        95.60 cm**-1
  19:       105.84 cm**-1
  20:       120.67 cm**-1
  21:       124.14 cm**-1
  22:       138.29 cm**-1
  23:       152.99 cm**-1
  24:       160.45 cm**-1
  25:       193.03 cm**-1
  26:       201.34 cm**-1
  27:       215.44 cm**-1
  28:       232.40 cm**-1
  29:       237.59 cm**-1
  30:       260.49 cm**-1
  31:       274.35 cm**-1
  32:       278.64 cm**-1
  33:       340.44 cm**-1
  34:       358.55 cm**-1
  35:       382.04 cm**-1
  36:       394.98 cm**-1
  37:       396.49 cm**-1
  38:       416.79 cm**-1
  39:       418.72 cm**-1
  40:       430.10 cm**-1
  41:       447.71 cm**-1
  42:       478.29 cm**-1
  43:       586.76 cm**-1
  44:       625.99 cm**-1
  45:       661.17 cm**-1
  46:       735.12 cm**-1
  47:       749.77 cm**-1
  48:       766.27 cm**-1
  49:       772.31 cm**-1
  50:       821.38 cm**-1
  51:       824.67 cm**-1
  52:       831.51 cm**-1
  53:       884.04 cm**-1
  54:       898.30 cm**-1
  55:       923.35 cm**-1
  56:       923.96 cm**-1
  57:       929.34 cm**-1
  58:       934.44 cm**-1
  59:       937.94 cm**-1
  60:       938.98 cm**-1
  61:       945.06 cm**-1
  62:       974.54 cm**-1
  63:       984.52 cm**-1
  64:      1000.82 cm**-1
  65:      1003.30 cm**-1
  66:      1006.12 cm**-1
  67:      1059.27 cm**-1
  68:      1065.78 cm**-1
  69:      1070.22 cm**-1
  70:      1096.00 cm**-1
  71:      1101.10 cm**-1
  72:      1111.41 cm**-1
  73:      1122.11 cm**-1
  74:      1123.89 cm**-1
  75:      1145.06 cm**-1
  76:      1151.63 cm**-1
  77:      1174.39 cm**-1
  78:      1178.48 cm**-1
  79:      1197.74 cm**-1
  80:      1201.54 cm**-1
  81:      1207.98 cm**-1
  82:      1229.32 cm**-1
  83:      1239.80 cm**-1
  84:      1269.66 cm**-1
  85:      1276.08 cm**-1
  86:      1277.12 cm**-1
  87:      1277.73 cm**-1
  88:      1278.73 cm**-1
  89:      1290.14 cm**-1
  90:      1292.56 cm**-1
  91:      1302.43 cm**-1
  92:      1349.58 cm**-1
  93:      1352.35 cm**-1
  94:      1356.12 cm**-1
  95:      1377.54 cm**-1
  96:      1380.94 cm**-1
  97:      1426.65 cm**-1
  98:      1427.41 cm**-1
  99:      1427.77 cm**-1
 100:      1449.52 cm**-1
 101:      1490.72 cm**-1
 102:      1501.52 cm**-1
 103:      1502.43 cm**-1
 104:      1505.47 cm**-1
 105:      1506.01 cm**-1
 106:      1507.06 cm**-1
 107:      1507.96 cm**-1
 108:      1508.66 cm**-1
 109:      1512.49 cm**-1
 110:      1512.78 cm**-1
 111:      1546.55 cm**-1
 112:      1550.97 cm**-1
 113:      1559.44 cm**-1
 114:      1563.21 cm**-1
 115:      1570.13 cm**-1
 116:      1662.68 cm**-1
 117:      2844.48 cm**-1
 118:      2846.89 cm**-1
 119:      2892.46 cm**-1
 120:      2935.54 cm**-1
 121:      2936.41 cm**-1
 122:      2938.59 cm**-1
 123:      2940.83 cm**-1
 124:      2953.57 cm**-1
 125:      2961.99 cm**-1
 126:      2962.94 cm**-1
 127:      2969.16 cm**-1
 128:      2973.29 cm**-1
 129:      2975.10 cm**-1
 130:      2979.47 cm**-1
 131:      2980.56 cm**-1
 132:      2984.11 cm**-1
 133:      2985.92 cm**-1
 134:      2996.09 cm**-1
 135:      2998.65 cm**-1
 136:      2999.43 cm**-1
 137:      3054.46 cm**-1
 138:      3059.90 cm**-1
 139:      3065.51 cm**-1
 140:      3072.37 cm**-1
 141:      3078.14 cm**-1
 142:      3349.04 cm**-1
 143:      3373.80 cm**-1
 144:      3413.16 cm**-1
 145:      3422.35 cm**-1
 146:      3591.04 cm**-1


------------
NORMAL MODES
------------

These modes are the cartesian displacements weighted by the diagonal matrix
M(i,i)=1/sqrt(m[i]) where m[i] is the mass of the displaced atom
Thus, these vectors are normalized but *not* orthogonal

                  0          1          2          3          4          5    
      0       0.000000   0.000000   0.000000   0.000000   0.000000   0.000000
      1       0.000000   0.000000   0.000000   0.000000   0.000000   0.000000
      2       0.000000   0.000000   0.000000   0.000000   0.000000   0.000000
      3       0.000000   0.000000   0.000000   0.000000   0.000000   0.000000
      4       0.000000   0.000000   0.000000   0.000000   0.000000   0.000000
      5       0.000000   0.000000   0.000000   0.000000   0.000000   0.000000
      6       0.000000   0.000000   0.000000   0.000000   0.000000   0.000000
      7       0.000000   0.000000   0.000000   0.000000   0.000000   0.000000
      8       0.000000   0.000000   0.000000   0.000000   0.000000   0.000000
      9       0.000000   0.000000   0.000000   0.000000   0.000000   0.000000
     10       0.000000   0.000000   0.000000   0.000000   0.000000   0.000000
     11       0.000000   0.000000   0.000000   0.000000   0.000000   0.000000
     12       0.000000   0.000000   0.000000   0.000000   0.000000   0.000000
     13       0.000000   0.000000   0.000000   0.000000   0.000000   0.000000
     14       0.000000   0.000000   0.000000   0.000000   0.000000   0.000000
     15       0.000000   0.000000   0.000000   0.000000   0.000000   0.000000
     16       0.000000   0.000000   0.000000   0.000000   0.000000   0.000000
     17       0.000000   0.000000   0.000000   0.000000   0.000000   0.000000
     18       0.000000   0.000000   0.000000   0.000000   0.000000   0.000000
     19       0.000000   0.000000   0.000000   0.000000   0.000000   0.000000
     20       0.000000   0.000000   0.000000   0.000000   0.000000   0.000000
     21       0.000000   0.000000   0.000000   0.000000   0.000000   0.000000
     22       0.000000   0.000000   0.000000   0.000000   0.000000   0.000000
     23       0.000000   0.000000   0.000000   0.000000   0.000000   0.000000
     24       0.000000   0.000000   0.000000   0.000000   0.000000   0.000000
     25       0.000000   0.000000   0.000000   0.000000   0.000000   0.000000
     26       0.000000   0.000000   0.000000   0.000000   0.000000   0.000000
     27       0.000000   0.000000   0.000000   0.000000   0.000000   0.000000
     28       0.000000   0.000000   0.000000   0.000000   0.000000   0.000000
     29       0.000000   0.000000   0.000000   0.000000   0.000000   0.000000
     30       0.000000   0.000000   0.000000   0.000000   0.000000   0.000000
     31       0.000000   0.000000   0.000000   0.000000   0.000000   0.000000
     32       0.000000   0.000000   0.000000   0.000000   0.000000   0.000000
     33       0.000000   0.000000   0.000000   0.000000   0.000000   0.000000
     34       0.000000   0.000000   0.000000   0.000000   0.000000   0.000000
     35       0.000000   0.000000   0.000000   0.000000   0.000000   0.000000
     36       0.000000   0.000000   0.000000   0.000000   0.000000   0.000000
     37       0.000000   0.000000   0.000000   0.000000   0.000000   0.000000
     38       0.000000   0.000000   0.000000   0.000000   0.000000   0.000000
     39       0.000000   0.000000   0.000000   0.000000   0.000000   0.000000
     40       0.000000   0.000000   0.000000   0.000000   0.000000   0.000000
     41       0.000000   0.000000   0.000000   0.000000   0.000000   0.000000
     42       0.000000   0.000000   0.000000   0.000000   0.000000   0.000000
     43       0.000000   0.000000   0.000000   0.000000   0.000000   0.000000
     44       0.000000   0.000000   0.000000   0.000000   0.000000   0.000000
     45       0.000000   0.000000   0.000000   0.000000   0.000000   0.000000
     46       0.000000   0.000000   0.000000   0.000000   0.000000   0.000000
     47       0.000000   0.000000   0.000000   0.000000   0.000000   0.000000
     48       0.000000   0.000000   0.000000   0.000000   0.000000   0.000000
     49       0.000000   0.000000   0.000000   0.000000   0.000000   0.000000
     50       0.000000   0.000000   0.000000   0.000000   0.000000   0.000000
     51       0.000000   0.000000   0.000000   0.000000   0.000000   0.000000
     52       0.000000   0.000000   0.000000   0.000000   0.000000   0.000000
     53       0.000000   0.000000   0.000000   0.000000   0.000000   0.000000
     54       0.000000   0.000000   0.000000   0.000000   0.000000   0.000000
     55       0.000000   0.000000   0.000000   0.000000   0.000000   0.000000
     56       0.000000   0.000000   0.000000   0.000000   0.000000   0.000000
     57       0.000000   0.000000   0.000000   0.000000   0.000000   0.000000
     58       0.000000   0.000000   0.000000   0.000000   0.000000   0.000000
     59       0.000000   0.000000   0.000000   0.000000   0.000000   0.000000
     60       0.000000   0.000000   0.000000   0.000000   0.000000   0.000000
     61       0.000000   0.000000   0.000000   0.000000   0.000000   0.000000
     62       0.000000   0.000000   0.000000   0.000000   0.000000   0.000000
     63       0.000000   0.000000   0.000000   0.000000   0.000000   0.000000
     64       0.000000   0.000000   0.000000   0.000000   0.000000   0.000000
     65       0.000000   0.000000   0.000000   0.000000   0.000000   0.000000
     66       0.000000   0.000000   0.000000   0.000000   0.000000   0.000000
     67       0.000000   0.000000   0.000000   0.000000   0.000000   0.000000
     68       0.000000   0.000000   0.000000   0.000000   0.000000   0.000000
     69       0.000000   0.000000   0.000000   0.000000   0.000000   0.000000
     70       0.000000   0.000000   0.000000   0.000000   0.000000   0.000000
     71       0.000000   0.000000   0.000000   0.000000   0.000000   0.000000
     72       0.000000   0.000000   0.000000   0.000000   0.000000   0.000000
     73       0.000000   0.000000   0.000000   0.000000   0.000000   0.000000
     74       0.000000   0.000000   0.000000   0.000000   0.000000   0.000000
     75       0.000000   0.000000   0.000000   0.000000   0.000000   0.000000
     76       0.000000   0.000000   0.000000   0.000000   0.000000   0.000000
     77       0.000000   0.000000   0.000000   0.000000   0.000000   0.000000
     78       0.000000   0.000000   0.000000   0.000000   0.000000   0.000000
     79       0.000000   0.000000   0.000000   0.000000   0.000000   0.000000
     80       0.000000   0.000000   0.000000   0.000000   0.000000   0.000000
     81       0.000000   0.000000   0.000000   0.000000   0.000000   0.000000
     82       0.000000   0.000000   0.000000   0.000000   0.000000   0.000000
     83       0.000000   0.000000   0.000000   0.000000   0.000000   0.000000
     84       0.000000   0.000000   0.000000   0.000000   0.000000   0.000000
     85       0.000000   0.000000   0.000000   0.000000   0.000000   0.000000
     86       0.000000   0.000000   0.000000   0.000000   0.000000   0.000000
     87       0.000000   0.000000   0.000000   0.000000   0.000000   0.000000
     88       0.000000   0.000000   0.000000   0.000000   0.000000   0.000000
     89       0.000000   0.000000   0.000000   0.000000   0.000000   0.000000
     90       0.000000   0.000000   0.000000   0.000000   0.000000   0.000000
     91       0.000000   0.000000   0.000000   0.000000   0.000000   0.000000
     92       0.000000   0.000000   0.000000   0.000000   0.000000   0.000000
     93       0.000000   0.000000   0.000000   0.000000   0.000000   0.000000
     94       0.000000   0.000000   0.000000   0.000000   0.000000   0.000000
     95       0.000000   0.000000   0.000000   0.000000   0.000000   0.000000
     96       0.000000   0.000000   0.000000   0.000000   0.000000   0.000000
     97       0.000000   0.000000   0.000000   0.000000   0.000000   0.000000
     98       0.000000   0.000000   0.000000   0.000000   0.000000   0.000000
     99       0.000000   0.000000   0.000000   0.000000   0.000000   0.000000
    100       0.000000   0.000000   0.000000   0.000000   0.000000   0.000000
    101       0.000000   0.000000   0.000000   0.000000   0.000000   0.000000
    102       0.000000   0.000000   0.000000   0.000000   0.000000   0.000000
    103       0.000000   0.000000   0.000000   0.000000   0.000000   0.000000
    104       0.000000   0.000000   0.000000   0.000000   0.000000   0.000000
    105       0.000000   0.000000   0.000000   0.000000   0.000000   0.000000
    106       0.000000   0.000000   0.000000   0.000000   0.000000   0.000000
    107       0.000000   0.000000   0.000000   0.000000   0.000000   0.000000
    108       0.000000   0.000000   0.000000   0.000000   0.000000   0.000000
    109       0.000000   0.000000   0.000000   0.000000   0.000000   0.000000
    110       0.000000   0.000000   0.000000   0.000000   0.000000   0.000000
    111       0.000000   0.000000   0.000000   0.000000   0.000000   0.000000
    112       0.000000   0.000000   0.000000   0.000000   0.000000   0.000000
    113       0.000000   0.000000   0.000000   0.000000   0.000000   0.000000
    114       0.000000   0.000000   0.000000   0.000000   0.000000   0.000000
    115       0.000000   0.000000   0.000000   0.000000   0.000000   0.000000
    116       0.000000   0.000000   0.000000   0.000000   0.000000   0.000000
    117       0.000000   0.000000   0.000000   0.000000   0.000000   0.000000
    118       0.000000   0.000000   0.000000   0.000000   0.000000   0.000000
    119       0.000000   0.000000   0.000000   0.000000   0.000000   0.000000
    120       0.000000   0.000000   0.000000   0.000000   0.000000   0.000000
    121       0.000000   0.000000   0.000000   0.000000   0.000000   0.000000
    122       0.000000   0.000000   0.000000   0.000000   0.000000   0.000000
    123       0.000000   0.000000   0.000000   0.000000   0.000000   0.000000
    124       0.000000   0.000000   0.000000   0.000000   0.000000   0.000000
    125       0.000000   0.000000   0.000000   0.000000   0.000000   0.000000
    126       0.000000   0.000000   0.000000   0.000000   0.000000   0.000000
    127       0.000000   0.000000   0.000000   0.000000   0.000000   0.000000
    128       0.000000   0.000000   0.000000   0.000000   0.000000   0.000000
    129       0.000000   0.000000   0.000000   0.000000   0.000000   0.000000
    130       0.000000   0.000000   0.000000   0.000000   0.000000   0.000000
    131       0.000000   0.000000   0.000000   0.000000   0.000000   0.000000
    132       0.000000   0.000000   0.000000   0.000000   0.000000   0.000000
    133       0.000000   0.000000   0.000000   0.000000   0.000000   0.000000
    134       0.000000   0.000000   0.000000   0.000000   0.000000   0.000000
    135       0.000000   0.000000   0.000000   0.000000   0.000000   0.000000
    136       0.000000   0.000000   0.000000   0.000000   0.000000   0.000000
    137       0.000000   0.000000   0.000000   0.000000   0.000000   0.000000
    138       0.000000   0.000000   0.000000   0.000000   0.000000   0.000000
    139       0.000000   0.000000   0.000000   0.000000   0.000000   0.000000
    140       0.000000   0.000000   0.000000   0.000000   0.000000   0.000000
    141       0.000000   0.000000   0.000000   0.000000   0.000000   0.000000
    142       0.000000   0.000000   0.000000   0.000000   0.000000   0.000000
    143       0.000000   0.000000   0.000000   0.000000   0.000000   0.000000
    144       0.000000   0.000000   0.000000   0.000000   0.000000   0.000000
    145       0.000000   0.000000   0.000000   0.000000   0.000000   0.000000
    146       0.000000   0.000000   0.000000   0.000000   0.000000   0.000000
                  6          7          8          9         10         11    
      0      -0.047312   0.077176  -0.072715   0.022380  -0.049040   0.034907
      1      -0.032100  -0.038997  -0.038082   0.000789  -0.040830  -0.001888
      2      -0.111138   0.004974   0.009142  -0.088003   0.025582   0.028478
      3      -0.014808   0.064231  -0.120102   0.072927  -0.011024   0.024303
      4      -0.045684  -0.076312  -0.072618   0.031978   0.004567  -0.001279
      5      -0.059958   0.052656   0.023041  -0.094043  -0.013701   0.018106
      6      -0.005442   0.066876  -0.124972   0.084616  -0.016173   0.019064
      7      -0.043633  -0.111414  -0.122775   0.066177   0.075800   0.001927
      8      -0.014183   0.066142   0.000034  -0.035608  -0.039755  -0.009250
      9      -0.024164   0.082599  -0.083190   0.045938  -0.059555   0.024546
     10      -0.032677  -0.110060  -0.139130   0.068684   0.103604   0.005478
     11      -0.006793   0.033068  -0.037275   0.031281  -0.028219  -0.028647
     12      -0.053792   0.095204  -0.036670  -0.004367  -0.097436   0.034960
     13      -0.025486  -0.072183  -0.103907   0.035683   0.059798   0.007095
     14      -0.043361  -0.014818  -0.053611   0.041244   0.008403  -0.022550
     15      -0.065402   0.092618  -0.031767  -0.016187  -0.092870   0.040358
     16      -0.024510  -0.036304  -0.053109   0.001897  -0.011825   0.003499
     17      -0.098514  -0.030455  -0.031868  -0.017582   0.035824   0.005491
     18      -0.059694   0.075234  -0.066594   0.011409  -0.044415   0.040539
     19      -0.033697  -0.001102   0.015709  -0.039684  -0.118112  -0.006031
     20      -0.148354  -0.009393   0.031354  -0.144144   0.048125   0.062440
     21       0.002483   0.053146  -0.151363   0.101818   0.021561   0.020267
     22      -0.058058  -0.077666  -0.059941   0.029630  -0.017215  -0.004384
     23      -0.063390   0.077357   0.051900  -0.144556  -0.021767   0.033730
     24      -0.086923   0.101083   0.002975  -0.054964  -0.121397   0.048503
     25      -0.016907  -0.004106  -0.024667  -0.024591  -0.048375   0.004554
     26      -0.128900  -0.073422  -0.046380  -0.009913   0.068179   0.010875
     27      -0.016730   0.084632  -0.086590   0.055117  -0.063301   0.020498
     28      -0.031869  -0.137842  -0.178994   0.095789   0.159262   0.007309
     29       0.029984   0.043400  -0.053803   0.076394  -0.047435  -0.048695
     30       0.058923   0.066554   0.010707  -0.065640   0.114679  -0.104664
     31       0.035309  -0.020683   0.035706  -0.001590  -0.036264  -0.098719
     32       0.354795  -0.022426  -0.087024  -0.070530  -0.024143   0.045342
     33       0.081367   0.036884   0.036632  -0.095032   0.074535  -0.120022
     34       0.037877  -0.002610   0.006780   0.016376  -0.012080  -0.087021
     35       0.220813   0.014359  -0.032977  -0.041629   0.029028   0.046099
     36       0.091314   0.085293  -0.006023  -0.069238   0.142769  -0.078719
     37       0.042925  -0.024643   0.014375   0.011612  -0.040617  -0.096901
     38       0.331078  -0.056132  -0.120575  -0.033095  -0.071392   0.015155
     39       0.009421   0.035953   0.045109  -0.044796   0.074366  -0.123621
     40       0.019574   0.073014  -0.007154   0.010295   0.092333  -0.064752
     41       0.089641  -0.016313  -0.010722   0.057460  -0.011514   0.032268
     42       0.201548   0.045494   0.018860  -0.172417   0.085932  -0.114029
     43       0.077721  -0.043982  -0.037407   0.053434  -0.073567  -0.091937
     44       0.191927   0.021563  -0.020563  -0.035166   0.040037   0.045802
     45       0.032839   0.003096   0.070908  -0.076587   0.029271  -0.137685
     46       0.023471   0.002022   0.034863  -0.003777  -0.003837  -0.090963
     47       0.242985   0.060619  -0.011979  -0.103464   0.095668   0.057141
     48      -0.089091   0.029110   0.067807   0.027576   0.070319  -0.132821
     49       0.019962   0.094242   0.093286   0.003512   0.167286  -0.108955
     50       0.107842  -0.020122  -0.039366   0.045646  -0.028989   0.044938
     51       0.042644   0.081444  -0.020584  -0.079022   0.113281  -0.084359
     52       0.015535   0.079999  -0.071711   0.011907   0.074394  -0.032967
     53       0.048085  -0.049417  -0.068550   0.095780  -0.086319   0.053556
     54      -0.073499   0.090695  -0.030315  -0.032938  -0.085796   0.053617
     55      -0.000369   0.021154   0.038105  -0.056748  -0.161405  -0.012267
     56      -0.220702  -0.031814   0.032247  -0.165436   0.077429   0.089246
     57       0.008889  -0.164784  -0.011743  -0.048679   0.000290   0.024812
     58       0.010917  -0.017697   0.046939  -0.019859  -0.144045  -0.045017
     59      -0.010722  -0.043924  -0.047338  -0.042426  -0.004548  -0.042178
     60       0.020561  -0.117978  -0.005298  -0.089391   0.004183   0.054352
     61       0.003878   0.004517   0.048150  -0.036872  -0.171287  -0.039620
     62      -0.019201  -0.010890  -0.046169  -0.066230  -0.047226  -0.035660
     63      -0.003283  -0.213440  -0.043979  -0.066674  -0.014144  -0.027722
     64      -0.001017  -0.017110   0.038590  -0.031733  -0.179053  -0.061304
     65      -0.004342  -0.076326  -0.058106  -0.039580   0.029055  -0.056510
     66       0.038529  -0.078012   0.051357   0.028574   0.031526   0.086330
     67      -0.058791  -0.085421   0.051402   0.007429  -0.081334  -0.081757
     68       0.026719  -0.080430  -0.110139  -0.106817  -0.057378  -0.079867
     69       0.024617  -0.106720   0.033884   0.010211   0.018409   0.070663
     70      -0.004571  -0.072714   0.040779   0.012072  -0.095012  -0.069533
     71       0.014573  -0.064520  -0.093248  -0.094982  -0.042146  -0.074080
     72       0.030762  -0.081390   0.078460   0.072267   0.027014   0.126629
     73      -0.091891  -0.062165   0.052108  -0.025490  -0.049231  -0.122471
     74       0.004541  -0.068447  -0.098412  -0.107367  -0.040820  -0.086392
     75      -0.028523   0.055267  -0.103461   0.049700  -0.000863   0.031218
     76      -0.083365   0.007050   0.034512  -0.057285  -0.138376   0.001917
     77      -0.008819   0.001257   0.033706  -0.155305   0.030790   0.050815
     78       0.125726   0.065563   0.013386  -0.099536   0.112840  -0.092506
     79       0.053090  -0.061187   0.031570  -0.006157  -0.093737  -0.124289
     80       0.458525  -0.013486  -0.081512  -0.124643  -0.012722   0.071299
     81       0.016630   0.056907  -0.160529   0.123334   0.013115   0.010621
     82      -0.052469  -0.139242  -0.148503   0.090281   0.109326   0.001412
     83       0.017431   0.101085   0.010682  -0.041100  -0.067590  -0.015357
     84      -0.069114   0.106066  -0.005184  -0.032939  -0.129354   0.038543
     85      -0.018767  -0.069591  -0.115785   0.035766   0.080510   0.010922
     86      -0.031095  -0.042435  -0.084181   0.095959   0.017165  -0.039303
     87       0.028770  -0.012025   0.109052  -0.047320   0.032867  -0.165249
     88       0.009892   0.110845  -0.067790   0.008150   0.121025  -0.028025
     89       0.004108   0.000390   0.127619   0.115691   0.069866  -0.028801
     90       0.012121  -0.051567   0.177623  -0.020577   0.004629  -0.206842
     91       0.003938   0.101674  -0.003111   0.011694   0.135431  -0.060036
     92       0.009853   0.023664   0.179804   0.094956   0.126217  -0.046837
     93       0.088413  -0.011269   0.079169  -0.102429   0.022146  -0.149072
     94       0.033305   0.095433  -0.164340   0.002453   0.057682   0.013089
     95      -0.011193   0.004007   0.156107   0.126124   0.087052  -0.041534
     96       0.001058  -0.182566  -0.010068  -0.019226   0.000521   0.015667
     97       0.038340   0.045856   0.077771  -0.031790  -0.107048   0.023254
     98      -0.011576  -0.045961  -0.014048   0.043674   0.027967  -0.012245
     99      -0.002593  -0.204090  -0.034544  -0.063341  -0.003349  -0.004934
    100       0.069751   0.164408   0.102605  -0.093765  -0.167832   0.050901
    101      -0.011060  -0.037744   0.003816   0.083513   0.035391   0.001917
    102      -0.022278  -0.244786  -0.023159   0.031571  -0.002849  -0.023898
    103       0.030087   0.006691   0.073143  -0.007563  -0.073568   0.024318
    104      -0.027847  -0.126156  -0.023000   0.092038   0.101309  -0.006198
    105       0.027422  -0.097691   0.038732   0.007914   0.012932   0.085184
    106       0.035495   0.004928   0.084112   0.003001  -0.029006   0.060644
    107       0.006052   0.042531   0.006838   0.023529  -0.043146  -0.011257
    108       0.024234  -0.084179   0.055390   0.082343   0.004281   0.095060
    109      -0.000168  -0.103769   0.059262   0.094693   0.014667   0.030434
    110       0.007990   0.032941  -0.004787  -0.028769  -0.036955  -0.018189
    111       0.059862  -0.041346   0.056703  -0.083764   0.040783   0.138504
    112       0.044144   0.033227   0.085285  -0.020855  -0.058199   0.052730
    113       0.030264   0.116867   0.013048  -0.046314  -0.106442  -0.019943
    114       0.018637  -0.110916   0.037588   0.055931   0.002345   0.072478
    115       0.062209   0.065840   0.121235  -0.052469   0.030064   0.150250
    116      -0.006050   0.039613   0.030560   0.163453  -0.038823   0.007182
    117       0.022380  -0.117913   0.025106  -0.020262   0.009778   0.066501
    118       0.093376   0.146766   0.128208  -0.133209  -0.006560   0.153007
    119      -0.009371   0.042330   0.038755   0.216516  -0.042974   0.011113
    120      -0.005102  -0.161116   0.021439   0.145861  -0.025701   0.023304
    121       0.054622   0.045782   0.126353  -0.032292   0.057008   0.168242
    122      -0.026268  -0.012857   0.039374   0.221937   0.017015   0.039774
    123      -0.009039  -0.007887   0.122430  -0.012627   0.044497  -0.172873
    124      -0.018850   0.177881  -0.086033   0.008177   0.210336  -0.005731
    125      -0.058149  -0.018596   0.161102   0.183579   0.056232  -0.051914
    126       0.004756  -0.041385   0.156643  -0.015115   0.010769  -0.194643
    127      -0.025948   0.202595  -0.117299   0.007631   0.232604   0.013214
    128      -0.102978  -0.009351   0.232928   0.216659   0.101010  -0.084776
    129       0.002913   0.030077   0.070226  -0.036320   0.076938  -0.140494
    130      -0.017101   0.189721  -0.134010   0.006598   0.206613   0.018114
    131      -0.067942  -0.038765   0.131367   0.206715   0.013906  -0.044237
    132      -0.061474  -0.008922   0.149641   0.038695   0.054932  -0.189031
    133      -0.034348   0.190699  -0.020556   0.010137   0.257740  -0.033008
    134      -0.047642  -0.021338   0.142814   0.176220   0.044219  -0.043650
    135       0.035331  -0.050978   0.072684   0.083735   0.018813   0.130162
    136       0.054168   0.044796   0.141918  -0.030553   0.097986   0.211052
    137       0.011987   0.097174   0.028790   0.156354  -0.102381  -0.024468
[...]
  28:       232.40    0.000000  (  0.000000   0.000000   0.000000)
  29:       237.59    0.000000  (  0.000000   0.000000   0.000000)
  30:       260.49    0.000000  (  0.000000   0.000000   0.000000)
  31:       274.35    0.000000  (  0.000000   0.000000   0.000000)
  32:       278.64    0.000000  (  0.000000   0.000000   0.000000)
  33:       340.44    0.000000  (  0.000000   0.000000   0.000000)
  34:       358.55    0.000000  (  0.000000   0.000000   0.000000)
  35:       382.04    0.000000  (  0.000000   0.000000   0.000000)
  36:       394.98    0.000000  (  0.000000   0.000000   0.000000)
  37:       396.49    0.000000  (  0.000000   0.000000   0.000000)
  38:       416.79    0.000000  (  0.000000   0.000000   0.000000)
  39:       418.72    0.000000  (  0.000000   0.000000   0.000000)
  40:       430.10    0.000000  (  0.000000   0.000000   0.000000)
  41:       447.71    0.000000  (  0.000000   0.000000   0.000000)
  42:       478.29    0.000000  (  0.000000   0.000000   0.000000)
  43:       586.76    0.000000  (  0.000000   0.000000   0.000000)
  44:       625.99    0.000000  (  0.000000   0.000000   0.000000)
  45:       661.17    0.000000  (  0.000000   0.000000   0.000000)
  46:       735.12    0.000000  (  0.000000   0.000000   0.000000)
  47:       749.77    0.000000  (  0.000000   0.000000   0.000000)
  48:       766.27    0.000000  (  0.000000   0.000000   0.000000)
  49:       772.31    0.000000  (  0.000000   0.000000   0.000000)
  50:       821.38    0.000000  (  0.000000   0.000000   0.000000)
  51:       824.67    0.000000  (  0.000000   0.000000   0.000000)
  52:       831.51    0.000000  (  0.000000   0.000000   0.000000)
  53:       884.04    0.000000  (  0.000000   0.000000   0.000000)
  54:       898.30    0.000000  (  0.000000   0.000000   0.000000)
  55:       923.35    0.000000  (  0.000000   0.000000   0.000000)
  56:       923.96    0.000000  (  0.000000   0.000000   0.000000)
  57:       929.34    0.000000  (  0.000000   0.000000   0.000000)
  58:       934.44    0.000000  (  0.000000   0.000000   0.000000)
  59:       937.94    0.000000  (  0.000000   0.000000   0.000000)
  60:       938.98    0.000000  (  0.000000   0.000000   0.000000)
  61:       945.06    0.000000  (  0.000000   0.000000   0.000000)
  62:       974.54    0.000000  (  0.000000   0.000000   0.000000)
  63:       984.52    0.000000  (  0.000000   0.000000   0.000000)
  64:      1000.82    0.000000  (  0.000000   0.000000   0.000000)
  65:      1003.30    0.000000  (  0.000000   0.000000   0.000000)
  66:      1006.12    0.000000  (  0.000000   0.000000   0.000000)
  67:      1059.27    0.000000  (  0.000000   0.000000   0.000000)
  68:      1065.78    0.000000  (  0.000000   0.000000   0.000000)
  69:      1070.22    0.000000  (  0.000000   0.000000   0.000000)
  70:      1096.00    0.000000  (  0.000000   0.000000   0.000000)
  71:      1101.10    0.000000  (  0.000000   0.000000   0.000000)
  72:      1111.41    0.000000  (  0.000000   0.000000   0.000000)
  73:      1122.11    0.000000  (  0.000000   0.000000   0.000000)
  74:      1123.89    0.000000  (  0.000000   0.000000   0.000000)
  75:      1145.06    0.000000  (  0.000000   0.000000   0.000000)
  76:      1151.63    0.000000  (  0.000000   0.000000   0.000000)
  77:      1174.39    0.000000  (  0.000000   0.000000   0.000000)
  78:      1178.48    0.000000  (  0.000000   0.000000   0.000000)
  79:      1197.74    0.000000  (  0.000000   0.000000   0.000000)
  80:      1201.54    0.000000  (  0.000000   0.000000   0.000000)
  81:      1207.98    0.000000  (  0.000000   0.000000   0.000000)
  82:      1229.32    0.000000  (  0.000000   0.000000   0.000000)
  83:      1239.80    0.000000  (  0.000000   0.000000   0.000000)
  84:      1269.66    0.000000  (  0.000000   0.000000   0.000000)
  85:      1276.08    0.000000  (  0.000000   0.000000   0.000000)
  86:      1277.12    0.000000  (  0.000000   0.000000   0.000000)
  87:      1277.73    0.000000  (  0.000000   0.000000   0.000000)
  88:      1278.73    0.000000  (  0.000000   0.000000   0.000000)
  89:      1290.14    0.000000  (  0.000000   0.000000   0.000000)
  90:      1292.56    0.000000  (  0.000000   0.000000   0.000000)
  91:      1302.43    0.000000  (  0.000000   0.000000   0.000000)
  92:      1349.58    0.000000  (  0.000000   0.000000   0.000000)
  93:      1352.35    0.000000  (  0.000000   0.000000   0.000000)
  94:      1356.12    0.000000  (  0.000000   0.000000   0.000000)
  95:      1377.54    0.000000  (  0.000000   0.000000   0.000000)
  96:      1380.94    0.000000  (  0.000000   0.000000   0.000000)
  97:      1426.65    0.000000  (  0.000000   0.000000   0.000000)
  98:      1427.41    0.000000  (  0.000000   0.000000   0.000000)
  99:      1427.77    0.000000  (  0.000000   0.000000   0.000000)
 100:      1449.52    0.000000  (  0.000000   0.000000   0.000000)
 101:      1490.72    0.000000  (  0.000000   0.000000   0.000000)
 102:      1501.52    0.000000  (  0.000000   0.000000   0.000000)
 103:      1502.43    0.000000  (  0.000000   0.000000   0.000000)
 104:      1505.47    0.000000  (  0.000000   0.000000   0.000000)
 105:      1506.01    0.000000  (  0.000000   0.000000   0.000000)
 106:      1507.06    0.000000  (  0.000000   0.000000   0.000000)
 107:      1507.96    0.000000  (  0.000000   0.000000   0.000000)
 108:      1508.66    0.000000  (  0.000000   0.000000   0.000000)
 109:      1512.49    0.000000  (  0.000000   0.000000   0.000000)
 110:      1512.78    0.000000  (  0.000000   0.000000   0.000000)
 111:      1546.55    0.000000  (  0.000000   0.000000   0.000000)
 112:      1550.97    0.000000  (  0.000000   0.000000   0.000000)
 113:      1559.44    0.000000  (  0.000000   0.000000   0.000000)
 114:      1563.21    0.000000  (  0.000000   0.000000   0.000000)
 115:      1570.13    0.000000  (  0.000000   0.000000   0.000000)
 116:      1662.68    0.000000  (  0.000000   0.000000   0.000000)
 117:      2844.48    0.000000  (  0.000000   0.000000   0.000000)
 118:      2846.89    0.000000  (  0.000000   0.000000   0.000000)
 119:      2892.46    0.000000  (  0.000000   0.000000   0.000000)
 120:      2935.54    0.000000  (  0.000000   0.000000   0.000000)
 121:      2936.41    0.000000  (  0.000000   0.000000   0.000000)
 122:      2938.59    0.000000  (  0.000000   0.000000   0.000000)
 123:      2940.83    0.000000  (  0.000000   0.000000   0.000000)
 124:      2953.57    0.000000  (  0.000000   0.000000   0.000000)
 125:      2961.99    0.000000  (  0.000000   0.000000   0.000000)
 126:      2962.94    0.000000  (  0.000000   0.000000   0.000000)
 127:      2969.16    0.000000  (  0.000000   0.000000   0.000000)
 128:      2973.29    0.000000  (  0.000000   0.000000   0.000000)
 129:      2975.10    0.000000  (  0.000000   0.000000   0.000000)
 130:      2979.47    0.000000  (  0.000000   0.000000   0.000000)
 131:      2980.56    0.000000  (  0.000000   0.000000   0.000000)
 132:      2984.11    0.000000  (  0.000000   0.000000   0.000000)
 133:      2985.92    0.000000  (  0.000000   0.000000   0.000000)
 134:      2996.09    0.000000  (  0.000000   0.000000   0.000000)
 135:      2998.65    0.000000  (  0.000000   0.000000   0.000000)
 136:      2999.43    0.000000  (  0.000000   0.000000   0.000000)
 137:      3054.46    0.000000  (  0.000000   0.000000   0.000000)
 138:      3059.90    0.000000  (  0.000000   0.000000   0.000000)
 139:      3065.51    0.000000  (  0.000000   0.000000   0.000000)
 140:      3072.37    0.000000  (  0.000000   0.000000   0.000000)
 141:      3078.14    0.000000  (  0.000000   0.000000   0.000000)
 142:      3349.04    0.000000  (  0.000000   0.000000   0.000000)
 143:      3373.80    0.000000  (  0.000000   0.000000   0.000000)
 144:      3413.16    0.000000  (  0.000000   0.000000   0.000000)
 145:      3422.35    0.000000  (  0.000000   0.000000   0.000000)
 146:      3591.04    0.000000  (  0.000000   0.000000   0.000000)

The first frequency considered to be a vibration is 7
The total number of vibrations considered is 140


--------------------------
THERMOCHEMISTRY AT 298.15K
--------------------------

Temperature         ... 298.15 K
Pressure            ... 1.00 atm
Total Mass          ... 270.42 AMU

Throughout the following assumptions are being made:
  (1) The electronic state is orbitally nondegenerate
  (2) There are no thermally accessible electronically excited states
  (3) Hindered rotations indicated by low frequency modes are not
      treated as such but are treated as vibrations and this may
      cause some error
  (4) All equations used are the standard statistical mechanics
      equations for an ideal gas
  (5) All vibrations are strictly harmonic

freq.      26.11  E(vib)   ...       0.56 
freq.      34.16  E(vib)   ...       0.55 
freq.      37.64  E(vib)   ...       0.54 
freq.      38.55  E(vib)   ...       0.54 
freq.      43.21  E(vib)   ...       0.53 
freq.      49.43  E(vib)   ...       0.52 
freq.      55.46  E(vib)   ...       0.52 
freq.      62.41  E(vib)   ...       0.51 
freq.      71.69  E(vib)   ...       0.50 
freq.      77.26  E(vib)   ...       0.49 
freq.      83.21  E(vib)   ...       0.48 
freq.      95.60  E(vib)   ...       0.47 
freq.     105.84  E(vib)   ...       0.45 
freq.     120.67  E(vib)   ...       0.44 
freq.     124.14  E(vib)   ...       0.43 
freq.     138.29  E(vib)   ...       0.42 
freq.     152.99  E(vib)   ...       0.40 
freq.     160.45  E(vib)   ...       0.39 
freq.     193.03  E(vib)   ...       0.36 
freq.     201.34  E(vib)   ...       0.35 
freq.     215.44  E(vib)   ...       0.34 
freq.     232.40  E(vib)   ...       0.32 
freq.     237.59  E(vib)   ...       0.32 
freq.     260.49  E(vib)   ...       0.30 
freq.     274.35  E(vib)   ...       0.28 
freq.     278.64  E(vib)   ...       0.28 
freq.     340.44  E(vib)   ...       0.23 
freq.     358.55  E(vib)   ...       0.22 
freq.     382.04  E(vib)   ...       0.21 
freq.     394.98  E(vib)   ...       0.20 
freq.     396.49  E(vib)   ...       0.20 
freq.     416.79  E(vib)   ...       0.18 
freq.     418.72  E(vib)   ...       0.18 
freq.     430.10  E(vib)   ...       0.18 
freq.     447.71  E(vib)   ...       0.17 
freq.     478.29  E(vib)   ...       0.15 
freq.     586.76  E(vib)   ...       0.11 
freq.     625.99  E(vib)   ...       0.09 
freq.     661.17  E(vib)   ...       0.08 
freq.     735.12  E(vib)   ...       0.06 
freq.     749.77  E(vib)   ...       0.06 
freq.     766.27  E(vib)   ...       0.06 
freq.     772.31  E(vib)   ...       0.05 
freq.     821.38  E(vib)   ...       0.05 
freq.     824.67  E(vib)   ...       0.04 
freq.     831.51  E(vib)   ...       0.04 
freq.     884.04  E(vib)   ...       0.04 
freq.     898.30  E(vib)   ...       0.03 
freq.     923.35  E(vib)   ...       0.03 
freq.     923.96  E(vib)   ...       0.03 
freq.     929.34  E(vib)   ...       0.03 
freq.     934.44  E(vib)   ...       0.03 
freq.     937.94  E(vib)   ...       0.03 
freq.     938.98  E(vib)   ...       0.03 
freq.     945.06  E(vib)   ...       0.03 
freq.     974.54  E(vib)   ...       0.03 
freq.     984.52  E(vib)   ...       0.02 
freq.    1000.82  E(vib)   ...       0.02 
freq.    1003.30  E(vib)   ...       0.02 
freq.    1006.12  E(vib)   ...       0.02 
freq.    1059.27  E(vib)   ...       0.02 
freq.    1065.78  E(vib)   ...       0.02 
freq.    1070.22  E(vib)   ...       0.02 
freq.    1096.00  E(vib)   ...       0.02 
freq.    1101.10  E(vib)   ...       0.02 
freq.    1111.41  E(vib)   ...       0.01 
freq.    1122.11  E(vib)   ...       0.01 
freq.    1123.89  E(vib)   ...       0.01 
freq.    1145.06  E(vib)   ...       0.01 
freq.    1151.63  E(vib)   ...       0.01 
freq.    1174.39  E(vib)   ...       0.01 
freq.    1178.48  E(vib)   ...       0.01 
freq.    1197.74  E(vib)   ...       0.01 
freq.    1201.54  E(vib)   ...       0.01 
freq.    1207.98  E(vib)   ...       0.01 
freq.    1229.32  E(vib)   ...       0.01 
freq.    1239.80  E(vib)   ...       0.01 
freq.    1269.66  E(vib)   ...       0.01 
freq.    1276.08  E(vib)   ...       0.01 
freq.    1277.12  E(vib)   ...       0.01 
freq.    1277.73  E(vib)   ...       0.01 
freq.    1278.73  E(vib)   ...       0.01 
freq.    1290.14  E(vib)   ...       0.01 
freq.    1292.56  E(vib)   ...       0.01 
freq.    1302.43  E(vib)   ...       0.01 
freq.    1349.58  E(vib)   ...       0.01 
freq.    1352.35  E(vib)   ...       0.01 
freq.    1356.12  E(vib)   ...       0.01 
freq.    1377.54  E(vib)   ...       0.01 
freq.    1380.94  E(vib)   ...       0.01 
freq.    1426.65  E(vib)   ...       0.00 
freq.    1427.41  E(vib)   ...       0.00 
freq.    1427.77  E(vib)   ...       0.00 
freq.    1449.52  E(vib)   ...       0.00 
freq.    1490.72  E(vib)   ...       0.00 
freq.    1501.52  E(vib)   ...       0.00 
freq.    1502.43  E(vib)   ...       0.00 
freq.    1505.47  E(vib)   ...       0.00 
freq.    1506.01  E(vib)   ...       0.00 
freq.    1507.06  E(vib)   ...       0.00 
freq.    1507.96  E(vib)   ...       0.00 
freq.    1508.66  E(vib)   ...       0.00 
freq.    1512.49  E(vib)   ...       0.00 
freq.    1512.78  E(vib)   ...       0.00 
freq.    1546.55  E(vib)   ...       0.00 
freq.    1550.97  E(vib)   ...       0.00 
freq.    1559.44  E(vib)   ...       0.00 
freq.    1563.21  E(vib)   ...       0.00 
freq.    1570.13  E(vib)   ...       0.00 
freq.    1662.68  E(vib)   ...       0.00 
freq.    2844.48  E(vib)   ...       0.00 
freq.    2846.89  E(vib)   ...       0.00 
freq.    2892.46  E(vib)   ...       0.00 
freq.    2935.54  E(vib)   ...       0.00 
freq.    2936.41  E(vib)   ...       0.00 
freq.    2938.59  E(vib)   ...       0.00 
freq.    2940.83  E(vib)   ...       0.00 
freq.    2953.57  E(vib)   ...       0.00 
freq.    2961.99  E(vib)   ...       0.00 
freq.    2962.94  E(vib)   ...       0.00 
freq.    2969.16  E(vib)   ...       0.00 
freq.    2973.29  E(vib)   ...       0.00 
freq.    2975.10  E(vib)   ...       0.00 
freq.    2979.47  E(vib)   ...       0.00 
freq.    2980.56  E(vib)   ...       0.00 
freq.    2984.11  E(vib)   ...       0.00 
freq.    2985.92  E(vib)   ...       0.00 
freq.    2996.09  E(vib)   ...       0.00 
freq.    2998.65  E(vib)   ...       0.00 
freq.    2999.43  E(vib)   ...       0.00 
freq.    3054.46  E(vib)   ...       0.00 
freq.    3059.90  E(vib)   ...       0.00 
freq.    3065.51  E(vib)   ...       0.00 
freq.    3072.37  E(vib)   ...       0.00 
freq.    3078.14  E(vib)   ...       0.00 
freq.    3349.04  E(vib)   ...       0.00 
freq.    3373.80  E(vib)   ...       0.00 
freq.    3413.16  E(vib)   ...       0.00 
freq.    3422.35  E(vib)   ...       0.00 
freq.    3591.04  E(vib)   ...       0.00 

------------
INNER ENERGY
------------

The inner energy is: U= E(el) + E(ZPE) + E(vib) + E(rot) + E(trans)
    E(el)   - is the total energy from the electronic structure calculation
              = E(kin-el) + E(nuc-el) + E(el-el) + E(nuc-nuc)
    E(ZPE)  - the the zero temperature vibrational energy from the frequency calculation
    E(vib)  - the the finite temperature correction to E(ZPE) due to population
              of excited vibrational states
    E(rot)  - is the rotational thermal energy
    E(trans)- is the translational thermal energy

Summary of contributions to the inner energy U:
Electronic energy                ...    -61.36458612 Eh
Zero point energy                ...      0.42470865 Eh     266.51 kcal/mol
Thermal vibrational correction   ...      0.02327302 Eh      14.60 kcal/mol
Thermal rotational correction    ...      0.00141627 Eh       0.89 kcal/mol
Thermal translational correction ...      0.00141627 Eh       0.89 kcal/mol
-----------------------------------------------------------------------
Total thermal energy                    -60.91377190 Eh


Summary of corrections to the electronic energy:
(perhaps to be used in another calculation)
Total thermal correction                  0.02610557 Eh      16.38 kcal/mol
Non-thermal (ZPE) correction              0.42470865 Eh     266.51 kcal/mol
-----------------------------------------------------------------------
Total correction                          0.45081422 Eh     282.89 kcal/mol


--------
ENTHALPY
--------

The enthalpy is H = U + kB*T
                kB is Boltzmann's constant
Total free energy                 ...    -60.91377190 Eh 
Thermal Enthalpy correction       ...      0.00094421 Eh       0.59 kcal/mol
-----------------------------------------------------------------------
Total Enthalpy                    ...    -60.91282769 Eh


Note: Only C1 symmetry has been detected, increase convergence thresholds 
      if your molecule has a higher symmetry. Symmetry factor of 1.0 is   
      used for the rotational entropy correction. 
 

Note: Rotational entropy computed according to Herzberg 
Infrared and Raman Spectra, Chapter V,1, Van Nostrand Reinhold, 1945 
Point Group:  C1, Symmetry Number:   1  
Rotational constants in cm-1:     0.013479     0.006715     0.005679 

Vibrational entropy computed according to the QRRHO of S. Grimme
Chem.Eur.J. 2012 18 9955


-------
ENTROPY
-------

The entropy contributions are T*S = T*(S(el)+S(vib)+S(rot)+S(trans))
     S(el)   - electronic entropy
     S(vib)  - vibrational entropy
     S(rot)  - rotational entropy
     S(trans)- translational entropy
The entropies will be listed as mutliplied by the temperature to get
units of energy

Electronic entropy                ...      0.00000000 Eh      0.00 kcal/mol
Vibrational entropy               ...      0.04298607 Eh     26.97 kcal/mol
Rotational entropy                ...      0.01634712 Eh     10.26 kcal/mol
Translational entropy             ...      0.02028014 Eh     12.73 kcal/mol
-----------------------------------------------------------------------
Final entropy term                ...      0.07961334 Eh     49.96 kcal/mol

In case the symmetry of your molecule has not been determined correctly
or in case you have a reason to use a different symmetry number we print 
out the resulting rotational entropy values for sn=1,12 :
 --------------------------------------------------------
|  sn= 1 | S(rot)=       0.01634712 Eh     10.26 kcal/mol|
|  sn= 2 | S(rot)=       0.01569267 Eh      9.85 kcal/mol|
|  sn= 3 | S(rot)=       0.01530984 Eh      9.61 kcal/mol|
|  sn= 4 | S(rot)=       0.01503821 Eh      9.44 kcal/mol|
|  sn= 5 | S(rot)=       0.01482752 Eh      9.30 kcal/mol|
|  sn= 6 | S(rot)=       0.01465538 Eh      9.20 kcal/mol|
|  sn= 7 | S(rot)=       0.01450983 Eh      9.11 kcal/mol|
|  sn= 8 | S(rot)=       0.01438376 Eh      9.03 kcal/mol|
|  sn= 9 | S(rot)=       0.01427255 Eh      8.96 kcal/mol|
|  sn=10 | S(rot)=       0.01417307 Eh      8.89 kcal/mol|
|  sn=11 | S(rot)=       0.01408308 Eh      8.84 kcal/mol|
|  sn=12 | S(rot)=       0.01400092 Eh      8.79 kcal/mol|
 --------------------------------------------------------


-------------------
GIBBS FREE ENERGY
-------------------

The Gibbs free energy is G = H - T*S

Total enthalpy                    ...    -60.91282769 Eh 
Total entropy correction          ...     -0.07961334 Eh    -49.96 kcal/mol
-----------------------------------------------------------------------
Final Gibbs free energy         ...    -60.99244103 Eh

For completeness - the Gibbs free energy minus the electronic energy
G-E(el)                           ...      0.37214509 Eh    233.52 kcal/mol


Total Time for Numerical Frequencies  :       161.490 sec
Time for Reference State(s)           :         0.191 sec
Time for Displacements                :       141.009 sec

Timings for individual modules:

Sum of individual times         ...        0.398 sec (=   0.007 min)
XTB module                      ...        0.398 sec (=   0.007 min) 100.0 %
                             ****ORCA TERMINATED NORMALLY****
TOTAL RUN TIME: 0 days 0 hours 2 minutes 42 seconds 380 msec
(SLURM) EXECUTION TIME: 162.588438443 seconds.
