(SLURM) JOB ID:         273

                                 *****************
                                 * O   R   C   A *
                                 *****************

           --- An Ab Initio, DFT and Semiempirical electronic structure package ---

                  #######################################################
                  #                        -***-                        #
                  #          Department of theory and spectroscopy      #
                  #               Directorship: Frank Neese             #
                  #        Max Planck Institute fuer Kohlenforschung    #
                  #                Kaiser Wilhelm Platz 1               #
                  #                 D-45470 Muelheim/Ruhr               #
                  #                      Germany                        #
                  #                                                     #
                  #                  All rights reserved                #
                  #                        -***-                        #
                  #######################################################


                         Program Version 4.2.1 -  RELEASE  -


 With contributions from (in alphabetic order):
   Daniel Aravena         : Magnetic Suceptibility
   Michael Atanasov       : Ab Initio Ligand Field Theory (pilot matlab implementation)
   Alexander A. Auer      : GIAO ZORA, VPT2
   Ute Becker             : Parallelization
   Giovanni Bistoni       : ED, misc. LED, open-shell LED, HFLD
   Martin Brehm           : Molecular dynamics
   Dmytro Bykov           : SCF Hessian
   Vijay G. Chilkuri      : MRCI spin determinant printing, contributions to CSF-ICE
   Dipayan Datta          : RHF DLPNO-CCSD density
   Achintya Kumar Dutta   : EOM-CC, STEOM-CC
   Dmitry Ganyushin       : Spin-Orbit,Spin-Spin,Magnetic field MRCI
   Miquel Garcia          : C-PCM Hessian, Gaussian charge scheme
   Yang Guo               : DLPNO-NEVPT2, CIM, IAO-localization
   Andreas Hansen         : Spin unrestricted coupled pair/coupled cluster methods
   Benjamin Helmich-Paris : CASSCF linear response (MC-RPA)
   Lee Huntington         : MR-EOM, pCC
   Robert Izsak           : Overlap fitted RIJCOSX, COSX-SCS-MP3, EOM
   Christian Kollmar      : KDIIS, OOCD, Brueckner-CCSD(T), CCSD density
   Simone Kossmann        : Meta GGA functionals, TD-DFT gradient, OOMP2, MP2 Hessian
   Martin Krupicka        : AUTO-CI
   Lucas Lang             : DCDCAS
   Dagmar Lenk            : GEPOL surface, SMD
   Dimitrios Liakos       : Extrapolation schemes; Compound Job, initial MDCI parallelization
   Dimitrios Manganas     : Further ROCIS development; embedding schemes
   Dimitrios Pantazis     : SARC Basis sets
   Taras Petrenko         : DFT Hessian,TD-DFT gradient, ASA, ECA, R-Raman, ABS, FL, XAS/XES, NRVS
   Peter Pinski           : DLPNO-MP2, DLPNO-MP2 Gradient
   Christoph Reimann      : Effective Core Potentials
   Marius Retegan         : Local ZFS, SOC
   Christoph Riplinger    : Optimizer, TS searches, QM/MM, DLPNO-CCSD(T), (RO)-DLPNO pert. Triples
   Tobias Risthaus        : Range-separated hybrids, TD-DFT gradient, RPA, STAB
   Michael Roemelt        : Original ROCIS implementation
   Masaaki Saitow         : Open-shell DLPNO-CCSD energy and density
   Barbara Sandhoefer     : DKH picture change effects
   Avijit Sen             : IP-ROCIS
   Kantharuban Sivalingam : CASSCF convergence, NEVPT2, FIC-MRCI
   Bernardo de Souza      : ESD, SOC TD-DFT
   Georgi Stoychev        : AutoAux, RI-MP2 NMR
   Willem Van den Heuvel  : Paramagnetic NMR
   Boris Wezisla          : Elementary symmetry handling
   Frank Wennmohs         : Technical directorship


 We gratefully acknowledge several colleagues who have allowed us to
 interface, adapt or use parts of their codes:
   Stefan Grimme, W. Hujo, H. Kruse,             : VdW corrections, initial TS optimization,
                  C. Bannwarth                     DFT functionals, gCP, sTDA/sTD-DF
   Ed Valeev, F. Pavosevic, A. Kumar             : LibInt (2-el integral package), F12 methods
   Garnet Chan, S. Sharma, J. Yang, R. Olivares  : DMRG
   Ulf Ekstrom                                   : XCFun DFT Library
   Mihaly Kallay                                 : mrcc  (arbitrary order and MRCC methods)
   Andreas Klamt, Michael Diedenhofen            : otool_cosmo (COSMO solvation model)
   Jiri Pittner, Ondrej Demel                    : Mk-CCSD
   Frank Weinhold                                : gennbo (NPA and NBO analysis)
   Christopher J. Cramer and Donald G. Truhlar   : smd solvation model
   Lars Goerigk                                  : TD-DFT with DH, B97 family of functionals
   V. Asgeirsson, H. Jonsson                     : NEB implementation
   FAccTs GmbH                                   : IRC, NEB, NEB-TS, Multilevel, MM, QM/MM, CI optimization
   S Lehtola, MJT Oliveira, MAL Marques          : LibXC Library


 Your calculation uses the libint2 library for the computation of 2-el integrals
 For citations please refer to: http://libint.valeyev.net

 Your ORCA version has been built with support for libXC version: 4.2.3
 For citations please refer to: https://tddft.org/programs/libxc/

 This ORCA versions uses:
   CBLAS   interface :  Fast vector & matrix operations
   LAPACKE interface :  Fast linear algebra routines
   SCALAPACK package :  Parallel linear algebra routines




***************************************
The coordinates will be read from file: init.xyz
***************************************


Your calculation utilizes the SMD solvation module
Please cite in your paper:
A.V. Marenich, C.J. Cramer, D.G. Truhlar J. Phys. Chem. B, 113, (2009), 6378 

Your calculation utilizes the semiempirical GFN2-xTB method
Please cite in your paper:
C. Bannwarth, Ehlert S., S. Grimme,  J. Chem. Theory Comput., 15, (2019), 1652.
   

----- Orbital basis set information -----
Your calculation utilizes the basis: def2-SVP
   F. Weigend and R. Ahlrichs, Phys. Chem. Chem. Phys. 7, 3297 (2005).

================================================================================
                                        WARNINGS
                       Please study these warnings very carefully!
================================================================================

WARNING: Gradients needed for Numerical Frequencies
  ===> : Setting RunTyp to EnGrad

WARNING: The environment variable RSH_COMMAND is not set!
  ===> : All Displacements for the Numerical Hessian calculation
         will be started on localhost

WARNING: Found dipole moment calculation with XTB calculation
  ===> : Switching off dipole moment calculation


INFO   : the flag for use of LIBINT has been found!

================================================================================
                                       INPUT FILE
================================================================================
NAME = /tmp/slurm-scratch/freq.273/freq.inp
|  1> ! XTB2 NumFreq
|  2> %maxcore 1450
|  3> 
|  4> * xyzfile 0 1 init.xyz
|  5> 
|  6> %cpcm
|  7>  smd true
|  8>  smdsolvent "ch2cl2"
|  9> end
| 10> %pal nprocs 8 end
| 11> 
| 12>                          ****END OF INPUT****
================================================================================

                     *******************************
                     * Energy+Gradient Calculation *
                     *******************************

      -----------------------------------------------------------      
     |                   =====================                   |     
     |                           x T B                           |     
     |                   =====================                   |     
     |                         S. Grimme                         |     
     |          Mulliken Center for Theoretical Chemistry        |     
     |                    University of Bonn                     |     
      -----------------------------------------------------------      

   * xtb version 6.3.0 (preview) compiled by 'ehlert@majestix' on 2020-01-15

   This program is distributed in the hope that it will be useful,
   but WITHOUT ANY WARRANTY; without even the implied warranty of
   MERCHANTABILITY or FITNESS FOR A PARTICULAR PURPOSE.
   
   FOR NON-COMMERCIAL, ACADEMIA USE ONLY.
   
   Cite this work as:
   * S. Grimme, C. Bannwarth, P. Shushkov, J. Chem. Theory Comput., 2017,
     13, 1989-2009. DOI: 10.1021/acs.jctc.7b00118
   * C. Bannwarth, S. Ehlert and S. Grimme., J. Chem. Theory Comput., 2019,
     15, 1652-1671. DOI: 10.1021/acs.jctc.8b01176
   * P. Pracht, E. Caldeweyher, S. Ehlert, S. Grimme, ChemRxiv, 2019, preprint.
     DOI: 10.26434/chemrxiv.8326202.v1
   * S. Grimme, S. Spicher unpublished
   
   for DFT-D4:
   * E. Caldeweyher, C. Bannwarth and S. Grimme, J. Chem. Phys., 2017,
     147, 034112. DOI: 10.1063/1.4993215
   * E. Caldeweyher, S. Ehlert, A. Hansen, H. Neugebauer, S. Spicher,
     C. Bannwarth and S. Grimme, J. Chem. Phys., 2019, 150, 154122.
     DOI: 10.1063/1.5090222
   
   for sTDA-xTB:
   * S. Grimme and C. Bannwarth, J. Chem. Phys., 2016, 145, 054103.
     DOI: 10.1063/1.4959605
   
   in the mass-spec context:
   * V. Asgeirsson, C. Bauer and S. Grimme, Chem. Sci., 2017, 8, 4879.
     DOI: 10.1039/c7sc00601b
   
   for metadynamics refer to:
   * S. Grimme, J. Chem. Theory Comput., 2019, 155, 2847-2862
     DOI: 10.1021/acs.jctc.9b00143
   
   with help from (in alphabetical order)
   C. Bannwarth, F. Bohle, G. Brandenburg, E. Caldeweyher, M. Checinski,
   S. Dohm, S. Ehlert, S. Ehrlich, F. März, H. Neugebauer, J. Pisarek,
   P. Pracht, P. Shushkov, and S. Spicher.
   
 * started run on 2020/11/01 at 13:59:31.789     

           -------------------------------------------------
          |                Calculation Setup                |
           -------------------------------------------------

          program call               : /opt/orca/otool_xtb /tmp/slurm-scratch/freq.273/freq_XTB.xyz --grad -c 0 -u 0 -P 8 --namespace /tmp/slurm-scratch/freq.273/freq --gbsa CH2Cl2
          hostname                   : headnode-pbs
          calculation namespace      : /tmp/slurm-scratch/freq.273/freq
          coordinate file            : /tmp/slurm-scratch/freq.273/freq_XTB.xyz
          omp threads                :                     8
          number of atoms            :                    36
          number of electrons        :                    88
          charge                     :                     0
          spin                       :                   0.0
          first test random number   :      0.38770862433837


molecular fragmentation (1/2 indicates fragments):
111111111111211111121222211111111111
# atoms in fragment 1/2:    30     6
 fragment masses (1/2) :      179.26       36.03
CMA distance (Bohr)    :   5.265
constraining FC (au)   :  0.0500

########################################################################
# WARNING! Please study the warnings concerning your input carefully
#  - Process number higher than OMP_NUM_THREADS, I hope you know what you are doing.
########################################################################

           ------------------------------------------------- 
          |                 G F N 2 - x T B                 |
          | Geometry, Frequencies, Noncovalent interactions |
          |            JCTC 2019 parametrisation            |
           ------------------------------------------------- 
             k(s)              :                1.8500
             k(p)              :                2.2300
             k(d)              :                2.2300
             k(f)              :                2.0000
             kEN (H0ij)        :               -2.0000
             D4 a1             :                0.5200
             D4 a2             :                5.0000
             D4 s6             :                1.0000
             D4 s8             :                2.7000
             D4 s9             :                5.0000
             alphaj            :                2.0000

  Z AO/shell   Hii/eV     exponent
  1     Wed Apr 25 08:07:45 CEST 2018   EN: 2.200 GM2: 0.406  GM3: 0.0800  RAES: 1.40
     1s    -10.707211    1.230000
  6     Wed Apr 25 08:07:45 CEST 2018   EN: 2.550 GM2: 0.538  GM3: 0.1500  RAES: 3.00
     2s    -13.970922    2.096432
     2p    -10.063292    1.800000
  7     Wed Apr 25 08:07:45 CEST 2018   EN: 3.040 GM2: 0.461  GM3:-0.0640  RAES: 1.90
     2s    -16.686243    2.339881
     2p    -12.523956    2.014332
  8     Wed Apr 25 08:07:45 CEST 2018   EN: 3.440 GM2: 0.452  GM3:-0.0517  RAES: 1.80
     2s    -20.229985    2.439742
     2p    -15.503117    2.137023

 Solvent             : CH2Cl2
 Using internal parameter file: .param_gbsa2_CH2Cl2
 Gsolv ref. state (COSMO-RS): gsolv [1 M gas/solution]
 temperature (mdtemp)       :    298.150000000000     
 dielectric constant        :    8.93000000000000     
 rho                        :    1.33000000000000     
 mass                       :    84.9300000000000     
 surface tension            :    15.5689454083859     
 probe radius               :   0.719875900000000     
 Gshift (Eh)                :   4.440829173451759E-003
 c1                         :    1.49173776000000     
 soset                      :   0.000000000000000E+000
 HB correction              :  F
           ------------------------------------------------- 
          |        Self-Consistent Charge Iterations        |
           ------------------------------------------------- 

          ...................................................
          :                      SETUP                      :
          :.................................................:
          :  # basis functions                  81          :
          :  # atomic orbitals                  81          :
          :  # shells                           51          :
          :  # electrons                        88          :
          :  max. iterations                   250          :
          :  Hamiltonian                  GFN2-xTB          :
          :  GBSA solvation                   true          :
          :  PC potential                    false          :
          :  electronic temp.          300.0000000     K    :
          :  accuracy                    1.0000000          :
          :  -> integral cutoff          0.2500000E+02      :
          :  -> integral neglect         0.1000000E-07      :
          :  -> SCF convergence          0.1000000E-05 Eh   :
          :  -> wf. convergence          0.1000000E-03 e    :
          :  Broyden damping             0.4000000          :
          ...................................................
  Checking positiv definite overlap ...  done.
 

 iter      E             dE          RMSdq      gap      omega  full diag
   1    -49.9523243 -0.499523E+02  0.388E+00    4.01       0.0  T
   2    -49.9914622 -0.391379E-01  0.226E+00    4.29       1.0  T
   3    -49.9904246  0.103764E-02  0.629E-01    4.28       1.0  T
   4    -49.9933035 -0.287888E-02  0.233E-01    4.29       1.0  T
   5    -49.9948621 -0.155867E-02  0.709E-02    4.29       1.0  T
   6    -49.9948800 -0.178388E-04  0.303E-02    4.30       1.0  T
   7    -49.9948822 -0.218636E-05  0.111E-02    4.30       1.5  T
   8    -49.9948838 -0.167107E-05  0.423E-03    4.30       3.9  T
   9    -49.9948840 -0.148002E-06  0.214E-03    4.30       7.8  T
  10    -49.9948840 -0.146700E-07  0.852E-04    4.30      19.6  T
  11    -49.9948840 -0.686498E-08  0.365E-04    4.30      45.6  T

   *** convergence criteria satisfied after 11 iterations ***

         #    Occupation            Energy/Eh            Energy/eV
      -------------------------------------------------------------
         1        2.0000           -0.6894454             -18.7608
       ...           ...                  ...                  ...
        38        2.0000           -0.4360347             -11.8651
        39        2.0000           -0.4265589             -11.6073
        40        2.0000           -0.4229885             -11.5101
        41        2.0000           -0.4096314             -11.1466
        42        2.0000           -0.4086211             -11.1191
        43        2.0000           -0.4075582             -11.0902
        44        2.0000           -0.3909718             -10.6389 (HOMO)
        45                         -0.2330709              -6.3422 (LUMO)
        46                         -0.2302230              -6.2647
        47                         -0.1062471              -2.8911
        48                         -0.0090777              -0.2470
        49                          0.0269377               0.7330
       ...                                ...                  ...
        81                          0.6419153              17.4674
      -------------------------------------------------------------
                  HL-Gap            0.1579010 Eh            4.2967 eV
             Fermi-level           -0.3120213 Eh           -8.4905 eV

 SCC (total)                   0 d,  0 h,  0 min,  0.087 sec
 SCC setup                      ...        0 min,  0.003 sec (  3.845%)
 Dispersion                     ...        0 min,  0.005 sec (  5.843%)
 integral evaluation            ...        0 min,  0.014 sec ( 15.890%)
 zeroth order Hamiltonian       ...        0 min,  0.000 sec (  0.022%)
 iterations                     ...        0 min,  0.043 sec ( 49.730%)
 molecular gradient             ...        0 min,  0.021 sec ( 23.768%)
 printout                       ...        0 min,  0.001 sec (  0.814%)

         :::::::::::::::::::::::::::::::::::::::::::::::::::::
         ::                     SUMMARY                     ::
         :::::::::::::::::::::::::::::::::::::::::::::::::::::
         :: total energy             -49.387231819628 Eh    ::
         :: total w/o Gsasa/hb       -49.369744854432 Eh    ::
         :: gradient norm              0.026198380183 Eh/a0 ::
         :: HOMO-LUMO gap              4.296703584911 eV    ::
         ::.................................................::
         :: SCC energy               -50.012370965865 Eh    ::
         :: -> isotropic ES            0.106958121013 Eh    ::
         :: -> anisotropic ES         -0.005552488816 Eh    ::
         :: -> anisotropic XC          0.021135477748 Eh    ::
         :: -> dispersion             -0.029673383469 Eh    ::
         :: -> Gsolv                  -0.024445365026 Eh    ::
         ::    -> Gborn               -0.006958399830 Eh    ::
         ::    -> Gsasa               -0.021927794369 Eh    ::
         ::    -> Ghb                  0.000000000000 Eh    ::
         ::    -> Gshift               0.004440829173 Eh    ::
         :: repulsion energy           0.624850682936 Eh    ::
         :: add. restraining           0.000000000000 Eh    ::
         :::::::::::::::::::::::::::::::::::::::::::::::::::::

           -------------------------------------------------
          |                Property Printout                |
           -------------------------------------------------

    * Orbital Energies and Occupations

         #    Occupation            Energy/Eh            Energy/eV
      -------------------------------------------------------------
         1        2.0000           -0.6894454             -18.7608
       ...           ...                  ...                  ...
        32        2.0000           -0.4670553             -12.7092
        33        2.0000           -0.4500148             -12.2455
        34        2.0000           -0.4480361             -12.1917
        35        2.0000           -0.4464448             -12.1484
        36        2.0000           -0.4428707             -12.0511
        37        2.0000           -0.4377623             -11.9121
        38        2.0000           -0.4360347             -11.8651
        39        2.0000           -0.4265589             -11.6073
        40        2.0000           -0.4229885             -11.5101
        41        2.0000           -0.4096314             -11.1466
        42        2.0000           -0.4086211             -11.1191
        43        2.0000           -0.4075582             -11.0902
        44        2.0000           -0.3909718             -10.6389 (HOMO)
        45                         -0.2330709              -6.3422 (LUMO)
        46                         -0.2302230              -6.2647
        47                         -0.1062471              -2.8911
        48                         -0.0090777              -0.2470
        49                          0.0269377               0.7330
        50                          0.0635520               1.7293
        51                          0.0708573               1.9281
        52                          0.0761896               2.0732
        53                          0.0988662               2.6903
        54                          0.1067470               2.9047
        55                          0.1197541               3.2587
       ...                                ...                  ...
        81                          0.6419153              17.4674
      -------------------------------------------------------------
                  HL-Gap            0.1579010 Eh            4.2967 eV
             Fermi-level           -0.3120213 Eh           -8.4905 eV

     #   Z        covCN         q      C6AA      α(0)
     1   6 C      2.966    -0.019    28.488     8.755
     2   6 C      2.920    -0.041    29.007     8.832
     3   6 C      2.914    -0.030    28.754     8.793
     4   6 C      2.915    -0.031    28.771     8.796
     5   6 C      2.915    -0.030    28.757     8.794
     6   6 C      2.918    -0.037    28.917     8.818
     7   6 C      3.666     0.183    17.918     6.071
     8   1 H      0.925     0.028     2.617     2.530
     9   1 H      0.926     0.058     2.228     2.334
    10   1 H      0.925     0.040     2.446     2.446
    11   7 N      2.677    -0.303    27.793     7.830
    12   6 C      3.736     0.016    20.383     6.443
    13   1 H      0.800     0.313     0.683     1.299
    14   6 C      3.801    -0.072    21.872     6.658
    15   1 H      0.924     0.034     2.529     2.487
    16   1 H      0.924     0.020     2.737     2.587
    17   1 H      0.924     0.050     2.315     2.379
    18   1 H      0.924     0.049     2.326     2.385
    19   8 O      1.654    -0.487    22.624     6.421
    20   8 O      1.607    -0.626    25.814     6.857
    21   1 H      0.803     0.332     0.634     1.250
    22   1 H      0.805     0.292     0.746     1.356
    23   8 O      1.605    -0.616    25.588     6.827
    24   1 H      0.802     0.325     0.651     1.267
    25   1 H      0.805     0.291     0.747     1.358
    26   1 H      0.924     0.014     2.821     2.626
    27   1 H      0.860     0.152     1.390     1.847
    28   6 C      3.800    -0.053    21.533     6.607
    29   1 H      0.924     0.031     2.570     2.507
    30   1 H      0.924     0.030     2.590     2.517
    31   1 H      0.925     0.042     2.422     2.434
    32   1 H      0.925     0.039     2.457     2.451
    33   6 C      3.750    -0.104    22.542     6.771
    34   1 H      0.924     0.036     2.503     2.474
    35   1 H      0.924     0.037     2.487     2.466
    36   1 H      0.924     0.036     2.503     2.474

 Mol. C6AA /au·bohr⁶  :      10809.120336
 Mol. C8AA /au·bohr⁸  :     237494.252212
 Mol. α(0) /au        :        158.747632


Wiberg/Mayer (AO) data.
largest (>0.10) Wiberg bond orders for each atom
          total WBO             WBO to atom ...
     1  C   3.986        C    6 1.420    C    2 1.412    C    7 0.973    C    4 0.110
     2  C   3.991        C    3 1.446    C    1 1.412    H    8 0.969    C    5 0.112
     3  C   3.991        C    2 1.446    C    4 1.436    H   32 0.971    C    6 0.111
     4  C   3.991        C    5 1.442    C    3 1.436    H   10 0.971    C    1 0.110
     5  C   3.991        C    4 1.442    C    6 1.439    H   31 0.971    C    2 0.112
     6  C   3.990        C    5 1.439    C    1 1.420    H    9 0.963    C    3 0.111
     7  C   3.953        O   19 1.012    C    1 0.973    N   11 0.966    H   26 0.950
     8  H   0.999        C    2 0.969
     9  H   0.997        C    6 0.963
    10  H   0.998        C    4 0.971
    11  N   3.130        C   12 0.991    C    7 0.966    H   27 0.953
    12  C   3.976        C   14 1.005    N   11 0.991    H   15 0.977    H   16 0.969
    13  H   0.902        O   23 0.824
    14  C   3.994        C   28 1.006    C   12 1.005    H   18 0.974    H   17 0.974
    15  H   0.998        C   12 0.977
    16  H   1.000        C   12 0.969
    17  H   0.997        C   14 0.974
    18  H   0.998        C   14 0.974
    19  O   1.953        C    7 1.012    H   21 0.821
    20  O   1.851        H   22 0.912    H   24 0.831
    21  H   0.890        O   19 0.821
    22  H   0.915        O   20 0.912
    23  O   1.867        H   25 0.912    H   13 0.824
    24  H   0.894        O   20 0.831
    25  H   0.915        O   23 0.912
    26  H   1.000        C    7 0.950
    27  H   0.977        N   11 0.953
    28  C   3.997        C   33 1.019    C   14 1.006    H   30 0.978    H   29 0.978
    29  H   0.999        C   28 0.978
    30  H   0.999        C   28 0.978
    31  H   0.998        C    5 0.971
    32  H   0.998        C    3 0.971
    33  C   3.996        C   28 1.019    H   36 0.988    H   35 0.988    H   34 0.987
    34  H   0.998        C   33 0.987
    35  H   0.999        C   33 0.988
    36  H   0.999        C   33 0.988

molecular dipole:
                 x           y           z       tot (Debye)
 q only:       -0.155       0.453       0.930
   full:       -0.238       0.904       1.053       3.579
molecular quadrupole (traceless):
                xx          xy          yy          xz          yz          zz
 q only:        7.719      -0.066      -0.351       0.840      -0.254      -7.368
  q+dip:        7.135       1.509       3.516      -0.776      -1.684     -10.651
   full:        6.887       1.164       1.902      -0.157      -1.020      -8.789

           -------------------------------------------------
          |                Property Printout                |
           -------------------------------------------------

    * Orbital Energies and Occupations

         #    Occupation            Energy/Eh            Energy/eV
      -------------------------------------------------------------
         1        2.0000           -0.6894454             -18.7608
       ...           ...                  ...                  ...
        32        2.0000           -0.4670553             -12.7092
        33        2.0000           -0.4500148             -12.2455
        34        2.0000           -0.4480361             -12.1917
        35        2.0000           -0.4464448             -12.1484
        36        2.0000           -0.4428707             -12.0511
        37        2.0000           -0.4377623             -11.9121
        38        2.0000           -0.4360347             -11.8651
        39        2.0000           -0.4265589             -11.6073
        40        2.0000           -0.4229885             -11.5101
        41        2.0000           -0.4096314             -11.1466
        42        2.0000           -0.4086211             -11.1191
        43        2.0000           -0.4075582             -11.0902
        44        2.0000           -0.3909718             -10.6389 (HOMO)
        45                         -0.2330709              -6.3422 (LUMO)
        46                         -0.2302230              -6.2647
        47                         -0.1062471              -2.8911
        48                         -0.0090777              -0.2470
        49                          0.0269377               0.7330
        50                          0.0635520               1.7293
        51                          0.0708573               1.9281
        52                          0.0761896               2.0732
        53                          0.0988662               2.6903
        54                          0.1067470               2.9047
        55                          0.1197541               3.2587
       ...                                ...                  ...
        81                          0.6419153              17.4674
      -------------------------------------------------------------
                  HL-Gap            0.1579010 Eh            4.2967 eV
             Fermi-level           -0.3120213 Eh           -8.4905 eV

     #   Z        covCN         q      C6AA      α(0)
     1   6 C      2.966    -0.019    28.488     8.755
     2   6 C      2.920    -0.041    29.007     8.832
     3   6 C      2.914    -0.030    28.754     8.793
     4   6 C      2.915    -0.031    28.771     8.796
     5   6 C      2.915    -0.030    28.757     8.794
     6   6 C      2.918    -0.037    28.917     8.818
     7   6 C      3.666     0.183    17.918     6.071
     8   1 H      0.925     0.028     2.617     2.530
     9   1 H      0.926     0.058     2.228     2.334
    10   1 H      0.925     0.040     2.446     2.446
    11   7 N      2.677    -0.303    27.793     7.830
    12   6 C      3.736     0.016    20.383     6.443
    13   1 H      0.800     0.313     0.683     1.299
    14   6 C      3.801    -0.072    21.872     6.658
    15   1 H      0.924     0.034     2.529     2.487
    16   1 H      0.924     0.020     2.737     2.587
    17   1 H      0.924     0.050     2.315     2.379
    18   1 H      0.924     0.049     2.326     2.385
    19   8 O      1.654    -0.487    22.624     6.421
    20   8 O      1.607    -0.626    25.814     6.857
    21   1 H      0.803     0.332     0.634     1.250
    22   1 H      0.805     0.292     0.746     1.356
    23   8 O      1.605    -0.616    25.588     6.827
    24   1 H      0.802     0.325     0.651     1.267
    25   1 H      0.805     0.291     0.747     1.358
    26   1 H      0.924     0.014     2.821     2.626
    27   1 H      0.860     0.152     1.390     1.847
    28   6 C      3.800    -0.053    21.533     6.607
    29   1 H      0.924     0.031     2.570     2.507
    30   1 H      0.924     0.030     2.590     2.517
    31   1 H      0.925     0.042     2.422     2.434
    32   1 H      0.925     0.039     2.457     2.451
    33   6 C      3.750    -0.104    22.542     6.771
    34   1 H      0.924     0.036     2.503     2.474
    35   1 H      0.924     0.037     2.487     2.466
    36   1 H      0.924     0.036     2.503     2.474

 Mol. C6AA /au·bohr⁶  :      10809.120336
 Mol. C8AA /au·bohr⁸  :     237494.252212
 Mol. α(0) /au        :        158.747632


Wiberg/Mayer (AO) data.
largest (>0.10) Wiberg bond orders for each atom
          total WBO             WBO to atom ...
     1  C   3.986        C    6 1.420    C    2 1.412    C    7 0.973    C    4 0.110
     2  C   3.991        C    3 1.446    C    1 1.412    H    8 0.969    C    5 0.112
     3  C   3.991        C    2 1.446    C    4 1.436    H   32 0.971    C    6 0.111
     4  C   3.991        C    5 1.442    C    3 1.436    H   10 0.971    C    1 0.110
     5  C   3.991        C    4 1.442    C    6 1.439    H   31 0.971    C    2 0.112
     6  C   3.990        C    5 1.439    C    1 1.420    H    9 0.963    C    3 0.111
     7  C   3.953        O   19 1.012    C    1 0.973    N   11 0.966    H   26 0.950
     8  H   0.999        C    2 0.969
     9  H   0.997        C    6 0.963
    10  H   0.998        C    4 0.971
    11  N   3.130        C   12 0.991    C    7 0.966    H   27 0.953
    12  C   3.976        C   14 1.005    N   11 0.991    H   15 0.977    H   16 0.969
    13  H   0.902        O   23 0.824
    14  C   3.994        C   28 1.006    C   12 1.005    H   18 0.974    H   17 0.974
    15  H   0.998        C   12 0.977
    16  H   1.000        C   12 0.969
    17  H   0.997        C   14 0.974
    18  H   0.998        C   14 0.974
    19  O   1.953        C    7 1.012    H   21 0.821
    20  O   1.851        H   22 0.912    H   24 0.831
    21  H   0.890        O   19 0.821
    22  H   0.915        O   20 0.912
    23  O   1.867        H   25 0.912    H   13 0.824
    24  H   0.894        O   20 0.831
    25  H   0.915        O   23 0.912
    26  H   1.000        C    7 0.950
    27  H   0.977        N   11 0.953
    28  C   3.997        C   33 1.019    C   14 1.006    H   30 0.978    H   29 0.978
    29  H   0.999        C   28 0.978
    30  H   0.999        C   28 0.978
    31  H   0.998        C    5 0.971
    32  H   0.998        C    3 0.971
    33  C   3.996        C   28 1.019    H   36 0.988    H   35 0.988    H   34 0.987
    34  H   0.998        C   33 0.987
    35  H   0.999        C   33 0.988
    36  H   0.999        C   33 0.988

molecular dipole:
                 x           y           z       tot (Debye)
 q only:       -0.155       0.453       0.930
   full:       -0.238       0.904       1.053       3.579
molecular quadrupole (traceless):
                xx          xy          yy          xz          yz          zz
 q only:        7.719      -0.066      -0.351       0.840      -0.254      -7.368
  q+dip:        7.135       1.509       3.516      -0.776      -1.684     -10.651
   full:        6.887       1.164       1.902      -0.157      -1.020      -8.789


           -------------------------------------------------
          | TOTAL ENERGY              -49.387231819628 Eh   |
          | GRADIENT NORM               0.026198380183 Eh/α |
          | HOMO-LUMO GAP               4.296703584911 eV   |
           -------------------------------------------------

------------------------------------------------------------------------
 * finished run on 2020/11/01 at 13:59:32.016     
------------------------------------------------------------------------
 total:
 * wall-time:     0 d,  0 h,  0 min,  0.227 sec
 *  cpu-time:     0 d,  0 h,  0 min,  0.860 sec
 * ratio c/w:     3.785 speedup
 SCF:
 * wall-time:     0 d,  0 h,  0 min,  0.088 sec
 *  cpu-time:     0 d,  0 h,  0 min,  0.367 sec
 * ratio c/w:     4.160 speedup


-------------------------   --------------------
FINAL SINGLE POINT ENERGY       -49.387231819630
-------------------------   --------------------


----------------------------------------------------------------------------
                           ORCA NUMERICAL FREQUENCIES
                              (8-process run)
----------------------------------------------------------------------------

Number of atoms                ... 36
Central differences            ... used
Number of displacements        ... 216
Numerical increment            ... 5.000e-03 bohr
IR-spectrum generation         ... on
Raman-spectrum generation      ... off
Surface Crossing Hessian       ... off
List of participating nodes    ...  /tmp/slurm-scratch/freq.273/freq.hostnames

The output will be reduced. Please look at the following files:
SCF program output             ... >/tmp/slurm-scratch/freq.273/freq.lastscf
Integral program output        ... >/tmp/slurm-scratch/freq.273/freq.lastint
Gradient program output        ... >/tmp/slurm-scratch/freq.273/freq.lastgrad
Dipole moment program output   ... >/tmp/slurm-scratch/freq.273/freq.lastmom
AutoCI program output          ... >/tmp/slurm-scratch/freq.273/freq.lastautoci


         <<< Energy and Gradient at the input geometry >>>

        <<< Energy and Gradient at displaced geometries >>>
             <<<Displacing   1/coordinate 2 (+)>>>
             <<<Displacing   2/coordinate 3 (+)>>>
             <<<Displacing   2/coordinate 2 (+)>>>
             <<<Displacing   1/coordinate 3 (+)>>>
             <<<Displacing   1/coordinate 2 (-)>>>
             <<<Displacing   2/coordinate 3 (-)>>>
             <<<Displacing   1/coordinate 1 (+)>>>
             <<<Displacing   2/coordinate 2 (-)>>>
             <<<Displacing   1/coordinate 3 (-)>>>
             <<<Displacing   2/coordinate 1 (+)>>>
             <<<Displacing   1/coordinate 1 (-)>>>
             <<<Displacing   2/coordinate 1 (-)>>>
             <<<Displacing   3/coordinate 1 (+)>>>
             <<<Displacing   3/coordinate 2 (+)>>>
             <<<Displacing   3/coordinate 1 (-)>>>
             <<<Displacing   3/coordinate 2 (-)>>>
             <<<Displacing   3/coordinate 3 (+)>>>
             <<<Displacing   3/coordinate 3 (-)>>>
             <<<Displacing   4/coordinate 2 (+)>>>
             <<<Displacing   4/coordinate 2 (-)>>>
             <<<Displacing   5/coordinate 2 (+)>>>
             <<<Displacing   5/coordinate 2 (-)>>>
             <<<Displacing   4/coordinate 3 (+)>>>
             <<<Displacing   5/coordinate 1 (+)>>>
             <<<Displacing   4/coordinate 3 (-)>>>
             <<<Displacing   5/coordinate 1 (-)>>>
             <<<Displacing   4/coordinate 1 (+)>>>
             <<<Displacing   4/coordinate 1 (-)>>>
             <<<Displacing   6/coordinate 2 (+)>>>
             <<<Displacing   5/coordinate 3 (+)>>>
             <<<Displacing   6/coordinate 1 (+)>>>
             <<<Displacing   6/coordinate 3 (+)>>>
             <<<Displacing   6/coordinate 2 (-)>>>
             <<<Displacing   5/coordinate 3 (-)>>>
             <<<Displacing   6/coordinate 1 (-)>>>
             <<<Displacing   6/coordinate 3 (-)>>>
             <<<Displacing   7/coordinate 1 (+)>>>
             <<<Displacing   7/coordinate 1 (-)>>>
             <<<Displacing   7/coordinate 3 (+)>>>
             <<<Displacing   7/coordinate 3 (-)>>>
             <<<Displacing   7/coordinate 2 (+)>>>
             <<<Displacing   7/coordinate 2 (-)>>>
             <<<Displacing   8/coordinate 3 (+)>>>
             <<<Displacing   8/coordinate 3 (-)>>>
             <<<Displacing   8/coordinate 2 (+)>>>
             <<<Displacing   8/coordinate 2 (-)>>>
             <<<Displacing   9/coordinate 2 (+)>>>
             <<<Displacing   9/coordinate 2 (-)>>>
             <<<Displacing   8/coordinate 1 (+)>>>
             <<<Displacing   9/coordinate 1 (+)>>>
             <<<Displacing   8/coordinate 1 (-)>>>
             <<<Displacing   9/coordinate 1 (-)>>>
             <<<Displacing  10/coordinate 1 (+)>>>
             <<<Displacing   9/coordinate 3 (+)>>>
             <<<Displacing  10/coordinate 1 (-)>>>
             <<<Displacing   9/coordinate 3 (-)>>>
             <<<Displacing  11/coordinate 1 (+)>>>
             <<<Displacing  11/coordinate 1 (-)>>>
             <<<Displacing  10/coordinate 2 (+)>>>
             <<<Displacing  10/coordinate 2 (-)>>>
             <<<Displacing  11/coordinate 3 (+)>>>
             <<<Displacing  11/coordinate 3 (-)>>>
             <<<Displacing  10/coordinate 3 (+)>>>
             <<<Displacing  10/coordinate 3 (-)>>>
             <<<Displacing  11/coordinate 2 (+)>>>
             <<<Displacing  12/coordinate 1 (+)>>>
             <<<Displacing  11/coordinate 2 (-)>>>
             <<<Displacing  12/coordinate 1 (-)>>>
             <<<Displacing  12/coordinate 3 (+)>>>
             <<<Displacing  12/coordinate 3 (-)>>>
             <<<Displacing  13/coordinate 1 (+)>>>
             <<<Displacing  13/coordinate 1 (-)>>>
             <<<Displacing  12/coordinate 2 (+)>>>
             <<<Displacing  12/coordinate 2 (-)>>>
             <<<Displacing  13/coordinate 2 (+)>>>
             <<<Displacing  13/coordinate 2 (-)>>>
             <<<Displacing  14/coordinate 1 (+)>>>
             <<<Displacing  14/coordinate 1 (-)>>>
             <<<Displacing  13/coordinate 3 (+)>>>
             <<<Displacing  13/coordinate 3 (-)>>>
             <<<Displacing  14/coordinate 2 (+)>>>
             <<<Displacing  14/coordinate 3 (+)>>>
             <<<Displacing  14/coordinate 2 (-)>>>
             <<<Displacing  15/coordinate 1 (+)>>>
             <<<Displacing  14/coordinate 3 (-)>>>
             <<<Displacing  15/coordinate 2 (+)>>>
             <<<Displacing  15/coordinate 3 (+)>>>
             <<<Displacing  15/coordinate 1 (-)>>>
             <<<Displacing  15/coordinate 2 (-)>>>
             <<<Displacing  15/coordinate 3 (-)>>>
             <<<Displacing  16/coordinate 1 (+)>>>
             <<<Displacing  16/coordinate 1 (-)>>>
             <<<Displacing  16/coordinate 2 (+)>>>
             <<<Displacing  16/coordinate 2 (-)>>>
             <<<Displacing  16/coordinate 3 (+)>>>
             <<<Displacing  16/coordinate 3 (-)>>>
             <<<Displacing  18/coordinate 2 (+)>>>
             <<<Displacing  18/coordinate 2 (-)>>>
             <<<Displacing  17/coordinate 3 (+)>>>
             <<<Displacing  17/coordinate 3 (-)>>>
             <<<Displacing  18/coordinate 3 (+)>>>
             <<<Displacing  18/coordinate 3 (-)>>>
             <<<Displacing  19/coordinate 1 (+)>>>
             <<<Displacing  17/coordinate 1 (+)>>>
             <<<Displacing  17/coordinate 2 (+)>>>
             <<<Displacing  19/coordinate 1 (-)>>>
             <<<Displacing  18/coordinate 1 (+)>>>
             <<<Displacing  17/coordinate 1 (-)>>>
             <<<Displacing  17/coordinate 2 (-)>>>
             <<<Displacing  18/coordinate 1 (-)>>>
             <<<Displacing  19/coordinate 3 (+)>>>
             <<<Displacing  19/coordinate 3 (-)>>>
             <<<Displacing  20/coordinate 1 (+)>>>
             <<<Displacing  20/coordinate 1 (-)>>>
             <<<Displacing  19/coordinate 2 (+)>>>
             <<<Displacing  19/coordinate 2 (-)>>>
             <<<Displacing  20/coordinate 3 (+)>>>
             <<<Displacing  20/coordinate 3 (-)>>>
             <<<Displacing  21/coordinate 1 (+)>>>
             <<<Displacing  21/coordinate 1 (-)>>>
             <<<Displacing  20/coordinate 2 (+)>>>
             <<<Displacing  20/coordinate 2 (-)>>>
             <<<Displacing  21/coordinate 2 (+)>>>
             <<<Displacing  21/coordinate 3 (+)>>>
             <<<Displacing  21/coordinate 2 (-)>>>
             <<<Displacing  21/coordinate 3 (-)>>>
             <<<Displacing  23/coordinate 2 (+)>>>
             <<<Displacing  23/coordinate 2 (-)>>>
             <<<Displacing  22/coordinate 1 (+)>>>
             <<<Displacing  22/coordinate 1 (-)>>>
             <<<Displacing  22/coordinate 2 (+)>>>
             <<<Displacing  22/coordinate 2 (-)>>>
             <<<Displacing  22/coordinate 3 (+)>>>
             <<<Displacing  22/coordinate 3 (-)>>>
             <<<Displacing  23/coordinate 1 (+)>>>
             <<<Displacing  23/coordinate 1 (-)>>>
             <<<Displacing  23/coordinate 3 (+)>>>
             <<<Displacing  23/coordinate 3 (-)>>>
             <<<Displacing  24/coordinate 3 (+)>>>
             <<<Displacing  25/coordinate 1 (+)>>>
             <<<Displacing  25/coordinate 2 (+)>>>
             <<<Displacing  24/coordinate 3 (-)>>>
             <<<Displacing  25/coordinate 1 (-)>>>
             <<<Displacing  25/coordinate 2 (-)>>>
             <<<Displacing  24/coordinate 1 (+)>>>
             <<<Displacing  24/coordinate 2 (+)>>>
             <<<Displacing  24/coordinate 1 (-)>>>
             <<<Displacing  24/coordinate 2 (-)>>>
             <<<Displacing  25/coordinate 3 (+)>>>
             <<<Displacing  25/coordinate 3 (-)>>>
             <<<Displacing  26/coordinate 1 (+)>>>
             <<<Displacing  26/coordinate 1 (-)>>>
             <<<Displacing  27/coordinate 3 (+)>>>
             <<<Displacing  27/coordinate 3 (-)>>>
             <<<Displacing  28/coordinate 1 (+)>>>
             <<<Displacing  26/coordinate 3 (+)>>>
             <<<Displacing  28/coordinate 1 (-)>>>
             <<<Displacing  27/coordinate 1 (+)>>>
             <<<Displacing  26/coordinate 3 (-)>>>
             <<<Displacing  27/coordinate 1 (-)>>>
             <<<Displacing  26/coordinate 2 (+)>>>
             <<<Displacing  27/coordinate 2 (+)>>>
             <<<Displacing  26/coordinate 2 (-)>>>
             <<<Displacing  27/coordinate 2 (-)>>>
             <<<Displacing  29/coordinate 3 (+)>>>
             <<<Displacing  29/coordinate 3 (-)>>>
             <<<Displacing  28/coordinate 3 (+)>>>
             <<<Displacing  28/coordinate 3 (-)>>>
             <<<Displacing  29/coordinate 1 (+)>>>
             <<<Displacing  28/coordinate 2 (+)>>>
             <<<Displacing  29/coordinate 1 (-)>>>
             <<<Displacing  28/coordinate 2 (-)>>>
             <<<Displacing  29/coordinate 2 (+)>>>
             <<<Displacing  29/coordinate 2 (-)>>>
             <<<Displacing  30/coordinate 1 (+)>>>
             <<<Displacing  30/coordinate 1 (-)>>>
             <<<Displacing  30/coordinate 3 (+)>>>
             <<<Displacing  30/coordinate 3 (-)>>>
             <<<Displacing  30/coordinate 2 (+)>>>
             <<<Displacing  30/coordinate 2 (-)>>>
             <<<Displacing  31/coordinate 1 (+)>>>
             <<<Displacing  31/coordinate 1 (-)>>>
             <<<Displacing  31/coordinate 2 (+)>>>
             <<<Displacing  31/coordinate 2 (-)>>>
             <<<Displacing  32/coordinate 3 (+)>>>
             <<<Displacing  31/coordinate 3 (+)>>>
             <<<Displacing  32/coordinate 3 (-)>>>
             <<<Displacing  31/coordinate 3 (-)>>>
             <<<Displacing  32/coordinate 1 (+)>>>
             <<<Displacing  32/coordinate 1 (-)>>>
             <<<Displacing  32/coordinate 2 (+)>>>
             <<<Displacing  32/coordinate 2 (-)>>>
             <<<Displacing  33/coordinate 3 (+)>>>
             <<<Displacing  33/coordinate 3 (-)>>>
             <<<Displacing  33/coordinate 1 (+)>>>
             <<<Displacing  33/coordinate 1 (-)>>>
             <<<Displacing  33/coordinate 2 (+)>>>
             <<<Displacing  33/coordinate 2 (-)>>>
             <<<Displacing  34/coordinate 1 (+)>>>
             <<<Displacing  34/coordinate 2 (+)>>>
             <<<Displacing  34/coordinate 2 (-)>>>
             <<<Displacing  34/coordinate 1 (-)>>>
             <<<Displacing  35/coordinate 1 (+)>>>
             <<<Displacing  35/coordinate 1 (-)>>>
             <<<Displacing  35/coordinate 3 (+)>>>
             <<<Displacing  35/coordinate 3 (-)>>>
             <<<Displacing  34/coordinate 3 (+)>>>
             <<<Displacing  34/coordinate 3 (-)>>>
             <<<Displacing  36/coordinate 3 (+)>>>
             <<<Displacing  36/coordinate 3 (-)>>>
             <<<Displacing  36/coordinate 2 (+)>>>
             <<<Displacing  36/coordinate 2 (-)>>>
             <<<Displacing  36/coordinate 1 (+)>>>
             <<<Displacing  35/coordinate 2 (+)>>>
             <<<Displacing  36/coordinate 1 (-)>>>
             <<<Displacing  35/coordinate 2 (-)>>>

-----------------------
VIBRATIONAL FREQUENCIES
-----------------------

Scaling factor for frequencies =  1.000000000 (already applied!)

   0:         0.00 cm**-1
   1:         0.00 cm**-1
   2:         0.00 cm**-1
   3:         0.00 cm**-1
   4:         0.00 cm**-1
   5:         0.00 cm**-1
   6:       -26.79 cm**-1 ***imaginary mode***
   7:        46.55 cm**-1
   8:        59.61 cm**-1
   9:        64.08 cm**-1
  10:        70.13 cm**-1
  11:        74.03 cm**-1
  12:        99.23 cm**-1
  13:       110.17 cm**-1
  14:       113.47 cm**-1
  15:       166.89 cm**-1
  16:       173.48 cm**-1
  17:       217.74 cm**-1
  18:       241.14 cm**-1
  19:       246.95 cm**-1
  20:       261.54 cm**-1
  21:       269.21 cm**-1
  22:       305.94 cm**-1
  23:       336.09 cm**-1
  24:       356.34 cm**-1
  25:       359.96 cm**-1
  26:       381.39 cm**-1
  27:       406.93 cm**-1
  28:       429.82 cm**-1
  29:       474.88 cm**-1
  30:       488.83 cm**-1
  31:       522.99 cm**-1
  32:       546.89 cm**-1
  33:       588.95 cm**-1
  34:       623.68 cm**-1
  35:       635.89 cm**-1
  36:       679.33 cm**-1
  37:       700.73 cm**-1
  38:       758.73 cm**-1
  39:       766.04 cm**-1
  40:       805.24 cm**-1
  41:       820.24 cm**-1
  42:       840.12 cm**-1
  43:       864.11 cm**-1
  44:       885.33 cm**-1
  45:       910.33 cm**-1
  46:       930.57 cm**-1
  47:       934.95 cm**-1
  48:       937.86 cm**-1
  49:       949.92 cm**-1
  50:       967.64 cm**-1
  51:       982.53 cm**-1
  52:      1035.20 cm**-1
  53:      1067.20 cm**-1
  54:      1076.85 cm**-1
  55:      1098.30 cm**-1
  56:      1117.47 cm**-1
  57:      1118.92 cm**-1
  58:      1130.90 cm**-1
  59:      1155.07 cm**-1
  60:      1178.45 cm**-1
  61:      1190.12 cm**-1
  62:      1206.07 cm**-1
  63:      1220.15 cm**-1
  64:      1225.15 cm**-1
  65:      1257.58 cm**-1
  66:      1274.73 cm**-1
  67:      1278.35 cm**-1
  68:      1282.14 cm**-1
  69:      1289.88 cm**-1
  70:      1302.62 cm**-1
  71:      1330.58 cm**-1
  72:      1350.73 cm**-1
  73:      1358.25 cm**-1
  74:      1378.26 cm**-1
  75:      1423.44 cm**-1
  76:      1427.58 cm**-1
  77:      1462.88 cm**-1
  78:      1469.39 cm**-1
  79:      1498.92 cm**-1
  80:      1504.00 cm**-1
  81:      1507.44 cm**-1
  82:      1510.87 cm**-1
  83:      1525.52 cm**-1
  84:      1540.89 cm**-1
  85:      1569.13 cm**-1
  86:      1576.18 cm**-1
  87:      2880.31 cm**-1
  88:      2892.75 cm**-1
  89:      2904.15 cm**-1
  90:      2938.28 cm**-1
  91:      2962.35 cm**-1
  92:      2968.31 cm**-1
  93:      2975.76 cm**-1
  94:      2979.47 cm**-1
  95:      2984.63 cm**-1
  96:      2998.20 cm**-1
  97:      3002.54 cm**-1
  98:      3039.55 cm**-1
  99:      3052.80 cm**-1
 100:      3058.60 cm**-1
 101:      3069.55 cm**-1
 102:      3089.96 cm**-1
 103:      3125.24 cm**-1
 104:      3202.85 cm**-1
 105:      3388.08 cm**-1
 106:      3571.68 cm**-1
 107:      3580.39 cm**-1


------------
NORMAL MODES
------------

These modes are the cartesian displacements weighted by the diagonal matrix
M(i,i)=1/sqrt(m[i]) where m[i] is the mass of the displaced atom
Thus, these vectors are normalized but *not* orthogonal

                  0          1          2          3          4          5    
      0       0.000000   0.000000   0.000000   0.000000   0.000000   0.000000
      1       0.000000   0.000000   0.000000   0.000000   0.000000   0.000000
      2       0.000000   0.000000   0.000000   0.000000   0.000000   0.000000
      3       0.000000   0.000000   0.000000   0.000000   0.000000   0.000000
      4       0.000000   0.000000   0.000000   0.000000   0.000000   0.000000
      5       0.000000   0.000000   0.000000   0.000000   0.000000   0.000000
      6       0.000000   0.000000   0.000000   0.000000   0.000000   0.000000
      7       0.000000   0.000000   0.000000   0.000000   0.000000   0.000000
      8       0.000000   0.000000   0.000000   0.000000   0.000000   0.000000
      9       0.000000   0.000000   0.000000   0.000000   0.000000   0.000000
     10       0.000000   0.000000   0.000000   0.000000   0.000000   0.000000
     11       0.000000   0.000000   0.000000   0.000000   0.000000   0.000000
     12       0.000000   0.000000   0.000000   0.000000   0.000000   0.000000
     13       0.000000   0.000000   0.000000   0.000000   0.000000   0.000000
     14       0.000000   0.000000   0.000000   0.000000   0.000000   0.000000
     15       0.000000   0.000000   0.000000   0.000000   0.000000   0.000000
     16       0.000000   0.000000   0.000000   0.000000   0.000000   0.000000
     17       0.000000   0.000000   0.000000   0.000000   0.000000   0.000000
     18       0.000000   0.000000   0.000000   0.000000   0.000000   0.000000
     19       0.000000   0.000000   0.000000   0.000000   0.000000   0.000000
     20       0.000000   0.000000   0.000000   0.000000   0.000000   0.000000
     21       0.000000   0.000000   0.000000   0.000000   0.000000   0.000000
     22       0.000000   0.000000   0.000000   0.000000   0.000000   0.000000
     23       0.000000   0.000000   0.000000   0.000000   0.000000   0.000000
     24       0.000000   0.000000   0.000000   0.000000   0.000000   0.000000
     25       0.000000   0.000000   0.000000   0.000000   0.000000   0.000000
     26       0.000000   0.000000   0.000000   0.000000   0.000000   0.000000
     27       0.000000   0.000000   0.000000   0.000000   0.000000   0.000000
     28       0.000000   0.000000   0.000000   0.000000   0.000000   0.000000
     29       0.000000   0.000000   0.000000   0.000000   0.000000   0.000000
     30       0.000000   0.000000   0.000000   0.000000   0.000000   0.000000
     31       0.000000   0.000000   0.000000   0.000000   0.000000   0.000000
     32       0.000000   0.000000   0.000000   0.000000   0.000000   0.000000
     33       0.000000   0.000000   0.000000   0.000000   0.000000   0.000000
     34       0.000000   0.000000   0.000000   0.000000   0.000000   0.000000
     35       0.000000   0.000000   0.000000   0.000000   0.000000   0.000000
     36       0.000000   0.000000   0.000000   0.000000   0.000000   0.000000
     37       0.000000   0.000000   0.000000   0.000000   0.000000   0.000000
     38       0.000000   0.000000   0.000000   0.000000   0.000000   0.000000
     39       0.000000   0.000000   0.000000   0.000000   0.000000   0.000000
     40       0.000000   0.000000   0.000000   0.000000   0.000000   0.000000
     41       0.000000   0.000000   0.000000   0.000000   0.000000   0.000000
     42       0.000000   0.000000   0.000000   0.000000   0.000000   0.000000
     43       0.000000   0.000000   0.000000   0.000000   0.000000   0.000000
     44       0.000000   0.000000   0.000000   0.000000   0.000000   0.000000
     45       0.000000   0.000000   0.000000   0.000000   0.000000   0.000000
     46       0.000000   0.000000   0.000000   0.000000   0.000000   0.000000
     47       0.000000   0.000000   0.000000   0.000000   0.000000   0.000000
     48       0.000000   0.000000   0.000000   0.000000   0.000000   0.000000
     49       0.000000   0.000000   0.000000   0.000000   0.000000   0.000000
     50       0.000000   0.000000   0.000000   0.000000   0.000000   0.000000
     51       0.000000   0.000000   0.000000   0.000000   0.000000   0.000000
     52       0.000000   0.000000   0.000000   0.000000   0.000000   0.000000
     53       0.000000   0.000000   0.000000   0.000000   0.000000   0.000000
     54       0.000000   0.000000   0.000000   0.000000   0.000000   0.000000
     55       0.000000   0.000000   0.000000   0.000000   0.000000   0.000000
     56       0.000000   0.000000   0.000000   0.000000   0.000000   0.000000
     57       0.000000   0.000000   0.000000   0.000000   0.000000   0.000000
     58       0.000000   0.000000   0.000000   0.000000   0.000000   0.000000
     59       0.000000   0.000000   0.000000   0.000000   0.000000   0.000000
     60       0.000000   0.000000   0.000000   0.000000   0.000000   0.000000
     61       0.000000   0.000000   0.000000   0.000000   0.000000   0.000000
     62       0.000000   0.000000   0.000000   0.000000   0.000000   0.000000
     63       0.000000   0.000000   0.000000   0.000000   0.000000   0.000000
     64       0.000000   0.000000   0.000000   0.000000   0.000000   0.000000
     65       0.000000   0.000000   0.000000   0.000000   0.000000   0.000000
     66       0.000000   0.000000   0.000000   0.000000   0.000000   0.000000
     67       0.000000   0.000000   0.000000   0.000000   0.000000   0.000000
     68       0.000000   0.000000   0.000000   0.000000   0.000000   0.000000
     69       0.000000   0.000000   0.000000   0.000000   0.000000   0.000000
     70       0.000000   0.000000   0.000000   0.000000   0.000000   0.000000
     71       0.000000   0.000000   0.000000   0.000000   0.000000   0.000000
     72       0.000000   0.000000   0.000000   0.000000   0.000000   0.000000
     73       0.000000   0.000000   0.000000   0.000000   0.000000   0.000000
     74       0.000000   0.000000   0.000000   0.000000   0.000000   0.000000
     75       0.000000   0.000000   0.000000   0.000000   0.000000   0.000000
     76       0.000000   0.000000   0.000000   0.000000   0.000000   0.000000
     77       0.000000   0.000000   0.000000   0.000000   0.000000   0.000000
     78       0.000000   0.000000   0.000000   0.000000   0.000000   0.000000
     79       0.000000   0.000000   0.000000   0.000000   0.000000   0.000000
     80       0.000000   0.000000   0.000000   0.000000   0.000000   0.000000
     81       0.000000   0.000000   0.000000   0.000000   0.000000   0.000000
     82       0.000000   0.000000   0.000000   0.000000   0.000000   0.000000
     83       0.000000   0.000000   0.000000   0.000000   0.000000   0.000000
     84       0.000000   0.000000   0.000000   0.000000   0.000000   0.000000
     85       0.000000   0.000000   0.000000   0.000000   0.000000   0.000000
     86       0.000000   0.000000   0.000000   0.000000   0.000000   0.000000
     87       0.000000   0.000000   0.000000   0.000000   0.000000   0.000000
     88       0.000000   0.000000   0.000000   0.000000   0.000000   0.000000
     89       0.000000   0.000000   0.000000   0.000000   0.000000   0.000000
     90       0.000000   0.000000   0.000000   0.000000   0.000000   0.000000
     91       0.000000   0.000000   0.000000   0.000000   0.000000   0.000000
     92       0.000000   0.000000   0.000000   0.000000   0.000000   0.000000
     93       0.000000   0.000000   0.000000   0.000000   0.000000   0.000000
     94       0.000000   0.000000   0.000000   0.000000   0.000000   0.000000
     95       0.000000   0.000000   0.000000   0.000000   0.000000   0.000000
     96       0.000000   0.000000   0.000000   0.000000   0.000000   0.000000
     97       0.000000   0.000000   0.000000   0.000000   0.000000   0.000000
     98       0.000000   0.000000   0.000000   0.000000   0.000000   0.000000
     99       0.000000   0.000000   0.000000   0.000000   0.000000   0.000000
    100       0.000000   0.000000   0.000000   0.000000   0.000000   0.000000
    101       0.000000   0.000000   0.000000   0.000000   0.000000   0.000000
    102       0.000000   0.000000   0.000000   0.000000   0.000000   0.000000
    103       0.000000   0.000000   0.000000   0.000000   0.000000   0.000000
    104       0.000000   0.000000   0.000000   0.000000   0.000000   0.000000
    105       0.000000   0.000000   0.000000   0.000000   0.000000   0.000000
    106       0.000000   0.000000   0.000000   0.000000   0.000000   0.000000
    107       0.000000   0.000000   0.000000   0.000000   0.000000   0.000000
                  6          7          8          9         10         11    
      0      -0.018556   0.011867   0.058448   0.007820   0.001738  -0.025081
      1      -0.000011  -0.025534  -0.023414  -0.008010   0.003040  -0.022735
      2       0.015411  -0.001142   0.005450  -0.027815   0.012621  -0.017831
      3      -0.025816   0.056616   0.054766  -0.004866  -0.033608   0.049131
      4      -0.008343   0.006075  -0.037004  -0.016946  -0.026481   0.013184
      5       0.050015   0.012745   0.120058  -0.032873   0.056151   0.171449
      6      -0.019211   0.055860   0.059200   0.011861  -0.039614   0.048774
      7      -0.024241   0.057383  -0.072489  -0.026247  -0.082052   0.050092
      8       0.070256   0.027903   0.123502   0.033682   0.010852   0.181447
      9      -0.005460   0.009544   0.066832   0.041930  -0.012941  -0.026222
     10      -0.032707   0.078029  -0.094662  -0.026570  -0.109240   0.051630
     11       0.056386   0.030625   0.014612   0.108499  -0.079932   0.000358
     12       0.002587  -0.035678   0.070441   0.054016   0.022671  -0.098763
     13      -0.024035   0.047703  -0.080486  -0.018302  -0.079684   0.018314
     14       0.026448   0.017187  -0.098288   0.111818  -0.119555  -0.181075
     15      -0.003630  -0.034827   0.065411   0.036876   0.028488  -0.097579
     16      -0.008055  -0.004002  -0.045480  -0.009190  -0.024209  -0.018363
     17       0.005447   0.000445  -0.106947   0.043943  -0.074159  -0.192339
     18      -0.031981   0.014810   0.053709  -0.001036  -0.001791  -0.023352
     19       0.023722  -0.073692   0.020074   0.005245   0.060120  -0.062352
     20      -0.034309  -0.012525   0.006090  -0.065770   0.024230  -0.040090
     21      -0.036951   0.092389   0.047998  -0.027820  -0.057306   0.106556
     22      -0.002187  -0.009698  -0.019016  -0.016618  -0.004197   0.012554
     23       0.057547   0.011136   0.203700  -0.086705   0.122458   0.305809
     24       0.002061  -0.073269   0.063157   0.044457   0.048956  -0.146635
     25      -0.001448  -0.028883  -0.036844  -0.003963  -0.006254  -0.038621
     26      -0.021559  -0.010434  -0.196048   0.047788  -0.100934  -0.328466
     27      -0.001205   0.008840   0.070386   0.055335  -0.017991  -0.027477
     28      -0.045941   0.117949  -0.121547  -0.033379  -0.152095   0.080053
     29       0.069138   0.043197   0.018886   0.162540  -0.117889   0.005913
     30       0.018563   0.026496   0.036173  -0.001007   0.004757  -0.009043
     31       0.045154  -0.039383   0.068318   0.019962   0.077499  -0.026341
     32      -0.067292  -0.026124   0.007898  -0.068166   0.019986  -0.057857
     33       0.026353   0.001616   0.044656   0.004322   0.017576  -0.014725
     34       0.005366   0.019180   0.042647   0.008665   0.039954  -0.017439
     35      -0.154218  -0.055588   0.002571  -0.041326  -0.001858  -0.073908
     36      -0.010732   0.060372  -0.220902  -0.030350   0.235204   0.033552
     37       0.038342  -0.088193   0.084393   0.047015   0.107155   0.034877
     38      -0.066503  -0.077319   0.007891  -0.063145   0.021027   0.020735
     39       0.017770   0.060455   0.027342  -0.012213  -0.020684  -0.003813
     40      -0.011169   0.073286   0.026619  -0.003955   0.001755  -0.006275
     41       0.139556   0.052513   0.001679  -0.155716   0.008569  -0.096900
     42       0.021124  -0.036569   0.056157   0.017724   0.044088  -0.010606
     43       0.228409   0.112230   0.043234  -0.090913   0.049648  -0.030740
     44      -0.325263  -0.118589  -0.000524   0.032742  -0.015418  -0.064333
     45       0.047554  -0.022463   0.051864   0.006816   0.027116  -0.029944
     46      -0.234260  -0.063777   0.037154   0.109232   0.019940  -0.001043
     47      -0.311933  -0.113141  -0.001154   0.026214  -0.014166  -0.064332
     48       0.018575   0.093889  -0.012242   0.089072  -0.044499   0.066391
     49      -0.223576  -0.019096   0.003192   0.184506   0.004194   0.064433
     50       0.304662   0.116608   0.029007  -0.325210   0.012200  -0.167859
     51       0.007468   0.092181   0.048436  -0.141461  -0.043962  -0.064575
     52       0.213972   0.151300   0.056037  -0.197378   0.009089  -0.083238
     53       0.287915   0.107529   0.023621  -0.297238   0.010784  -0.154213
     54      -0.031886  -0.000535   0.093860  -0.001217   0.033529  -0.049121
     55       0.035023  -0.106069   0.026559   0.004148   0.082169  -0.096476
     56      -0.050394   0.023487   0.033228  -0.062608   0.023026  -0.008959
     57       0.046645  -0.259950  -0.165737  -0.069744  -0.294716   0.118980
     58       0.035131  -0.192869   0.020523   0.014813   0.051248   0.002876
     59      -0.063348  -0.033915   0.068779  -0.032896   0.027678   0.093764
     60       0.002419  -0.081719   0.037334  -0.007150  -0.054538   0.013669
     61       0.036070  -0.113298   0.019337   0.005699   0.057004  -0.056912
     62      -0.051848   0.017202   0.027547  -0.059901  -0.005860   0.044343
     63       0.052655  -0.297481  -0.171574  -0.078093  -0.362413   0.140026
     64       0.045393  -0.278366  -0.021160  -0.005718  -0.095134   0.053169
     65      -0.044204  -0.072990   0.171654  -0.035202  -0.075822   0.106065
     66      -0.020645   0.038256  -0.349446  -0.034494   0.324352   0.062818
     67       0.035367  -0.092799   0.086395   0.052490   0.115490   0.058612
     68      -0.071412  -0.083356   0.006307  -0.054007   0.040501   0.053327
     69       0.023873  -0.168411  -0.246103  -0.055241  -0.104608   0.090310
     70       0.035187  -0.162323   0.042008   0.030588   0.090000   0.022010
     71      -0.064122  -0.043034   0.055705  -0.039402   0.019892   0.082614
     72      -0.028128   0.056614  -0.393673  -0.032616   0.392457   0.065117
     73       0.030646  -0.037586   0.151516   0.064215   0.144792   0.044361
     74      -0.088620  -0.037810  -0.090171  -0.049254   0.197157   0.057559
     75      -0.079547   0.031156   0.029980  -0.016565  -0.029960  -0.020015
     76       0.021539  -0.102195   0.010945   0.001840   0.067682  -0.088887
     77      -0.045778  -0.046146  -0.009987  -0.072092   0.029257  -0.075153
     78       0.053121   0.005492   0.041243  -0.000566   0.019265  -0.008778
     79       0.066766  -0.067514   0.107041   0.033028   0.098239  -0.019096
     80      -0.061273  -0.011555  -0.038509  -0.084653   0.006969  -0.067383
     81       0.021662   0.028626   0.031446   0.010850   0.004287  -0.002295
     82      -0.044753   0.144292   0.004463  -0.005807  -0.062443   0.018395
     83       0.000189  -0.001474  -0.072104   0.167507   0.008166   0.065787
     84       0.054537  -0.005051   0.084303  -0.105854   0.035363  -0.078014
     85       0.096894   0.224826   0.007802  -0.178656  -0.069874  -0.056201
     86      -0.119411  -0.058157  -0.086004   0.329593   0.007423   0.141096
     87      -0.001206  -0.009182  -0.006923   0.156473   0.033424   0.064282
     88      -0.197974   0.074247  -0.002736   0.173962  -0.067947   0.100899
     89      -0.104935  -0.052095  -0.080645   0.301920   0.007197   0.127447
     90       0.012963  -0.070992   0.077523   0.076995   0.046317  -0.156444
     91      -0.030090   0.063196  -0.097277  -0.018961  -0.100922   0.020928
     92       0.016859   0.018864  -0.182289   0.168057  -0.187256  -0.316236
     93      -0.025297   0.090779   0.055969   0.001707  -0.065441   0.105187
     94      -0.030639   0.080837  -0.082384  -0.032924  -0.102832   0.076643
     95       0.094570   0.037506   0.210346   0.029366   0.043955   0.326091
     96       0.010878   0.089598   0.016135  -0.002564  -0.048694   0.011858
     97      -0.057577   0.202778  -0.009697  -0.018150  -0.114637   0.032430
     98       0.144561   0.082889  -0.121698   0.112951   0.010581   0.055122
     99       0.014722   0.066932   0.018753   0.010182  -0.027988   0.010838
    100      -0.076115   0.251400  -0.021891  -0.020849  -0.162483   0.049068
    101       0.085931   0.057229  -0.159367   0.277436   0.012134   0.142472
    102       0.006710   0.116376   0.045320  -0.101538  -0.079251  -0.033968
    103       0.059053   0.262965  -0.013579  -0.150625  -0.112037  -0.028603
    104       0.221929   0.124141  -0.122855   0.020069   0.010825   0.012318
    105       0.003484   0.129087  -0.026811   0.074718  -0.078993   0.069789
    106      -0.166012   0.135269  -0.003656   0.109562  -0.108233   0.087941
    107       0.230816   0.129412  -0.119360   0.000036   0.010586   0.002016
                 12         13         14         15         16         17    
      0       0.021628  -0.026931  -0.008676  -0.011838  -0.033042   0.005512
      1      -0.011600   0.021633  -0.010544  -0.045970   0.157969   0.022082
      2      -0.023186   0.157908  -0.020495   0.020482  -0.080742   0.038737
      3       0.039930  -0.063547  -0.002837   0.007850  -0.113006  -0.003858
      4      -0.000155   0.004378  -0.005633  -0.030560   0.096646   0.012392
      5      -0.002370   0.075595  -0.025621   0.012684  -0.036936   0.057949
      6       0.046956  -0.100968   0.000032   0.002302  -0.089079  -0.016260
      7       0.016744  -0.021600   0.004797   0.002393  -0.025205  -0.014797
      8       0.029057  -0.085501  -0.009843   0.000962   0.037767   0.005043
      9       0.037160  -0.107980  -0.003643  -0.029038   0.022759  -0.014649
     10       0.022334  -0.031821   0.009918   0.016145  -0.070841  -0.025433
     11       0.038638  -0.163695   0.010547  -0.000381   0.060586  -0.053153
     12       0.017483  -0.066239  -0.010525  -0.050983   0.098997   0.012285
     13       0.011572  -0.013425   0.004774  -0.000637  -0.008422  -0.011149
     14       0.009741  -0.049294   0.012692   0.011311  -0.021268  -0.003061
     15       0.011941  -0.028897  -0.013114  -0.043534   0.065531   0.020460
     16      -0.005701   0.013591  -0.005537  -0.032967   0.111933   0.015539
     17      -0.021329   0.114118  -0.002773   0.022546  -0.095053   0.048129
     18       0.024426  -0.029910  -0.009490  -0.004235  -0.024826  -0.000192
     19      -0.012745   0.028919  -0.016263  -0.049581   0.136215  -0.028012
     20      -0.000725   0.119088  -0.029350   0.023276  -0.051092  -0.049856
     21       0.050452  -0.067809   0.000093   0.028455  -0.200206  -0.012715
     22      -0.005743   0.013428  -0.009519  -0.039636   0.133966   0.021506
     23      -0.007894   0.116109  -0.040341   0.012055  -0.036965   0.088262
     24      -0.002403  -0.007299  -0.017444  -0.064991   0.129967   0.035554
     25      -0.014354   0.021219  -0.008855  -0.048958   0.160828   0.024300
     26      -0.039760   0.178976   0.000727   0.032587  -0.142178   0.067743
     27       0.043001  -0.140584  -0.001205  -0.033410   0.048262  -0.029315
     28       0.035092  -0.053748   0.017738   0.039662  -0.154658  -0.043301
     29       0.067985  -0.310377   0.023957  -0.010240   0.135542  -0.122464
     30      -0.053352   0.090174  -0.001295  -0.032540  -0.028384   0.052981
     31       0.158470   0.075983  -0.021715  -0.023252   0.011325  -0.121892
     32       0.006078   0.039890  -0.031765   0.043372  -0.032464  -0.053971
     33      -0.053054   0.098518   0.002467   0.018848   0.021939   0.008684
     34       0.151983   0.024166  -0.029113  -0.131853  -0.097584   0.081371
     35       0.035789  -0.123360  -0.039495   0.151046   0.043099   0.147861
     36       0.021626   0.005203   0.005763   0.044306  -0.017072   0.058312
     37       0.079300   0.028782   0.009193   0.225757  -0.004953   0.017339
     38      -0.191566  -0.059592   0.007035  -0.284512  -0.049481  -0.124566
     39      -0.105699   0.085114   0.022715   0.008704   0.005514   0.088177
     40       0.104561   0.006984  -0.016273  -0.145381  -0.120372   0.160289
     41       0.064326  -0.112583   0.163884   0.046034   0.027397   0.062315
     42      -0.065934   0.185197  -0.037344   0.016681   0.029569  -0.153691
     43       0.149423   0.093320   0.109345  -0.259258  -0.150991  -0.056182
     44       0.040176  -0.196463  -0.137232   0.249871   0.082618   0.289962
     45      -0.018979   0.033414   0.034498   0.089518   0.095309   0.022043
     46       0.145416  -0.056422  -0.172315  -0.010890  -0.054198   0.255864
     47       0.033780  -0.182438  -0.131923   0.238101   0.078774   0.268428
     48      -0.147907   0.149567   0.087420  -0.016956   0.009675   0.040305
     49       0.098536   0.064551  -0.110251  -0.109120  -0.121624   0.176064
     50       0.078386  -0.172113   0.221761   0.024702   0.028261   0.056793
     51      -0.144407  -0.001433  -0.019198   0.083231   0.035494   0.131667
     52       0.127083  -0.050435   0.076283  -0.183551  -0.120986   0.124224
     53       0.075401  -0.159346   0.220250   0.027118   0.028843   0.044566
     54       0.089190  -0.068742  -0.012563   0.009600  -0.078658  -0.183049
     55      -0.068854   0.010387  -0.013326  -0.038116   0.091450  -0.060687
     56       0.138667   0.110844  -0.035386   0.033716  -0.054207  -0.167787
     57       0.104076   0.033451  -0.016739  -0.003347   0.041988   0.001005
     58      -0.224245  -0.094703   0.032008   0.078820  -0.262066  -0.021941
     59       0.004390   0.009324   0.007973  -0.026907   0.148139   0.044692
     60       0.025622  -0.023774  -0.002478  -0.029454  -0.014979  -0.068158
     61      -0.053738   0.018027  -0.009754  -0.064382   0.140942  -0.040211
     62       0.160180   0.114113  -0.030030   0.008114  -0.011177  -0.150680
     63       0.120306   0.043627  -0.020573   0.011922   0.012105  -0.009473
     64      -0.185429  -0.070276   0.022204   0.113835  -0.360121  -0.062105
     65       0.017753   0.018250   0.007086  -0.011570   0.243501   0.100400
     66       0.047184  -0.047672   0.014187   0.023554   0.012193  -0.007391
     67       0.052630   0.010104   0.019334   0.231602   0.031419   0.066055
     68      -0.217212  -0.082857   0.020730  -0.236100  -0.002652  -0.048434
     69       0.102279   0.019046  -0.010334  -0.004105   0.031150  -0.015531
     70      -0.135183  -0.070191   0.031986   0.171326  -0.166902   0.027978
     71      -0.034816  -0.002146   0.008360  -0.059696   0.098032   0.022167
     72       0.055694  -0.065497   0.017740   0.014123   0.022153  -0.035002
     73       0.028912   0.028665   0.021570   0.259187   0.040404   0.127425
     74      -0.199970  -0.122264   0.029030  -0.257919   0.020327  -0.107589
     75       0.032843  -0.085890  -0.013146   0.001397   0.048420   0.014344
     76      -0.090828   0.003027  -0.013642  -0.045562   0.141790  -0.004675
     77      -0.099566   0.075065  -0.026649   0.030489  -0.027826  -0.012658
     78      -0.099507   0.166709   0.002129  -0.013578   0.021601  -0.046833
     79       0.191637   0.122652  -0.022971   0.041693   0.019476  -0.283927
     80      -0.090079   0.058190  -0.027345  -0.023811   0.009124   0.059374
     81      -0.065199   0.105300   0.014317  -0.031236  -0.022175   0.124300
     82      -0.010712  -0.005628   0.009478  -0.044009  -0.043631   0.064312
     83       0.046967   0.058003   0.177879  -0.019264  -0.000694   0.002855
     84       0.031973   0.059638   0.085391  -0.072952  -0.062151   0.230633
     85      -0.080586  -0.128506  -0.186477   0.014265  -0.015573   0.062907
     86       0.081217   0.165146   0.317344  -0.055919  -0.013793  -0.020498
     87      -0.042534   0.175491  -0.069669  -0.120706  -0.086339   0.163860
     88       0.034829   0.121239   0.220019  -0.073280  -0.046179   0.023426
     89       0.079668   0.149661   0.310320  -0.047804  -0.009132  -0.019472
     90       0.007709  -0.064180  -0.013817  -0.072877   0.187791   0.025246
     91       0.016604  -0.022443   0.008547   0.008843  -0.046065  -0.018956
     92       0.014401  -0.098930   0.027170   0.011455  -0.019016  -0.017684
     93       0.059963  -0.126129   0.005314   0.023057  -0.157334  -0.030631
     94       0.023939  -0.032370   0.008749   0.017458  -0.077038  -0.024085
     95       0.048705  -0.162334  -0.012878  -0.007722   0.088379  -0.003092
     96      -0.182594   0.095778   0.021643   0.105385   0.091192  -0.039343
     97      -0.123158  -0.015370   0.022881   0.090214   0.067972  -0.102524
     98      -0.064755  -0.025291  -0.185963  -0.003563  -0.006926  -0.000322
     99      -0.138441   0.103026   0.013504   0.044795   0.041576   0.025156
    100      -0.226222  -0.013832   0.050936   0.220061   0.178863  -0.273004
    101      -0.066547   0.086890  -0.130367  -0.071976  -0.036274  -0.119599
    102      -0.217732   0.040791   0.083690   0.225045   0.178499  -0.060580
    103      -0.180553  -0.132144  -0.220218   0.136291   0.077449  -0.023364
    104      -0.104560  -0.105603  -0.344651   0.032733   0.003497   0.051308
    105      -0.281881   0.138442  -0.025995   0.156534   0.145771  -0.220491
    106      -0.048899   0.096580   0.251308   0.022421   0.038636  -0.148534
    107      -0.106730  -0.120110  -0.357339   0.041314   0.007193   0.065440
                 18         19         20         21         22         23    
      0       0.056142   0.056384  -0.001718  -0.000657   0.005424  -0.000553
      1      -0.062324   0.124888  -0.034121   0.007175   0.044575   0.002422
      2       0.101444   0.043297   0.003158  -0.003188   0.002908   0.003003
      3       0.125192   0.045428   0.014717  -0.004858  -0.001994  -0.002355
      4      -0.022378   0.103258  -0.021129   0.004473   0.041684   0.001830
      5       0.146958   0.097301  -0.001891  -0.007650  -0.053772  -0.008235
      6       0.093117   0.032941   0.014375  -0.003154   0.009309  -0.000568
      7       0.030720  -0.007211   0.012211  -0.002166   0.005041   0.000088
      8      -0.002493   0.004640  -0.001083  -0.000820  -0.024596  -0.000701
      9       0.020500   0.095833  -0.007146   0.004013   0.064906   0.002999
     10       0.035029  -0.057729   0.022395  -0.003699  -0.008414  -0.000012
     11      -0.164794  -0.119729   0.001184   0.009014   0.045447   0.008205
     12       0.012296   0.169591  -0.026109   0.005615   0.058132  -0.000007
     13       0.010312  -0.013292   0.007351  -0.001439  -0.005930  -0.001021
     14       0.016338  -0.021236   0.006724  -0.001134  -0.027975  -0.005160
     15       0.056263   0.167528  -0.018875   0.002288   0.037714  -0.000726
     16      -0.045061   0.089667  -0.025637   0.004876   0.024421   0.001384
     17       0.172897   0.068885   0.010611  -0.009241  -0.066914  -0.005870
     18       0.000007   0.023816  -0.007196   0.002503   0.008313   0.001792
     19       0.011793  -0.017330   0.023935  -0.005428  -0.016748  -0.008472
     20      -0.021950  -0.029463   0.017321   0.007300   0.124957   0.008396
     21       0.194215   0.014150   0.035062  -0.009727  -0.014642  -0.004348
     22      -0.041074   0.126791  -0.030769   0.005966   0.042196   0.001384
     23       0.211511   0.158129  -0.005630  -0.010772  -0.074832  -0.015136
     24       0.053892   0.237833  -0.026904   0.003984   0.061386   0.006377
     25      -0.056295   0.139478  -0.033720   0.006797   0.046336   0.006460
     26       0.265631   0.090560   0.021839  -0.014466  -0.106734  -0.012432
     27      -0.030740   0.070981  -0.008952   0.007060   0.084785   0.005558
     28       0.058457  -0.127769   0.040283  -0.006718  -0.024500   0.000112
     29      -0.371482  -0.250031   0.000190   0.020748   0.124664   0.019168
     30      -0.018529  -0.012655   0.003947   0.002123   0.037353   0.002003
     31      -0.033359   0.022893  -0.066751  -0.015020  -0.198319   0.004827
     32      -0.022524  -0.036900   0.026902   0.010838   0.132035   0.005200
     33      -0.047624  -0.023818  -0.023012  -0.001324  -0.047507   0.002088
     34      -0.037737  -0.021559  -0.015180   0.000099  -0.068152   0.001363
     35      -0.040376  -0.040001  -0.040814   0.019751  -0.101367   0.000945
     36      -0.011670  -0.029507   0.060115   0.007672   0.116386   0.038043
     37       0.043816  -0.044753  -0.073237   0.015849   0.037068   0.054429
     38       0.000695  -0.008112  -0.125653  -0.005448  -0.131402   0.076007
     39      -0.097393  -0.092852  -0.001382   0.008517   0.010780  -0.001776
     40      -0.065936  -0.070795   0.010719   0.009194   0.012175  -0.001604
     41      -0.004159   0.008229  -0.015824   0.023664  -0.046293  -0.000860
     42      -0.020891   0.005901  -0.006756  -0.011837   0.025474   0.005523
     43      -0.003790   0.006513   0.048388   0.001899   0.127369  -0.000094
     44      -0.072343  -0.067773  -0.093837   0.020697  -0.269103   0.001351
     45      -0.042679   0.011919  -0.081695  -0.004487  -0.235410   0.001981
     46      -0.080083  -0.062258  -0.074450   0.001365  -0.249760   0.001955
     47      -0.069229  -0.066061  -0.083908   0.020476  -0.237247   0.001042
     48      -0.083227  -0.093880   0.011910  -0.029591   0.084866  -0.001830
     49      -0.080280  -0.090760  -0.020554  -0.042428  -0.014109  -0.003004
     50       0.005586   0.024671   0.006044   0.072576  -0.042477   0.000555
     51      -0.108048  -0.105977   0.010691   0.054944   0.008451  -0.002052
     52      -0.043804  -0.035875   0.034278   0.061102   0.019195  -0.001557
     53       0.008454   0.028874   0.001574   0.063399  -0.040962  -0.000933
     54       0.039725  -0.175776   0.072398  -0.014865  -0.024007  -0.014694
     55       0.125691  -0.192405   0.121557  -0.014068   0.014847  -0.018532
     56      -0.166278   0.070424  -0.069095   0.006170   0.053482   0.009079
     57       0.024475  -0.035671  -0.016799   0.002366   0.006692   0.010734
[...]
     73       0.000412  -0.010880   0.003246   0.000575  -0.043694   0.007147
     74       0.000620  -0.010853   0.004937   0.001184   0.412134  -0.066939
     75       0.000107   0.000808   0.001065  -0.001634  -0.000318   0.000147
     76       0.000043   0.014466   0.022422   0.002559  -0.000252  -0.000013
     77       0.000375  -0.010509  -0.013814  -0.003887   0.000025  -0.000048
     78      -0.000893   0.004573   0.001949   0.528747  -0.001411   0.000889
     79       0.000580  -0.003551  -0.001332  -0.668765   0.002541  -0.001392
     80       0.000276  -0.005412  -0.001044  -0.517278   0.001011  -0.000793
     81      -0.000015  -0.000051  -0.000012  -0.000024  -0.000019  -0.000005
     82      -0.000051  -0.000155  -0.000158   0.000052   0.000009  -0.000009
     83       0.000001   0.000062   0.000020   0.000036  -0.000002   0.000003
     84       0.000077   0.000501   0.000533  -0.000234   0.000047  -0.000112
     85       0.000343   0.001072   0.001477  -0.000242  -0.000077  -0.000097
     86       0.000404   0.001290   0.001472  -0.000312  -0.000144  -0.000031
     87       0.000023   0.000230   0.000112   0.000203   0.000299  -0.000089
     88       0.000281   0.000978   0.000867   0.000367   0.000252  -0.000085
     89      -0.000400  -0.001524  -0.001065  -0.000416  -0.000215   0.000033
     90      -0.063019  -0.001539  -0.001087  -0.000511  -0.000012   0.000192
     91      -0.147688  -0.003467  -0.001254  -0.000794  -0.000036   0.000466
     92       0.023975   0.000495   0.000390   0.000244   0.000067  -0.000093
     93      -0.014800  -0.003790  -0.003766  -0.000959  -0.000034  -0.000175
     94       0.021576   0.005395   0.005395   0.000972   0.000005   0.000280
     95       0.001816   0.000422   0.000510   0.000138   0.000028   0.000003
     96      -0.000010  -0.000098  -0.000018  -0.000018  -0.000020   0.000012
     97      -0.000013  -0.000048  -0.000140   0.000020  -0.000023   0.000041
     98      -0.000008   0.000162  -0.000023   0.000017   0.000020   0.000006
     99       0.000101   0.001635   0.000080   0.000032   0.000211  -0.000051
    100       0.000058   0.000680   0.000069   0.000047   0.000049  -0.000050
    101      -0.000004  -0.000180   0.000033  -0.000020  -0.000047   0.000012
    102      -0.000002  -0.000035   0.000058   0.000028  -0.000045   0.000032
    103      -0.000012   0.000576   0.000508  -0.000140   0.000203  -0.000186
    104       0.000054  -0.001226  -0.000123   0.000216  -0.000337   0.000080
    105       0.000007  -0.000305   0.000097   0.000059   0.000014  -0.000027
    106       0.000049  -0.000570   0.000837  -0.000417   0.000083  -0.000316
    107       0.000032  -0.000438   0.000458  -0.000459   0.000156  -0.000143


-----------
IR SPECTRUM  
-----------

 Mode    freq (cm**-1)   T**2         TX         TY         TZ
-------------------------------------------------------------------
   7:        46.55    0.000000  (  0.000000   0.000000   0.000000)
   8:        59.61    0.000000  (  0.000000   0.000000   0.000000)
   9:        64.08    0.000000  (  0.000000   0.000000   0.000000)
  10:        70.13    0.000000  (  0.000000   0.000000   0.000000)
  11:        74.03    0.000000  (  0.000000   0.000000   0.000000)
  12:        99.23    0.000000  (  0.000000   0.000000   0.000000)
  13:       110.17    0.000000  (  0.000000   0.000000   0.000000)
  14:       113.47    0.000000  (  0.000000   0.000000   0.000000)
  15:       166.89    0.000000  (  0.000000   0.000000   0.000000)
  16:       173.48    0.000000  (  0.000000   0.000000   0.000000)
  17:       217.74    0.000000  (  0.000000   0.000000   0.000000)
  18:       241.14    0.000000  (  0.000000   0.000000   0.000000)
  19:       246.95    0.000000  (  0.000000   0.000000   0.000000)
  20:       261.54    0.000000  (  0.000000   0.000000   0.000000)
  21:       269.21    0.000000  (  0.000000   0.000000   0.000000)
  22:       305.94    0.000000  (  0.000000   0.000000   0.000000)
  23:       336.09    0.000000  (  0.000000   0.000000   0.000000)
  24:       356.34    0.000000  (  0.000000   0.000000   0.000000)
  25:       359.96    0.000000  (  0.000000   0.000000   0.000000)
  26:       381.39    0.000000  (  0.000000   0.000000   0.000000)
  27:       406.93    0.000000  (  0.000000   0.000000   0.000000)
  28:       429.82    0.000000  (  0.000000   0.000000   0.000000)
  29:       474.88    0.000000  (  0.000000   0.000000   0.000000)
  30:       488.83    0.000000  (  0.000000   0.000000   0.000000)
  31:       522.99    0.000000  (  0.000000   0.000000   0.000000)
  32:       546.89    0.000000  (  0.000000   0.000000   0.000000)
  33:       588.95    0.000000  (  0.000000   0.000000   0.000000)
  34:       623.68    0.000000  (  0.000000   0.000000   0.000000)
  35:       635.89    0.000000  (  0.000000   0.000000   0.000000)
  36:       679.33    0.000000  (  0.000000   0.000000   0.000000)
  37:       700.73    0.000000  (  0.000000   0.000000   0.000000)
  38:       758.73    0.000000  (  0.000000   0.000000   0.000000)
  39:       766.04    0.000000  (  0.000000   0.000000   0.000000)
  40:       805.24    0.000000  (  0.000000   0.000000   0.000000)
  41:       820.24    0.000000  (  0.000000   0.000000   0.000000)
  42:       840.12    0.000000  (  0.000000   0.000000   0.000000)
  43:       864.11    0.000000  (  0.000000   0.000000   0.000000)
  44:       885.33    0.000000  (  0.000000   0.000000   0.000000)
  45:       910.33    0.000000  (  0.000000   0.000000   0.000000)
  46:       930.57    0.000000  (  0.000000   0.000000   0.000000)
  47:       934.95    0.000000  (  0.000000   0.000000   0.000000)
  48:       937.86    0.000000  (  0.000000   0.000000   0.000000)
  49:       949.92    0.000000  (  0.000000   0.000000   0.000000)
  50:       967.64    0.000000  (  0.000000   0.000000   0.000000)
  51:       982.53    0.000000  (  0.000000   0.000000   0.000000)
  52:      1035.20    0.000000  (  0.000000   0.000000   0.000000)
  53:      1067.20    0.000000  (  0.000000   0.000000   0.000000)
  54:      1076.85    0.000000  (  0.000000   0.000000   0.000000)
  55:      1098.30    0.000000  (  0.000000   0.000000   0.000000)
  56:      1117.47    0.000000  (  0.000000   0.000000   0.000000)
  57:      1118.92    0.000000  (  0.000000   0.000000   0.000000)
  58:      1130.90    0.000000  (  0.000000   0.000000   0.000000)
  59:      1155.07    0.000000  (  0.000000   0.000000   0.000000)
  60:      1178.45    0.000000  (  0.000000   0.000000   0.000000)
  61:      1190.12    0.000000  (  0.000000   0.000000   0.000000)
  62:      1206.07    0.000000  (  0.000000   0.000000   0.000000)
  63:      1220.15    0.000000  (  0.000000   0.000000   0.000000)
  64:      1225.15    0.000000  (  0.000000   0.000000   0.000000)
  65:      1257.58    0.000000  (  0.000000   0.000000   0.000000)
  66:      1274.73    0.000000  (  0.000000   0.000000   0.000000)
  67:      1278.35    0.000000  (  0.000000   0.000000   0.000000)
  68:      1282.14    0.000000  (  0.000000   0.000000   0.000000)
  69:      1289.88    0.000000  (  0.000000   0.000000   0.000000)
  70:      1302.62    0.000000  (  0.000000   0.000000   0.000000)
  71:      1330.58    0.000000  (  0.000000   0.000000   0.000000)
  72:      1350.73    0.000000  (  0.000000   0.000000   0.000000)
  73:      1358.25    0.000000  (  0.000000   0.000000   0.000000)
  74:      1378.26    0.000000  (  0.000000   0.000000   0.000000)
  75:      1423.44    0.000000  (  0.000000   0.000000   0.000000)
  76:      1427.58    0.000000  (  0.000000   0.000000   0.000000)
  77:      1462.88    0.000000  (  0.000000   0.000000   0.000000)
  78:      1469.39    0.000000  (  0.000000   0.000000   0.000000)
  79:      1498.92    0.000000  (  0.000000   0.000000   0.000000)
  80:      1504.00    0.000000  (  0.000000   0.000000   0.000000)
  81:      1507.44    0.000000  (  0.000000   0.000000   0.000000)
  82:      1510.87    0.000000  (  0.000000   0.000000   0.000000)
  83:      1525.52    0.000000  (  0.000000   0.000000   0.000000)
  84:      1540.89    0.000000  (  0.000000   0.000000   0.000000)
  85:      1569.13    0.000000  (  0.000000   0.000000   0.000000)
  86:      1576.18    0.000000  (  0.000000   0.000000   0.000000)
  87:      2880.31    0.000000  (  0.000000   0.000000   0.000000)
  88:      2892.75    0.000000  (  0.000000   0.000000   0.000000)
  89:      2904.15    0.000000  (  0.000000   0.000000   0.000000)
  90:      2938.28    0.000000  (  0.000000   0.000000   0.000000)
  91:      2962.35    0.000000  (  0.000000   0.000000   0.000000)
  92:      2968.31    0.000000  (  0.000000   0.000000   0.000000)
  93:      2975.76    0.000000  (  0.000000   0.000000   0.000000)
  94:      2979.47    0.000000  (  0.000000   0.000000   0.000000)
  95:      2984.63    0.000000  (  0.000000   0.000000   0.000000)
  96:      2998.20    0.000000  (  0.000000   0.000000   0.000000)
  97:      3002.54    0.000000  (  0.000000   0.000000   0.000000)
  98:      3039.55    0.000000  (  0.000000   0.000000   0.000000)
  99:      3052.80    0.000000  (  0.000000   0.000000   0.000000)
 100:      3058.60    0.000000  (  0.000000   0.000000   0.000000)
 101:      3069.55    0.000000  (  0.000000   0.000000   0.000000)
 102:      3089.96    0.000000  (  0.000000   0.000000   0.000000)
 103:      3125.24    0.000000  (  0.000000   0.000000   0.000000)
 104:      3202.85    0.000000  (  0.000000   0.000000   0.000000)
 105:      3388.08    0.000000  (  0.000000   0.000000   0.000000)
 106:      3571.68    0.000000  (  0.000000   0.000000   0.000000)
 107:      3580.39    0.000000  (  0.000000   0.000000   0.000000)

The first frequency considered to be a vibration is 7
The total number of vibrations considered is 101


--------------------------
THERMOCHEMISTRY AT 298.15K
--------------------------

Temperature         ... 298.15 K
Pressure            ... 1.00 atm
Total Mass          ... 215.29 AMU

Throughout the following assumptions are being made:
  (1) The electronic state is orbitally nondegenerate
  (2) There are no thermally accessible electronically excited states
  (3) Hindered rotations indicated by low frequency modes are not
      treated as such but are treated as vibrations and this may
      cause some error
  (4) All equations used are the standard statistical mechanics
      equations for an ideal gas
  (5) All vibrations are strictly harmonic

freq.      46.55  E(vib)   ...       0.53 
freq.      59.61  E(vib)   ...       0.51 
freq.      64.08  E(vib)   ...       0.51 
freq.      70.13  E(vib)   ...       0.50 
freq.      74.03  E(vib)   ...       0.49 
freq.      99.23  E(vib)   ...       0.46 
freq.     110.17  E(vib)   ...       0.45 
freq.     113.47  E(vib)   ...       0.45 
freq.     166.89  E(vib)   ...       0.39 
freq.     173.48  E(vib)   ...       0.38 
freq.     217.74  E(vib)   ...       0.33 
freq.     241.14  E(vib)   ...       0.31 
freq.     246.95  E(vib)   ...       0.31 
freq.     261.54  E(vib)   ...       0.30 
freq.     269.21  E(vib)   ...       0.29 
freq.     305.94  E(vib)   ...       0.26 
freq.     336.09  E(vib)   ...       0.24 
freq.     356.34  E(vib)   ...       0.22 
freq.     359.96  E(vib)   ...       0.22 
freq.     381.39  E(vib)   ...       0.21 
freq.     406.93  E(vib)   ...       0.19 
freq.     429.82  E(vib)   ...       0.18 
freq.     474.88  E(vib)   ...       0.15 
freq.     488.83  E(vib)   ...       0.15 
freq.     522.99  E(vib)   ...       0.13 
freq.     546.89  E(vib)   ...       0.12 
freq.     588.95  E(vib)   ...       0.10 
freq.     623.68  E(vib)   ...       0.09 
freq.     635.89  E(vib)   ...       0.09 
freq.     679.33  E(vib)   ...       0.08 
freq.     700.73  E(vib)   ...       0.07 
freq.     758.73  E(vib)   ...       0.06 
freq.     766.04  E(vib)   ...       0.06 
freq.     805.24  E(vib)   ...       0.05 
freq.     820.24  E(vib)   ...       0.05 
freq.     840.12  E(vib)   ...       0.04 
freq.     864.11  E(vib)   ...       0.04 
freq.     885.33  E(vib)   ...       0.04 
freq.     910.33  E(vib)   ...       0.03 
freq.     930.57  E(vib)   ...       0.03 
freq.     934.95  E(vib)   ...       0.03 
freq.     937.86  E(vib)   ...       0.03 
freq.     949.92  E(vib)   ...       0.03 
freq.     967.64  E(vib)   ...       0.03 
freq.     982.53  E(vib)   ...       0.02 
freq.    1035.20  E(vib)   ...       0.02 
freq.    1067.20  E(vib)   ...       0.02 
freq.    1076.85  E(vib)   ...       0.02 
freq.    1098.30  E(vib)   ...       0.02 
freq.    1117.47  E(vib)   ...       0.01 
freq.    1118.92  E(vib)   ...       0.01 
freq.    1130.90  E(vib)   ...       0.01 
freq.    1155.07  E(vib)   ...       0.01 
freq.    1178.45  E(vib)   ...       0.01 
freq.    1190.12  E(vib)   ...       0.01 
freq.    1206.07  E(vib)   ...       0.01 
freq.    1220.15  E(vib)   ...       0.01 
freq.    1225.15  E(vib)   ...       0.01 
freq.    1257.58  E(vib)   ...       0.01 
freq.    1274.73  E(vib)   ...       0.01 
freq.    1278.35  E(vib)   ...       0.01 
freq.    1282.14  E(vib)   ...       0.01 
freq.    1289.88  E(vib)   ...       0.01 
freq.    1302.62  E(vib)   ...       0.01 
freq.    1330.58  E(vib)   ...       0.01 
freq.    1350.73  E(vib)   ...       0.01 
freq.    1358.25  E(vib)   ...       0.01 
freq.    1378.26  E(vib)   ...       0.01 
freq.    1423.44  E(vib)   ...       0.00 
freq.    1427.58  E(vib)   ...       0.00 
freq.    1462.88  E(vib)   ...       0.00 
freq.    1469.39  E(vib)   ...       0.00 
freq.    1498.92  E(vib)   ...       0.00 
freq.    1504.00  E(vib)   ...       0.00 
freq.    1507.44  E(vib)   ...       0.00 
freq.    1510.87  E(vib)   ...       0.00 
freq.    1525.52  E(vib)   ...       0.00 
freq.    1540.89  E(vib)   ...       0.00 
freq.    1569.13  E(vib)   ...       0.00 
freq.    1576.18  E(vib)   ...       0.00 
freq.    2880.31  E(vib)   ...       0.00 
freq.    2892.75  E(vib)   ...       0.00 
freq.    2904.15  E(vib)   ...       0.00 
freq.    2938.28  E(vib)   ...       0.00 
freq.    2962.35  E(vib)   ...       0.00 
freq.    2968.31  E(vib)   ...       0.00 
freq.    2975.76  E(vib)   ...       0.00 
freq.    2979.47  E(vib)   ...       0.00 
freq.    2984.63  E(vib)   ...       0.00 
freq.    2998.20  E(vib)   ...       0.00 
freq.    3002.54  E(vib)   ...       0.00 
freq.    3039.55  E(vib)   ...       0.00 
freq.    3052.80  E(vib)   ...       0.00 
freq.    3058.60  E(vib)   ...       0.00 
freq.    3069.55  E(vib)   ...       0.00 
freq.    3089.96  E(vib)   ...       0.00 
freq.    3125.24  E(vib)   ...       0.00 
freq.    3202.85  E(vib)   ...       0.00 
freq.    3388.08  E(vib)   ...       0.00 
freq.    3571.68  E(vib)   ...       0.00 
freq.    3580.39  E(vib)   ...       0.00 

------------
INNER ENERGY
------------

The inner energy is: U= E(el) + E(ZPE) + E(vib) + E(rot) + E(trans)
    E(el)   - is the total energy from the electronic structure calculation
              = E(kin-el) + E(nuc-el) + E(el-el) + E(nuc-nuc)
    E(ZPE)  - the the zero temperature vibrational energy from the frequency calculation
    E(vib)  - the the finite temperature correction to E(ZPE) due to population
              of excited vibrational states
    E(rot)  - is the rotational thermal energy
    E(trans)- is the translational thermal energy

Summary of contributions to the inner energy U:
Electronic energy                ...    -49.38723182 Eh
Zero point energy                ...      0.30302163 Eh     190.15 kcal/mol
Thermal vibrational correction   ...      0.01513342 Eh       9.50 kcal/mol
Thermal rotational correction    ...      0.00141627 Eh       0.89 kcal/mol
Thermal translational correction ...      0.00141627 Eh       0.89 kcal/mol
-----------------------------------------------------------------------
Total thermal energy                    -49.06624423 Eh


Summary of corrections to the electronic energy:
(perhaps to be used in another calculation)
Total thermal correction                  0.01796596 Eh      11.27 kcal/mol
Non-thermal (ZPE) correction              0.30302163 Eh     190.15 kcal/mol
-----------------------------------------------------------------------
Total correction                          0.32098759 Eh     201.42 kcal/mol


--------
ENTHALPY
--------

The enthalpy is H = U + kB*T
                kB is Boltzmann's constant
Total free energy                 ...    -49.06624423 Eh 
Thermal Enthalpy correction       ...      0.00094421 Eh       0.59 kcal/mol
-----------------------------------------------------------------------
Total Enthalpy                    ...    -49.06530002 Eh


Note: Only C1 symmetry has been detected, increase convergence thresholds 
      if your molecule has a higher symmetry. Symmetry factor of 1.0 is   
      used for the rotational entropy correction. 
 

Note: Rotational entropy computed according to Herzberg 
Infrared and Raman Spectra, Chapter V,1, Van Nostrand Reinhold, 1945 
Point Group:  C1, Symmetry Number:   1  
Rotational constants in cm-1:     0.034553     0.009051     0.008177 

Vibrational entropy computed according to the QRRHO of S. Grimme
Chem.Eur.J. 2012 18 9955


-------
ENTROPY
-------

The entropy contributions are T*S = T*(S(el)+S(vib)+S(rot)+S(trans))
     S(el)   - electronic entropy
     S(vib)  - vibrational entropy
     S(rot)  - rotational entropy
     S(trans)- translational entropy
The entropies will be listed as mutliplied by the temperature to get
units of energy

Electronic entropy                ...      0.00000000 Eh      0.00 kcal/mol
Vibrational entropy               ...      0.02649624 Eh     16.63 kcal/mol
Rotational entropy                ...      0.01558967 Eh      9.78 kcal/mol
Translational entropy             ...      0.01995728 Eh     12.52 kcal/mol
-----------------------------------------------------------------------
Final entropy term                ...      0.06204319 Eh     38.93 kcal/mol

In case the symmetry of your molecule has not been determined correctly
or in case you have a reason to use a different symmetry number we print 
out the resulting rotational entropy values for sn=1,12 :
 --------------------------------------------------------
|  sn= 1 | S(rot)=       0.01558967 Eh      9.78 kcal/mol|
|  sn= 2 | S(rot)=       0.01493521 Eh      9.37 kcal/mol|
|  sn= 3 | S(rot)=       0.01455238 Eh      9.13 kcal/mol|
|  sn= 4 | S(rot)=       0.01428076 Eh      8.96 kcal/mol|
|  sn= 5 | S(rot)=       0.01407007 Eh      8.83 kcal/mol|
|  sn= 6 | S(rot)=       0.01389793 Eh      8.72 kcal/mol|
|  sn= 7 | S(rot)=       0.01375238 Eh      8.63 kcal/mol|
|  sn= 8 | S(rot)=       0.01362630 Eh      8.55 kcal/mol|
|  sn= 9 | S(rot)=       0.01351509 Eh      8.48 kcal/mol|
|  sn=10 | S(rot)=       0.01341561 Eh      8.42 kcal/mol|
|  sn=11 | S(rot)=       0.01332562 Eh      8.36 kcal/mol|
|  sn=12 | S(rot)=       0.01324347 Eh      8.31 kcal/mol|
 --------------------------------------------------------


-------------------
GIBBS FREE ENERGY
-------------------

The Gibbs free energy is G = H - T*S

Total enthalpy                    ...    -49.06530002 Eh 
Total entropy correction          ...     -0.06204319 Eh    -38.93 kcal/mol
-----------------------------------------------------------------------
Final Gibbs free energy         ...    -49.12734321 Eh

For completeness - the Gibbs free energy minus the electronic energy
G-E(el)                           ...      0.25988861 Eh    163.08 kcal/mol


Total Time for Numerical Frequencies  :       211.112 sec
Time for Reference State(s)           :         0.219 sec
Time for Displacements                :       196.808 sec

Timings for individual modules:

Sum of individual times         ...        0.456 sec (=   0.008 min)
XTB module                      ...        0.456 sec (=   0.008 min) 100.0 %
                             ****ORCA TERMINATED NORMALLY****
TOTAL RUN TIME: 0 days 0 hours 3 minutes 32 seconds 60 msec
(SLURM) EXECUTION TIME: 212.085935254 seconds.
