SLURM_JOB_ID=89

                                 *****************
                                 * O   R   C   A *
                                 *****************

           --- An Ab Initio, DFT and Semiempirical electronic structure package ---

                  #######################################################
                  #                        -***-                        #
                  #          Department of theory and spectroscopy      #
                  #               Directorship: Frank Neese             #
                  #        Max Planck Institute fuer Kohlenforschung    #
                  #                Kaiser Wilhelm Platz 1               #
                  #                 D-45470 Muelheim/Ruhr               #
                  #                      Germany                        #
                  #                                                     #
                  #                  All rights reserved                #
                  #                        -***-                        #
                  #######################################################


                         Program Version 4.2.1 -  RELEASE  -


 With contributions from (in alphabetic order):
   Daniel Aravena         : Magnetic Suceptibility
   Michael Atanasov       : Ab Initio Ligand Field Theory (pilot matlab implementation)
   Alexander A. Auer      : GIAO ZORA, VPT2
   Ute Becker             : Parallelization
   Giovanni Bistoni       : ED, misc. LED, open-shell LED, HFLD
   Martin Brehm           : Molecular dynamics
   Dmytro Bykov           : SCF Hessian
   Vijay G. Chilkuri      : MRCI spin determinant printing, contributions to CSF-ICE
   Dipayan Datta          : RHF DLPNO-CCSD density
   Achintya Kumar Dutta   : EOM-CC, STEOM-CC
   Dmitry Ganyushin       : Spin-Orbit,Spin-Spin,Magnetic field MRCI
   Miquel Garcia          : C-PCM Hessian, Gaussian charge scheme
   Yang Guo               : DLPNO-NEVPT2, CIM, IAO-localization
   Andreas Hansen         : Spin unrestricted coupled pair/coupled cluster methods
   Benjamin Helmich-Paris : CASSCF linear response (MC-RPA)
   Lee Huntington         : MR-EOM, pCC
   Robert Izsak           : Overlap fitted RIJCOSX, COSX-SCS-MP3, EOM
   Christian Kollmar      : KDIIS, OOCD, Brueckner-CCSD(T), CCSD density
   Simone Kossmann        : Meta GGA functionals, TD-DFT gradient, OOMP2, MP2 Hessian
   Martin Krupicka        : AUTO-CI
   Lucas Lang             : DCDCAS
   Dagmar Lenk            : GEPOL surface, SMD
   Dimitrios Liakos       : Extrapolation schemes; Compound Job, initial MDCI parallelization
   Dimitrios Manganas     : Further ROCIS development; embedding schemes
   Dimitrios Pantazis     : SARC Basis sets
   Taras Petrenko         : DFT Hessian,TD-DFT gradient, ASA, ECA, R-Raman, ABS, FL, XAS/XES, NRVS
   Peter Pinski           : DLPNO-MP2, DLPNO-MP2 Gradient
   Christoph Reimann      : Effective Core Potentials
   Marius Retegan         : Local ZFS, SOC
   Christoph Riplinger    : Optimizer, TS searches, QM/MM, DLPNO-CCSD(T), (RO)-DLPNO pert. Triples
   Tobias Risthaus        : Range-separated hybrids, TD-DFT gradient, RPA, STAB
   Michael Roemelt        : Original ROCIS implementation
   Masaaki Saitow         : Open-shell DLPNO-CCSD energy and density
   Barbara Sandhoefer     : DKH picture change effects
   Avijit Sen             : IP-ROCIS
   Kantharuban Sivalingam : CASSCF convergence, NEVPT2, FIC-MRCI
   Bernardo de Souza      : ESD, SOC TD-DFT
   Georgi Stoychev        : AutoAux, RI-MP2 NMR
   Willem Van den Heuvel  : Paramagnetic NMR
   Boris Wezisla          : Elementary symmetry handling
   Frank Wennmohs         : Technical directorship


 We gratefully acknowledge several colleagues who have allowed us to
 interface, adapt or use parts of their codes:
   Stefan Grimme, W. Hujo, H. Kruse,             : VdW corrections, initial TS optimization,
                  C. Bannwarth                     DFT functionals, gCP, sTDA/sTD-DF
   Ed Valeev, F. Pavosevic, A. Kumar             : LibInt (2-el integral package), F12 methods
   Garnet Chan, S. Sharma, J. Yang, R. Olivares  : DMRG
   Ulf Ekstrom                                   : XCFun DFT Library
   Mihaly Kallay                                 : mrcc  (arbitrary order and MRCC methods)
   Andreas Klamt, Michael Diedenhofen            : otool_cosmo (COSMO solvation model)
   Jiri Pittner, Ondrej Demel                    : Mk-CCSD
   Frank Weinhold                                : gennbo (NPA and NBO analysis)
   Christopher J. Cramer and Donald G. Truhlar   : smd solvation model
   Lars Goerigk                                  : TD-DFT with DH, B97 family of functionals
   V. Asgeirsson, H. Jonsson                     : NEB implementation
   FAccTs GmbH                                   : IRC, NEB, NEB-TS, Multilevel, MM, QM/MM, CI optimization
   S Lehtola, MJT Oliveira, MAL Marques          : LibXC Library


 Your calculation uses the libint2 library for the computation of 2-el integrals
 For citations please refer to: http://libint.valeyev.net

 Your ORCA version has been built with support for libXC version: 4.2.3
 For citations please refer to: https://tddft.org/programs/libxc/

 This ORCA versions uses:
   CBLAS   interface :  Fast vector & matrix operations
   LAPACKE interface :  Fast linear algebra routines
   SCALAPACK package :  Parallel linear algebra routines




***************************************
The coordinates will be read from file: init.xyz
***************************************


Your calculation utilizes the SMD solvation module
Please cite in your paper:
A.V. Marenich, C.J. Cramer, D.G. Truhlar J. Phys. Chem. B, 113, (2009), 6378 

Your calculation utilizes the semiempirical GFN2-xTB method
Please cite in your paper:
C. Bannwarth, Ehlert S., S. Grimme,  J. Chem. Theory Comput., 15, (2019), 1652.
   

----- Orbital basis set information -----
Your calculation utilizes the basis: def2-SVP
   F. Weigend and R. Ahlrichs, Phys. Chem. Chem. Phys. 7, 3297 (2005).

================================================================================
                                        WARNINGS
                       Please study these warnings very carefully!
================================================================================

WARNING: Gradients needed for Numerical Frequencies
  ===> : Setting RunTyp to EnGrad

WARNING: The environment variable RSH_COMMAND is not set!
  ===> : All Displacements for the Numerical Hessian calculation
         will be started on localhost

WARNING: Found dipole moment calculation with XTB calculation
  ===> : Switching off dipole moment calculation


INFO   : the flag for use of LIBINT has been found!

================================================================================
                                       INPUT FILE
================================================================================
NAME = /tmp/slurm-scratch/freq.89/freq.inp
|  1> ! XTB2 NumFreq
|  2> %maxcore 2000
|  3> 
|  4> * xyzfile 0 1 init.xyz
|  5> 
|  6> %cpcm
|  7>  smd true
|  8>  smdsolvent "ch2cl2"
|  9> end
| 10> %pal nprocs 11 end
| 11> 
| 12>                          ****END OF INPUT****
================================================================================

                     *******************************
                     * Energy+Gradient Calculation *
                     *******************************

      -----------------------------------------------------------      
     |                   =====================                   |     
     |                           x T B                           |     
     |                   =====================                   |     
     |                         S. Grimme                         |     
     |          Mulliken Center for Theoretical Chemistry        |     
     |                    University of Bonn                     |     
      -----------------------------------------------------------      

   * xtb version 6.3.1 (461a024) compiled by 'schneider@apollo14' on 2020-06-26

   xtb is free software: you can redistribute it and/or modify it under
   the terms of the GNU Lesser General Public License as published by
   the Free Software Foundation, either version 3 of the License, or
   (at your option) any later version.
   
   xtb is distributed in the hope that it will be useful,
   but WITHOUT ANY WARRANTY; without even the implied warranty of
   MERCHANTABILITY or FITNESS FOR A PARTICULAR PURPOSE.  See the
   GNU Lesser General Public License for more details.
   
   Cite this work as:
   * S. Grimme, C. Bannwarth, P. Shushkov, J. Chem. Theory Comput., 2017,
     13, 1989-2009. DOI: 10.1021/acs.jctc.7b00118
   * C. Bannwarth, S. Ehlert and S. Grimme., J. Chem. Theory Comput., 2019,
     15, 1652-1671. DOI: 10.1021/acs.jctc.8b01176
   * P. Pracht, E. Caldeweyher, S. Ehlert, S. Grimme, ChemRxiv, 2019, preprint.
     DOI: 10.26434/chemrxiv.8326202.v1
   
   for GFN-FF:
   * S. Spicher and S. Grimme, Angew. Chem. Int. Ed., 2020,
     DOI: 10.1002/anie.202004239
   
   for DFT-D4:
   * E. Caldeweyher, C. Bannwarth and S. Grimme, J. Chem. Phys., 2017,
     147, 034112. DOI: 10.1063/1.4993215
   * E. Caldeweyher, S. Ehlert, A. Hansen, H. Neugebauer, S. Spicher,
     C. Bannwarth and S. Grimme, J. Chem. Phys., 2019, 150, 154122.
     DOI: 10.1063/1.5090222
   
   for sTDA-xTB:
   * S. Grimme and C. Bannwarth, J. Chem. Phys., 2016, 145, 054103.
     DOI: 10.1063/1.4959605
   
   in the mass-spec context:
   * V. Asgeirsson, C. Bauer and S. Grimme, Chem. Sci., 2017, 8, 4879.
     DOI: 10.1039/c7sc00601b
   * J. Koopman and S. Grimme, ACS Omega 2019, 4, 12, 15120-15133.
     DOI: 10.1021/acsomega.9b02011
   
   for metadynamics refer to:
   * S. Grimme, J. Chem. Theory Comput., 2019, 155, 2847-2862
     DOI: 10.1021/acs.jctc.9b00143
   
   with help from (in alphabetical order)
   C. Bannwarth, F. Bohle, G. Brandenburg, E. Caldeweyher, M. Checinski,
   S. Dohm, S. Ehlert, S. Ehrlich, F. März, H. Neugebauer, J. Pisarek,
   P. Pracht, P. Shushkov, and S. Spicher.
   
 * started run on 2020/08/05 at 11:55:24.558     

           -------------------------------------------------
          |                Calculation Setup                |
           -------------------------------------------------

          program call               : /opt/orca/otool_xtb /tmp/slurm-scratch/freq.89/freq_XTB.xyz --grad -c 0 -u 0 -P 11 --namespace /tmp/slurm-scratch/freq.89/freq --gbsa CH2Cl2
          hostname                   : apollo14
          calculation namespace      : /tmp/slurm-scratch/freq.89/freq
          coordinate file            : /tmp/slurm-scratch/freq.89/freq_XTB.xyz
          omp threads                :                    11
          number of atoms            :                    36
          number of electrons        :                    88
          charge                     :                     0
          spin                       :                   0.0
          first test random number   :      0.26631667022781

   ID    Z sym.   atoms
    1    6 C      1-7, 12, 14, 28, 33
    2    1 H      8-10, 13, 15-18, 21, 22, 24-27, 29-32, 34-36
    3    7 N      11
    4    8 O      19, 20, 23

molecular fragmentation (1/2 indicates fragments):
111111111111211111121222211111111111
# atoms in fragment 1/2:    30     6
 fragment masses (1/2) :      179.26       36.03
CMA distance (Bohr)    :   5.240
constraining FC (au)   :  0.0500
########################################################################
[WARNING] Please study the warnings concerning your input carefully
-1- prog_main_parseArguments: Process number higher than OMP_NUM_THREADS, I hope you know what you are doing.
########################################################################

           -------------------------------------------------
          |                 G F N 2 - x T B                 |
           -------------------------------------------------

        Reference                      10.1021/acs.jctc.8b01176
      * Hamiltonian:
        H0-scaling (s, p, d)           1.850000    2.230000    2.230000
        zeta-weighting                 0.500000
      * Dispersion:
        s8                             2.700000
        a1                             0.520000
        a2                             5.000000
        s9                             5.000000
      * Repulsion:
        kExp                           1.500000    1.000000
        rExp                           1.000000
      * Coulomb:
        alpha                          2.000000
        third order                    shell-resolved
        anisotropic                    true
        a3                             3.000000
        a5                             4.000000
        cn-shift                       1.200000
        cn-exp                         4.000000
        max-rad                        5.000000

      * Solvation model:               GBSA
        Solvent                        CH2Cl2
        Parameter file                 internal GFN2-xTB/GBSA
        Dielectric constant                8.9300E+00
        Reference state                gsolv [1 M gas/solution]
        Free energy shift                  4.4408E-03 Eh       2.7867E+00 kcal/mol
        Temperature                        2.9815E+02 K
        Density                            1.3300E+00 kg/L
        Solvent mass                       8.4930E+01 g/mol
        Interaction kernel             Still
        Born radius scaling (c1)           1.4917E+00
        Born radii integrator          GBOBC
        Born offset                        0.0000E+00 a0       0.0000E+00 AA
        H-bond correction              false
        Ion screening                  false
        Surface tension                    1.0000E-05 Eh       1.5569E+01 dyn/cm
        Grid points                               230 per atom

          ...................................................
          :                      SETUP                      :
          :.................................................:
          :  # basis functions                  81          :
          :  # atomic orbitals                  81          :
          :  # shells                           51          :
          :  # electrons                        88          :
          :  max. iterations                   250          :
          :  Hamiltonian                  GFN2-xTB          :
          :  restarted?                      false          :
          :  GBSA solvation                   true          :
          :  PC potential                    false          :
          :  electronic temp.          300.0000000     K    :
          :  accuracy                    1.0000000          :
          :  -> integral cutoff          0.2500000E+02      :
          :  -> integral neglect         0.1000000E-07      :
          :  -> SCF convergence          0.1000000E-05 Eh   :
          :  -> wf. convergence          0.1000000E-03 e    :
          :  Broyden damping             0.4000000          :
          ...................................................

 iter      E             dE          RMSdq      gap      omega  full diag
   1    -49.9697945 -0.499698E+02  0.388E+00    4.01       0.0  T
   2    -50.0089208 -0.391263E-01  0.226E+00    4.29       1.0  T
   3    -50.0079080  0.101272E-02  0.628E-01    4.28       1.0  T
   4    -50.0107556 -0.284755E-02  0.232E-01    4.29       1.0  T
   5    -50.0123101 -0.155449E-02  0.708E-02    4.29       1.0  T
   6    -50.0123280 -0.178813E-04  0.302E-02    4.30       1.0  T
   7    -50.0123302 -0.219062E-05  0.111E-02    4.30       1.5  T
   8    -50.0123318 -0.168636E-05  0.424E-03    4.30       3.9  T
   9    -50.0123320 -0.147183E-06  0.214E-03    4.30       7.8  T
  10    -50.0123320 -0.148062E-07  0.855E-04    4.30      19.5  T
  11    -50.0123320 -0.689265E-08  0.366E-04    4.30      45.5  T

   *** convergence criteria satisfied after 11 iterations ***

         #    Occupation            Energy/Eh            Energy/eV
      -------------------------------------------------------------
         1        2.0000           -0.6897182             -18.7682
       ...           ...                  ...                  ...
        38        2.0000           -0.4362487             -11.8709
        39        2.0000           -0.4267647             -11.6129
        40        2.0000           -0.4232312             -11.5167
        41        2.0000           -0.4098132             -11.1516
        42        2.0000           -0.4087796             -11.1235
        43        2.0000           -0.4078157             -11.0972
        44        2.0000           -0.3910848             -10.6420 (HOMO)
        45                         -0.2332283              -6.3465 (LUMO)
        46                         -0.2303950              -6.2694
        47                         -0.1064081              -2.8955
        48                         -0.0091754              -0.2497
        49                          0.0269651               0.7338
       ...                                ...                  ...
        81                          0.6417382              17.4626
      -------------------------------------------------------------
                  HL-Gap            0.1578565 Eh            4.2955 eV
             Fermi-level           -0.3121565 Eh           -8.4942 eV

 SCC (total)                   0 d,  0 h,  0 min,  0.122 sec
 SCC setup                      ...        0 min,  0.008 sec (  6.638%)
 Dispersion                     ...        0 min,  0.007 sec (  5.557%)
 classical contributions        ...        0 min,  0.006 sec (  5.022%)
 integral evaluation            ...        0 min,  0.011 sec (  8.758%)
 iterations                     ...        0 min,  0.038 sec ( 31.018%)
 molecular gradient             ...        0 min,  0.051 sec ( 42.026%)
 printout                       ...        0 min,  0.001 sec (  0.964%)

         :::::::::::::::::::::::::::::::::::::::::::::::::::::
         ::                     SUMMARY                     ::
         :::::::::::::::::::::::::::::::::::::::::::::::::::::
         :: total energy             -49.387192927051 Eh    ::
         :: total w/o Gsasa/hb       -49.369738790123 Eh    ::
         :: gradient norm              0.026198521551 Eh/a0 ::
         :: HOMO-LUMO gap              4.295493603966 eV    ::
         ::.................................................::
         :: SCC energy               -50.012332010606 Eh    ::
         :: -> isotropic ES            0.106994989220 Eh    ::
         :: -> anisotropic ES         -0.005511294287 Eh    ::
         :: -> anisotropic XC          0.021149352471 Eh    ::
         :: -> dispersion             -0.029707086420 Eh    ::
         :: -> Gsolv                  -0.024426391455 Eh    ::
         ::    -> Gborn               -0.006972254528 Eh    ::
         ::    -> Gsasa               -0.021894966101 Eh    ::
         ::    -> Ghb                  0.000000000000 Eh    ::
         ::    -> Gshift               0.004440829173 Eh    ::
         :: repulsion energy           0.624849219623 Eh    ::
         :: add. restraining           0.000000000000 Eh    ::
         :::::::::::::::::::::::::::::::::::::::::::::::::::::

           -------------------------------------------------
          |                Property Printout                |
           -------------------------------------------------

    * Orbital Energies and Occupations

         #    Occupation            Energy/Eh            Energy/eV
      -------------------------------------------------------------
         1        2.0000           -0.6897182             -18.7682
       ...           ...                  ...                  ...
        32        2.0000           -0.4672667             -12.7150
        33        2.0000           -0.4501940             -12.2504
        34        2.0000           -0.4482283             -12.1969
        35        2.0000           -0.4465106             -12.1502
        36        2.0000           -0.4429548             -12.0534
        37        2.0000           -0.4379410             -11.9170
        38        2.0000           -0.4362487             -11.8709
        39        2.0000           -0.4267647             -11.6129
        40        2.0000           -0.4232312             -11.5167
        41        2.0000           -0.4098132             -11.1516
        42        2.0000           -0.4087796             -11.1235
        43        2.0000           -0.4078157             -11.0972
        44        2.0000           -0.3910848             -10.6420 (HOMO)
        45                         -0.2332283              -6.3465 (LUMO)
        46                         -0.2303950              -6.2694
        47                         -0.1064081              -2.8955
        48                         -0.0091754              -0.2497
        49                          0.0269651               0.7338
        50                          0.0635161               1.7284
        51                          0.0706062               1.9213
        52                          0.0760523               2.0695
        53                          0.0984810               2.6798
        54                          0.1067666               2.9053
        55                          0.1193930               3.2488
       ...                                ...                  ...
        81                          0.6417382              17.4626
      -------------------------------------------------------------
                  HL-Gap            0.1578565 Eh            4.2955 eV
             Fermi-level           -0.3121565 Eh           -8.4942 eV

     #   Z        covCN         q      C6AA      α(0)
     1   6 C      2.966    -0.019    28.489     8.755
     2   6 C      2.920    -0.041    29.008     8.832
     3   6 C      2.914    -0.030    28.753     8.793
     4   6 C      2.915    -0.031    28.771     8.796
     5   6 C      2.915    -0.030    28.757     8.794
     6   6 C      2.918    -0.037    28.913     8.818
     7   6 C      3.666     0.183    17.917     6.070
     8   1 H      0.925     0.028     2.618     2.530
     9   1 H      0.926     0.057     2.234     2.337
    10   1 H      0.925     0.040     2.445     2.445
    11   7 N      2.677    -0.303    27.800     7.831
    12   6 C      3.736     0.016    20.383     6.443
    13   1 H      0.800     0.313     0.684     1.299
    14   6 C      3.801    -0.072    21.872     6.658
    15   1 H      0.924     0.034     2.529     2.487
    16   1 H      0.924     0.020     2.734     2.586
    17   1 H      0.924     0.050     2.314     2.379
    18   1 H      0.924     0.049     2.331     2.388
    19   8 O      1.654    -0.487    22.624     6.421
    20   8 O      1.607    -0.626    25.814     6.857
    21   1 H      0.803     0.332     0.634     1.251
    22   1 H      0.805     0.292     0.745     1.356
    23   8 O      1.605    -0.616    25.585     6.827
    24   1 H      0.802     0.325     0.651     1.267
    25   1 H      0.805     0.291     0.747     1.358
    26   1 H      0.924     0.014     2.821     2.627
    27   1 H      0.860     0.152     1.390     1.847
    28   6 C      3.800    -0.053    21.533     6.607
    29   1 H      0.924     0.031     2.569     2.506
    30   1 H      0.924     0.030     2.589     2.516
    31   1 H      0.925     0.042     2.421     2.433
    32   1 H      0.925     0.040     2.455     2.450
    33   6 C      3.750    -0.104    22.543     6.771
    34   1 H      0.924     0.036     2.502     2.474
    35   1 H      0.924     0.037     2.486     2.466
    36   1 H      0.924     0.036     2.503     2.474

 Mol. C6AA /au·bohr⁶  :      10809.152035
 Mol. C8AA /au·bohr⁸  :     237494.368689
 Mol. α(0) /au        :        158.747857


Wiberg/Mayer (AO) data.
largest (>0.10) Wiberg bond orders for each atom
          total WBO             WBO to atom ...
     1  C   3.986        C    6 1.421    C    2 1.412    C    7 0.973    C    4 0.110
     2  C   3.991        C    3 1.447    C    1 1.412    H    8 0.969    C    5 0.113
     3  C   3.991        C    2 1.447    C    4 1.436    H   32 0.971    C    6 0.111
     4  C   3.991        C    5 1.442    C    3 1.436    H   10 0.971    C    1 0.110
     5  C   3.991        C    4 1.442    C    6 1.439    H   31 0.971    C    2 0.113
     6  C   3.990        C    5 1.439    C    1 1.421    H    9 0.963    C    3 0.111
     7  C   3.953        O   19 1.013    C    1 0.973    N   11 0.966    H   26 0.949
     8  H   0.999        C    2 0.969
     9  H   0.997        C    6 0.963
    10  H   0.998        C    4 0.971
    11  N   3.129        C   12 0.991    C    7 0.966    H   27 0.953
    12  C   3.976        C   14 1.005    N   11 0.991    H   15 0.977    H   16 0.969
    13  H   0.902        O   23 0.824
    14  C   3.994        C   28 1.006    C   12 1.005    H   18 0.974    H   17 0.973
    15  H   0.998        C   12 0.977
    16  H   1.000        C   12 0.969
    17  H   0.997        C   14 0.973
    18  H   0.998        C   14 0.974
    19  O   1.953        C    7 1.013    H   21 0.820
    20  O   1.851        H   22 0.912    H   24 0.831
    21  H   0.890        O   19 0.820
    22  H   0.915        O   20 0.912
    23  O   1.867        H   25 0.912    H   13 0.824
    24  H   0.894        O   20 0.831
    25  H   0.915        O   23 0.912
    26  H   1.000        C    7 0.949
    27  H   0.977        N   11 0.953
    28  C   3.997        C   33 1.019    C   14 1.006    H   30 0.978    H   29 0.978
    29  H   0.999        C   28 0.978
    30  H   0.999        C   28 0.978
    31  H   0.998        C    5 0.971
    32  H   0.998        C    3 0.971
    33  C   3.996        C   28 1.019    H   36 0.988    H   35 0.988    H   34 0.987
    34  H   0.998        C   33 0.987
    35  H   0.999        C   33 0.988
    36  H   0.999        C   33 0.988
Topologies differ in total number of bonds
Writing topology from bond orders to xtbtopo.mol

molecular dipole:
                 x           y           z       tot (Debye)
 q only:       -0.152       0.485       0.922
   full:       -0.234       0.950       1.040       3.629
molecular quadrupole (traceless):
                xx          xy          yy          xz          yz          zz
 q only:        8.139       0.135      -0.674       0.896      -0.238      -7.466
  q+dip:        7.708       1.811       3.063      -0.735      -1.597     -10.771
   full:        7.485       1.462       1.439      -0.097      -0.990      -8.924


           -------------------------------------------------
          | TOTAL ENERGY              -49.387192927051 Eh   |
          | GRADIENT NORM               0.026198521551 Eh/α |
          | HOMO-LUMO GAP               4.295493603966 eV   |
           -------------------------------------------------

------------------------------------------------------------------------
 * finished run on 2020/08/05 at 11:55:24.754     
------------------------------------------------------------------------
 total:
 * wall-time:     0 d,  0 h,  0 min,  0.195 sec
 *  cpu-time:     0 d,  0 h,  0 min,  2.294 sec
 * ratio c/w:    11.753 speedup
 SCF:
 * wall-time:     0 d,  0 h,  0 min,  0.130 sec
 *  cpu-time:     0 d,  0 h,  0 min,  1.537 sec
 * ratio c/w:    11.825 speedup


-------------------------   --------------------
FINAL SINGLE POINT ENERGY       -49.387192927050
-------------------------   --------------------


----------------------------------------------------------------------------
                           ORCA NUMERICAL FREQUENCIES
                              (11-process run)
----------------------------------------------------------------------------

Number of atoms                ... 36
Central differences            ... used
Number of displacements        ... 216
Numerical increment            ... 5.000e-03 bohr
IR-spectrum generation         ... on
Raman-spectrum generation      ... off
Surface Crossing Hessian       ... off
List of participating nodes    ...  /tmp/slurm-scratch/freq.89/freq.hostnames

The output will be reduced. Please look at the following files:
SCF program output             ... >/tmp/slurm-scratch/freq.89/freq.lastscf
Integral program output        ... >/tmp/slurm-scratch/freq.89/freq.lastint
Gradient program output        ... >/tmp/slurm-scratch/freq.89/freq.lastgrad
Dipole moment program output   ... >/tmp/slurm-scratch/freq.89/freq.lastmom
AutoCI program output          ... >/tmp/slurm-scratch/freq.89/freq.lastautoci


         <<< Energy and Gradient at the input geometry >>>

        <<< Energy and Gradient at displaced geometries >>>
             <<<Displacing   4/coordinate 2 (+)>>>
             <<<Displacing   1/coordinate 2 (+)>>>
             <<<Displacing   1/coordinate 1 (+)>>>
             <<<Displacing   4/coordinate 1 (+)>>>
             <<<Displacing   3/coordinate 3 (+)>>>
             <<<Displacing   4/coordinate 2 (-)>>>
             <<<Displacing   1/coordinate 1 (-)>>>
             <<<Displacing   3/coordinate 2 (+)>>>
             <<<Displacing   1/coordinate 2 (-)>>>
             <<<Displacing   2/coordinate 1 (+)>>>
             <<<Displacing   2/coordinate 3 (+)>>>
             <<<Displacing   3/coordinate 3 (-)>>>
             <<<Displacing   3/coordinate 1 (+)>>>
             <<<Displacing   4/coordinate 1 (-)>>>
             <<<Displacing   2/coordinate 2 (+)>>>
             <<<Displacing   1/coordinate 3 (+)>>>
             <<<Displacing   3/coordinate 2 (-)>>>
             <<<Displacing   2/coordinate 1 (-)>>>
             <<<Displacing   2/coordinate 3 (-)>>>
             <<<Displacing   3/coordinate 1 (-)>>>
             <<<Displacing   1/coordinate 3 (-)>>>
             <<<Displacing   2/coordinate 2 (-)>>>
             <<<Displacing   6/coordinate 2 (+)>>>
             <<<Displacing   5/coordinate 1 (+)>>>
             <<<Displacing   4/coordinate 3 (+)>>>
             <<<Displacing   5/coordinate 3 (+)>>>
             <<<Displacing   5/coordinate 1 (-)>>>
             <<<Displacing   4/coordinate 3 (-)>>>
             <<<Displacing   6/coordinate 2 (-)>>>
             <<<Displacing   6/coordinate 1 (+)>>>
             <<<Displacing   5/coordinate 2 (+)>>>
             <<<Displacing   5/coordinate 3 (-)>>>
             <<<Displacing   6/coordinate 3 (+)>>>
             <<<Displacing   6/coordinate 1 (-)>>>
             <<<Displacing   7/coordinate 1 (+)>>>
             <<<Displacing   5/coordinate 2 (-)>>>
             <<<Displacing   6/coordinate 3 (-)>>>
             <<<Displacing   7/coordinate 3 (+)>>>
             <<<Displacing   8/coordinate 1 (+)>>>
             <<<Displacing   7/coordinate 2 (+)>>>
             <<<Displacing   7/coordinate 1 (-)>>>
             <<<Displacing   7/coordinate 3 (-)>>>
             <<<Displacing   7/coordinate 2 (-)>>>
             <<<Displacing   8/coordinate 1 (-)>>>
             <<<Displacing   8/coordinate 2 (+)>>>
             <<<Displacing   9/coordinate 1 (+)>>>
             <<<Displacing   9/coordinate 3 (+)>>>
             <<<Displacing   8/coordinate 2 (-)>>>
             <<<Displacing   9/coordinate 1 (-)>>>
             <<<Displacing   8/coordinate 3 (+)>>>
             <<<Displacing   9/coordinate 2 (+)>>>
             <<<Displacing   9/coordinate 3 (-)>>>
             <<<Displacing  10/coordinate 2 (+)>>>
             <<<Displacing  11/coordinate 1 (+)>>>
             <<<Displacing  10/coordinate 1 (+)>>>
             <<<Displacing   9/coordinate 2 (-)>>>
             <<<Displacing   8/coordinate 3 (-)>>>
             <<<Displacing  10/coordinate 3 (+)>>>
             <<<Displacing  10/coordinate 2 (-)>>>
             <<<Displacing  10/coordinate 1 (-)>>>
             <<<Displacing  11/coordinate 1 (-)>>>
             <<<Displacing  10/coordinate 3 (-)>>>
             <<<Displacing  11/coordinate 3 (+)>>>
             <<<Displacing  11/coordinate 2 (+)>>>
             <<<Displacing  11/coordinate 3 (-)>>>
             <<<Displacing  11/coordinate 2 (-)>>>
             <<<Displacing  12/coordinate 2 (+)>>>
             <<<Displacing  12/coordinate 1 (+)>>>
             <<<Displacing  13/coordinate 3 (+)>>>
             <<<Displacing  12/coordinate 2 (-)>>>
             <<<Displacing  12/coordinate 3 (+)>>>
             <<<Displacing  12/coordinate 1 (-)>>>
             <<<Displacing  13/coordinate 1 (+)>>>
             <<<Displacing  13/coordinate 3 (-)>>>
             <<<Displacing  12/coordinate 3 (-)>>>
             <<<Displacing  14/coordinate 1 (+)>>>
             <<<Displacing  13/coordinate 2 (+)>>>
             <<<Displacing  13/coordinate 1 (-)>>>
             <<<Displacing  13/coordinate 2 (-)>>>
             <<<Displacing  14/coordinate 1 (-)>>>
             <<<Displacing  14/coordinate 2 (+)>>>
             <<<Displacing  14/coordinate 3 (+)>>>
             <<<Displacing  14/coordinate 2 (-)>>>
             <<<Displacing  15/coordinate 1 (+)>>>
             <<<Displacing  15/coordinate 2 (+)>>>
             <<<Displacing  14/coordinate 3 (-)>>>
             <<<Displacing  15/coordinate 2 (-)>>>
             <<<Displacing  15/coordinate 1 (-)>>>
             <<<Displacing  16/coordinate 3 (+)>>>
             <<<Displacing  15/coordinate 3 (+)>>>
             <<<Displacing  16/coordinate 2 (+)>>>
             <<<Displacing  16/coordinate 3 (-)>>>
             <<<Displacing  16/coordinate 1 (+)>>>
             <<<Displacing  15/coordinate 3 (-)>>>
             <<<Displacing  16/coordinate 2 (-)>>>
             <<<Displacing  17/coordinate 1 (+)>>>
             <<<Displacing  16/coordinate 1 (-)>>>
             <<<Displacing  17/coordinate 2 (+)>>>
             <<<Displacing  17/coordinate 1 (-)>>>
             <<<Displacing  17/coordinate 3 (+)>>>
             <<<Displacing  18/coordinate 1 (+)>>>
             <<<Displacing  17/coordinate 2 (-)>>>
             <<<Displacing  18/coordinate 1 (-)>>>
             <<<Displacing  17/coordinate 3 (-)>>>
             <<<Displacing  18/coordinate 3 (+)>>>
             <<<Displacing  18/coordinate 2 (+)>>>
             <<<Displacing  18/coordinate 2 (-)>>>
             <<<Displacing  18/coordinate 3 (-)>>>
             <<<Displacing  19/coordinate 1 (+)>>>
             <<<Displacing  19/coordinate 1 (-)>>>
             <<<Displacing  19/coordinate 2 (+)>>>
             <<<Displacing  19/coordinate 2 (-)>>>
             <<<Displacing  19/coordinate 3 (+)>>>
             <<<Displacing  19/coordinate 3 (-)>>>
             <<<Displacing  20/coordinate 1 (+)>>>
             <<<Displacing  20/coordinate 2 (+)>>>
             <<<Displacing  21/coordinate 1 (+)>>>
             <<<Displacing  20/coordinate 1 (-)>>>
             <<<Displacing  20/coordinate 2 (-)>>>
             <<<Displacing  21/coordinate 1 (-)>>>
             <<<Displacing  20/coordinate 3 (+)>>>
             <<<Displacing  21/coordinate 2 (+)>>>
             <<<Displacing  20/coordinate 3 (-)>>>
             <<<Displacing  21/coordinate 2 (-)>>>
             <<<Displacing  21/coordinate 3 (+)>>>
             <<<Displacing  22/coordinate 2 (+)>>>
             <<<Displacing  21/coordinate 3 (-)>>>
             <<<Displacing  22/coordinate 1 (+)>>>
             <<<Displacing  22/coordinate 2 (-)>>>
             <<<Displacing  22/coordinate 1 (-)>>>
             <<<Displacing  22/coordinate 3 (+)>>>
             <<<Displacing  22/coordinate 3 (-)>>>
             <<<Displacing  23/coordinate 1 (+)>>>
             <<<Displacing  23/coordinate 1 (-)>>>
             <<<Displacing  23/coordinate 3 (+)>>>
             <<<Displacing  23/coordinate 3 (-)>>>
             <<<Displacing  24/coordinate 2 (+)>>>
             <<<Displacing  23/coordinate 2 (+)>>>
             <<<Displacing  24/coordinate 2 (-)>>>
             <<<Displacing  23/coordinate 2 (-)>>>
             <<<Displacing  24/coordinate 1 (+)>>>
             <<<Displacing  24/coordinate 3 (+)>>>
             <<<Displacing  24/coordinate 1 (-)>>>
             <<<Displacing  25/coordinate 1 (+)>>>
             <<<Displacing  24/coordinate 3 (-)>>>
             <<<Displacing  25/coordinate 1 (-)>>>
             <<<Displacing  25/coordinate 2 (+)>>>
             <<<Displacing  25/coordinate 3 (+)>>>
             <<<Displacing  26/coordinate 1 (+)>>>
             <<<Displacing  25/coordinate 2 (-)>>>
             <<<Displacing  25/coordinate 3 (-)>>>
             <<<Displacing  26/coordinate 1 (-)>>>
             <<<Displacing  26/coordinate 2 (+)>>>
             <<<Displacing  26/coordinate 2 (-)>>>
             <<<Displacing  26/coordinate 3 (+)>>>
             <<<Displacing  27/coordinate 2 (+)>>>
             <<<Displacing  26/coordinate 3 (-)>>>
             <<<Displacing  27/coordinate 2 (-)>>>
             <<<Displacing  27/coordinate 1 (+)>>>
             <<<Displacing  27/coordinate 3 (+)>>>
             <<<Displacing  27/coordinate 3 (-)>>>
             <<<Displacing  28/coordinate 1 (+)>>>
             <<<Displacing  28/coordinate 2 (+)>>>
             <<<Displacing  27/coordinate 1 (-)>>>
             <<<Displacing  28/coordinate 2 (-)>>>
             <<<Displacing  28/coordinate 1 (-)>>>
             <<<Displacing  28/coordinate 3 (+)>>>
             <<<Displacing  28/coordinate 3 (-)>>>
             <<<Displacing  29/coordinate 2 (+)>>>
             <<<Displacing  29/coordinate 1 (+)>>>
             <<<Displacing  29/coordinate 2 (-)>>>
             <<<Displacing  29/coordinate 3 (+)>>>
             <<<Displacing  29/coordinate 1 (-)>>>
             <<<Displacing  29/coordinate 3 (-)>>>
             <<<Displacing  30/coordinate 1 (+)>>>
             <<<Displacing  30/coordinate 1 (-)>>>
             <<<Displacing  30/coordinate 2 (+)>>>
             <<<Displacing  30/coordinate 3 (+)>>>
             <<<Displacing  30/coordinate 2 (-)>>>
             <<<Displacing  31/coordinate 1 (+)>>>
             <<<Displacing  31/coordinate 2 (+)>>>
             <<<Displacing  31/coordinate 1 (-)>>>
             <<<Displacing  32/coordinate 1 (+)>>>
             <<<Displacing  30/coordinate 3 (-)>>>
             <<<Displacing  31/coordinate 2 (-)>>>
             <<<Displacing  31/coordinate 3 (+)>>>
             <<<Displacing  32/coordinate 1 (-)>>>
             <<<Displacing  32/coordinate 2 (+)>>>
             <<<Displacing  31/coordinate 3 (-)>>>
             <<<Displacing  32/coordinate 3 (+)>>>
             <<<Displacing  32/coordinate 2 (-)>>>
             <<<Displacing  33/coordinate 1 (+)>>>
             <<<Displacing  32/coordinate 3 (-)>>>
             <<<Displacing  33/coordinate 2 (+)>>>
             <<<Displacing  33/coordinate 1 (-)>>>
             <<<Displacing  33/coordinate 2 (-)>>>
             <<<Displacing  33/coordinate 3 (+)>>>
             <<<Displacing  33/coordinate 3 (-)>>>
             <<<Displacing  34/coordinate 1 (+)>>>
             <<<Displacing  35/coordinate 1 (+)>>>
             <<<Displacing  34/coordinate 1 (-)>>>
             <<<Displacing  35/coordinate 1 (-)>>>
             <<<Displacing  34/coordinate 2 (+)>>>
             <<<Displacing  34/coordinate 3 (+)>>>
             <<<Displacing  35/coordinate 2 (+)>>>
             <<<Displacing  35/coordinate 3 (+)>>>
             <<<Displacing  34/coordinate 3 (-)>>>
             <<<Displacing  34/coordinate 2 (-)>>>
             <<<Displacing  35/coordinate 3 (-)>>>
             <<<Displacing  35/coordinate 2 (-)>>>
             <<<Displacing  36/coordinate 2 (+)>>>
             <<<Displacing  36/coordinate 2 (-)>>>
             <<<Displacing  36/coordinate 1 (+)>>>
             <<<Displacing  36/coordinate 1 (-)>>>
             <<<Displacing  36/coordinate 3 (+)>>>
             <<<Displacing  36/coordinate 3 (-)>>>

-----------------------
VIBRATIONAL FREQUENCIES
-----------------------

Scaling factor for frequencies =  1.000000000 (already applied!)

   0:         0.00 cm**-1
   1:         0.00 cm**-1
   2:         0.00 cm**-1
   3:         0.00 cm**-1
   4:         0.00 cm**-1
   5:         0.00 cm**-1
   6:       -22.45 cm**-1 ***imaginary mode***
   7:        42.11 cm**-1
   8:        56.47 cm**-1
   9:        65.74 cm**-1
  10:        66.29 cm**-1
  11:        69.59 cm**-1
  12:        98.99 cm**-1
  13:       111.67 cm**-1
  14:       118.00 cm**-1
  15:       167.29 cm**-1
  16:       173.73 cm**-1
  17:       218.81 cm**-1
  18:       239.97 cm**-1
  19:       247.08 cm**-1
  20:       261.66 cm**-1
  21:       271.01 cm**-1
  22:       306.14 cm**-1
  23:       333.20 cm**-1
  24:       360.29 cm**-1
  25:       363.42 cm**-1
  26:       379.78 cm**-1
  27:       408.53 cm**-1
  28:       429.11 cm**-1
  29:       474.41 cm**-1
  30:       492.18 cm**-1
  31:       520.78 cm**-1
  32:       547.35 cm**-1
  33:       588.92 cm**-1
  34:       623.42 cm**-1
  35:       638.61 cm**-1
  36:       677.16 cm**-1
  37:       698.67 cm**-1
  38:       758.33 cm**-1
  39:       766.90 cm**-1
  40:       808.66 cm**-1
  41:       821.48 cm**-1
  42:       840.55 cm**-1
  43:       869.32 cm**-1
  44:       884.81 cm**-1
  45:       909.76 cm**-1
  46:       930.35 cm**-1
  47:       934.39 cm**-1
  48:       937.03 cm**-1
  49:       950.32 cm**-1
  50:       967.58 cm**-1
  51:       982.60 cm**-1
  52:      1036.13 cm**-1
  53:      1067.70 cm**-1
  54:      1077.00 cm**-1
  55:      1098.43 cm**-1
  56:      1117.35 cm**-1
  57:      1119.18 cm**-1
  58:      1130.86 cm**-1
  59:      1155.41 cm**-1
  60:      1178.22 cm**-1
  61:      1190.16 cm**-1
  62:      1205.94 cm**-1
  63:      1220.68 cm**-1
  64:      1225.04 cm**-1
  65:      1257.15 cm**-1
  66:      1274.86 cm**-1
  67:      1278.12 cm**-1
  68:      1281.93 cm**-1
  69:      1289.63 cm**-1
  70:      1301.99 cm**-1
  71:      1331.07 cm**-1
  72:      1351.07 cm**-1
  73:      1360.02 cm**-1
  74:      1378.40 cm**-1
  75:      1423.13 cm**-1
  76:      1427.77 cm**-1
  77:      1462.85 cm**-1
  78:      1468.79 cm**-1
  79:      1498.75 cm**-1
  80:      1507.37 cm**-1
  81:      1507.77 cm**-1
  82:      1512.00 cm**-1
  83:      1527.36 cm**-1
  84:      1542.55 cm**-1
  85:      1568.63 cm**-1
  86:      1576.24 cm**-1
  87:      2881.16 cm**-1
  88:      2893.01 cm**-1
  89:      2905.10 cm**-1
  90:      2938.90 cm**-1
  91:      2962.57 cm**-1
  92:      2967.31 cm**-1
  93:      2975.79 cm**-1
  94:      2979.44 cm**-1
  95:      2984.65 cm**-1
  96:      2998.24 cm**-1
  97:      3002.36 cm**-1
  98:      3039.30 cm**-1
  99:      3052.89 cm**-1
 100:      3058.67 cm**-1
 101:      3069.55 cm**-1
 102:      3089.44 cm**-1
 103:      3125.09 cm**-1
 104:      3201.22 cm**-1
 105:      3388.24 cm**-1
 106:      3571.69 cm**-1
 107:      3579.11 cm**-1


------------
NORMAL MODES
------------

These modes are the cartesian displacements weighted by the diagonal matrix
M(i,i)=1/sqrt(m[i]) where m[i] is the mass of the displaced atom
Thus, these vectors are normalized but *not* orthogonal

                  0          1          2          3          4          5    
      0       0.000000   0.000000   0.000000   0.000000   0.000000   0.000000
      1       0.000000   0.000000   0.000000   0.000000   0.000000   0.000000
      2       0.000000   0.000000   0.000000   0.000000   0.000000   0.000000
      3       0.000000   0.000000   0.000000   0.000000   0.000000   0.000000
      4       0.000000   0.000000   0.000000   0.000000   0.000000   0.000000
      5       0.000000   0.000000   0.000000   0.000000   0.000000   0.000000
      6       0.000000   0.000000   0.000000   0.000000   0.000000   0.000000
      7       0.000000   0.000000   0.000000   0.000000   0.000000   0.000000
      8       0.000000   0.000000   0.000000   0.000000   0.000000   0.000000
      9       0.000000   0.000000   0.000000   0.000000   0.000000   0.000000
     10       0.000000   0.000000   0.000000   0.000000   0.000000   0.000000
     11       0.000000   0.000000   0.000000   0.000000   0.000000   0.000000
     12       0.000000   0.000000   0.000000   0.000000   0.000000   0.000000
     13       0.000000   0.000000   0.000000   0.000000   0.000000   0.000000
     14       0.000000   0.000000   0.000000   0.000000   0.000000   0.000000
     15       0.000000   0.000000   0.000000   0.000000   0.000000   0.000000
     16       0.000000   0.000000   0.000000   0.000000   0.000000   0.000000
     17       0.000000   0.000000   0.000000   0.000000   0.000000   0.000000
     18       0.000000   0.000000   0.000000   0.000000   0.000000   0.000000
     19       0.000000   0.000000   0.000000   0.000000   0.000000   0.000000
     20       0.000000   0.000000   0.000000   0.000000   0.000000   0.000000
     21       0.000000   0.000000   0.000000   0.000000   0.000000   0.000000
     22       0.000000   0.000000   0.000000   0.000000   0.000000   0.000000
     23       0.000000   0.000000   0.000000   0.000000   0.000000   0.000000
     24       0.000000   0.000000   0.000000   0.000000   0.000000   0.000000
     25       0.000000   0.000000   0.000000   0.000000   0.000000   0.000000
     26       0.000000   0.000000   0.000000   0.000000   0.000000   0.000000
     27       0.000000   0.000000   0.000000   0.000000   0.000000   0.000000
     28       0.000000   0.000000   0.000000   0.000000   0.000000   0.000000
     29       0.000000   0.000000   0.000000   0.000000   0.000000   0.000000
     30       0.000000   0.000000   0.000000   0.000000   0.000000   0.000000
     31       0.000000   0.000000   0.000000   0.000000   0.000000   0.000000
     32       0.000000   0.000000   0.000000   0.000000   0.000000   0.000000
     33       0.000000   0.000000   0.000000   0.000000   0.000000   0.000000
     34       0.000000   0.000000   0.000000   0.000000   0.000000   0.000000
     35       0.000000   0.000000   0.000000   0.000000   0.000000   0.000000
     36       0.000000   0.000000   0.000000   0.000000   0.000000   0.000000
     37       0.000000   0.000000   0.000000   0.000000   0.000000   0.000000
     38       0.000000   0.000000   0.000000   0.000000   0.000000   0.000000
     39       0.000000   0.000000   0.000000   0.000000   0.000000   0.000000
     40       0.000000   0.000000   0.000000   0.000000   0.000000   0.000000
     41       0.000000   0.000000   0.000000   0.000000   0.000000   0.000000
     42       0.000000   0.000000   0.000000   0.000000   0.000000   0.000000
     43       0.000000   0.000000   0.000000   0.000000   0.000000   0.000000
     44       0.000000   0.000000   0.000000   0.000000   0.000000   0.000000
     45       0.000000   0.000000   0.000000   0.000000   0.000000   0.000000
     46       0.000000   0.000000   0.000000   0.000000   0.000000   0.000000
     47       0.000000   0.000000   0.000000   0.000000   0.000000   0.000000
     48       0.000000   0.000000   0.000000   0.000000   0.000000   0.000000
     49       0.000000   0.000000   0.000000   0.000000   0.000000   0.000000
     50       0.000000   0.000000   0.000000   0.000000   0.000000   0.000000
     51       0.000000   0.000000   0.000000   0.000000   0.000000   0.000000
     52       0.000000   0.000000   0.000000   0.000000   0.000000   0.000000
     53       0.000000   0.000000   0.000000   0.000000   0.000000   0.000000
     54       0.000000   0.000000   0.000000   0.000000   0.000000   0.000000
     55       0.000000   0.000000   0.000000   0.000000   0.000000   0.000000
     56       0.000000   0.000000   0.000000   0.000000   0.000000   0.000000
     57       0.000000   0.000000   0.000000   0.000000   0.000000   0.000000
     58       0.000000   0.000000   0.000000   0.000000   0.000000   0.000000
     59       0.000000   0.000000   0.000000   0.000000   0.000000   0.000000
     60       0.000000   0.000000   0.000000   0.000000   0.000000   0.000000
     61       0.000000   0.000000   0.000000   0.000000   0.000000   0.000000
     62       0.000000   0.000000   0.000000   0.000000   0.000000   0.000000
     63       0.000000   0.000000   0.000000   0.000000   0.000000   0.000000
     64       0.000000   0.000000   0.000000   0.000000   0.000000   0.000000
     65       0.000000   0.000000   0.000000   0.000000   0.000000   0.000000
     66       0.000000   0.000000   0.000000   0.000000   0.000000   0.000000
     67       0.000000   0.000000   0.000000   0.000000   0.000000   0.000000
     68       0.000000   0.000000   0.000000   0.000000   0.000000   0.000000
     69       0.000000   0.000000   0.000000   0.000000   0.000000   0.000000
     70       0.000000   0.000000   0.000000   0.000000   0.000000   0.000000
     71       0.000000   0.000000   0.000000   0.000000   0.000000   0.000000
     72       0.000000   0.000000   0.000000   0.000000   0.000000   0.000000
     73       0.000000   0.000000   0.000000   0.000000   0.000000   0.000000
     74       0.000000   0.000000   0.000000   0.000000   0.000000   0.000000
     75       0.000000   0.000000   0.000000   0.000000   0.000000   0.000000
     76       0.000000   0.000000   0.000000   0.000000   0.000000   0.000000
     77       0.000000   0.000000   0.000000   0.000000   0.000000   0.000000
     78       0.000000   0.000000   0.000000   0.000000   0.000000   0.000000
     79       0.000000   0.000000   0.000000   0.000000   0.000000   0.000000
     80       0.000000   0.000000   0.000000   0.000000   0.000000   0.000000
     81       0.000000   0.000000   0.000000   0.000000   0.000000   0.000000
     82       0.000000   0.000000   0.000000   0.000000   0.000000   0.000000
     83       0.000000   0.000000   0.000000   0.000000   0.000000   0.000000
     84       0.000000   0.000000   0.000000   0.000000   0.000000   0.000000
     85       0.000000   0.000000   0.000000   0.000000   0.000000   0.000000
     86       0.000000   0.000000   0.000000   0.000000   0.000000   0.000000
     87       0.000000   0.000000   0.000000   0.000000   0.000000   0.000000
     88       0.000000   0.000000   0.000000   0.000000   0.000000   0.000000
     89       0.000000   0.000000   0.000000   0.000000   0.000000   0.000000
     90       0.000000   0.000000   0.000000   0.000000   0.000000   0.000000
     91       0.000000   0.000000   0.000000   0.000000   0.000000   0.000000
     92       0.000000   0.000000   0.000000   0.000000   0.000000   0.000000
     93       0.000000   0.000000   0.000000   0.000000   0.000000   0.000000
     94       0.000000   0.000000   0.000000   0.000000   0.000000   0.000000
     95       0.000000   0.000000   0.000000   0.000000   0.000000   0.000000
     96       0.000000   0.000000   0.000000   0.000000   0.000000   0.000000
     97       0.000000   0.000000   0.000000   0.000000   0.000000   0.000000
     98       0.000000   0.000000   0.000000   0.000000   0.000000   0.000000
     99       0.000000   0.000000   0.000000   0.000000   0.000000   0.000000
    100       0.000000   0.000000   0.000000   0.000000   0.000000   0.000000
    101       0.000000   0.000000   0.000000   0.000000   0.000000   0.000000
    102       0.000000   0.000000   0.000000   0.000000   0.000000   0.000000
    103       0.000000   0.000000   0.000000   0.000000   0.000000   0.000000
    104       0.000000   0.000000   0.000000   0.000000   0.000000   0.000000
    105       0.000000   0.000000   0.000000   0.000000   0.000000   0.000000
    106       0.000000   0.000000   0.000000   0.000000   0.000000   0.000000
    107       0.000000   0.000000   0.000000   0.000000   0.000000   0.000000
                  6          7          8          9         10         11    
      0      -0.015761   0.017539   0.047288   0.020773   0.033615  -0.006944
      1      -0.002942  -0.022018  -0.027106  -0.009096   0.019209  -0.010547
      2       0.011016   0.002358  -0.007191  -0.027622   0.022718  -0.029895
      3      -0.018239   0.052095   0.068003   0.013387  -0.058973  -0.000217
      4      -0.009304   0.004713  -0.030986  -0.009900  -0.033392  -0.015951
      5       0.053728  -0.008706   0.160110  -0.070671  -0.106020   0.060841
      6      -0.010640   0.047299   0.072001   0.032353  -0.059135   0.008559
      7      -0.021858   0.049568  -0.052693  -0.002942  -0.108413  -0.031220
      8       0.079028  -0.012024   0.166282   0.010001  -0.132913   0.090850
      9      -0.000729   0.006789   0.055164   0.060319   0.032288   0.009952
     10      -0.028844   0.068507  -0.070898   0.005330  -0.131915  -0.041456
     11       0.063150  -0.004190   0.008975   0.137539  -0.032008   0.031483
     12       0.002204  -0.028440   0.033502   0.066966   0.124715   0.002722
     13      -0.022120   0.042765  -0.065783   0.005260  -0.081699  -0.035564
     14       0.024186   0.006050  -0.160489   0.177351   0.096683  -0.059691
     15      -0.005067  -0.023482   0.029370   0.047478   0.123825  -0.005889
     16      -0.009535  -0.002466  -0.044567  -0.001888  -0.006857  -0.020432
     17      -0.001954   0.008820  -0.170578   0.094940   0.123349  -0.089673
     18      -0.029405   0.023653   0.045252   0.013517   0.027104  -0.011933
     19       0.016733  -0.064344  -0.000745  -0.011764   0.099332   0.005484
     20      -0.039651   0.009499  -0.003474  -0.062834   0.042053  -0.049505
     21      -0.026597   0.083296   0.080090  -0.006563  -0.130601  -0.002508
     22      -0.004051  -0.009716  -0.015669  -0.016889  -0.015290  -0.007028
     23       0.063473  -0.014272   0.281345  -0.163117  -0.182029   0.106919
     24      -0.003586  -0.054689   0.010785   0.051472   0.185711  -0.012188
     25      -0.004596  -0.024438  -0.041524  -0.002398   0.025246  -0.016843
     26      -0.034771   0.017799  -0.297145   0.124072   0.219157  -0.151580
     27       0.004411   0.003068   0.058575   0.075721   0.032541   0.016831
     28      -0.039250   0.103466  -0.087155   0.011138  -0.189751  -0.052901
     29       0.080385  -0.005946   0.016476   0.203902  -0.053377   0.055644
     30       0.020884   0.024079   0.025350   0.004628   0.015996  -0.012662
     31       0.040963  -0.038527   0.050190  -0.006525   0.078510   0.028257
     32      -0.073496   0.004555  -0.001883  -0.058789   0.056671  -0.052838
     33       0.025614   0.000193   0.030373   0.003790   0.032671  -0.006874
     34       0.007560   0.022024   0.034111   0.001273   0.037803   0.014090
     35      -0.161937  -0.012110  -0.002557  -0.019320   0.063634  -0.034850
     36      -0.001244   0.084183  -0.176414  -0.146526   0.021537   0.151564
     37       0.033808  -0.091147   0.085639  -0.007609   0.055650   0.089037
     38      -0.073164  -0.050048   0.022662  -0.076643   0.003671  -0.011824
     39       0.022851   0.057706   0.019088   0.004252  -0.007426  -0.031177
     40      -0.000387   0.076030   0.024047   0.004453  -0.001152  -0.007689
     41       0.146002   0.068647  -0.013563  -0.142145   0.070791  -0.146599
     42       0.016363  -0.038069   0.037715   0.004306   0.050461   0.012799
     43       0.240684   0.094072   0.026439  -0.103447   0.037912  -0.079385
     44      -0.343525  -0.059912   0.001792   0.063301   0.059188   0.034490
     45       0.044154  -0.022815   0.034508   0.002187   0.055448  -0.005681
     46      -0.244720  -0.039495   0.039165   0.113520   0.027280   0.107984
     47      -0.324280  -0.054438   0.000449   0.053685   0.058881   0.026692
     48       0.031794   0.066903  -0.009826   0.089081  -0.079311   0.043109
     49      -0.216359  -0.015258   0.013850   0.167115  -0.037965   0.158330
     50       0.315424   0.138830   0.001309  -0.290895   0.116839  -0.295485
     51       0.010374   0.114183   0.035737  -0.087009   0.020297  -0.141848
     52       0.230482   0.154933   0.038407  -0.169990   0.049915  -0.178815
     53       0.294397   0.125714  -0.002339  -0.264518   0.106765  -0.269134
     54      -0.029851   0.016240   0.076846   0.007125   0.074806  -0.005540
     55       0.024619  -0.090867  -0.005254  -0.016708   0.148118   0.002378
     56      -0.051182   0.043530   0.033342  -0.059907   0.009364  -0.036631
     57       0.006233  -0.305562  -0.128409  -0.022466  -0.247333  -0.150644
     58       0.018198  -0.194905   0.020269  -0.021292   0.061431   0.034980
     59      -0.062790  -0.028691   0.100930  -0.053793  -0.057528   0.024679
     60      -0.005364  -0.087710   0.033482   0.006097  -0.018528  -0.035338
     61       0.025722  -0.107051  -0.001680  -0.015792   0.099953   0.004380
     62      -0.052383   0.027576   0.043238  -0.058815  -0.051147  -0.030019
     63       0.001813  -0.352284  -0.129027  -0.009429  -0.292239  -0.179010
     64       0.002615  -0.318137  -0.002549   0.007503  -0.062751  -0.033818
     65      -0.050917  -0.089453   0.187243  -0.012853  -0.093437  -0.041723
     66      -0.012077   0.071222  -0.276997  -0.208159   0.011961   0.226849
     67       0.032736  -0.096264   0.097008  -0.010255   0.042621   0.107343
     68      -0.075908  -0.056749   0.030662  -0.084786  -0.012028   0.022331
     69       0.002570  -0.181035  -0.197942  -0.079276  -0.157048  -0.039768
     70       0.022754  -0.161542   0.047482  -0.022730   0.063214   0.074132
     71      -0.064978  -0.033261   0.082664  -0.057770  -0.049514   0.015879
     72      -0.016705   0.094979  -0.310211  -0.234903   0.027004   0.271676
     73       0.034828  -0.039456   0.151124   0.005465   0.075062   0.120209
     74      -0.087026   0.004612  -0.048556  -0.149924   0.026530   0.132821
     75      -0.075007   0.046839   0.031634   0.010611  -0.000391  -0.024861
     76       0.011625  -0.087380  -0.016239  -0.015173   0.130642  -0.000503
     77      -0.054174  -0.015661  -0.026136  -0.066679   0.078800  -0.059208
     78       0.050499  -0.001102   0.024114  -0.003864   0.028336  -0.013385
     79       0.055836  -0.068326   0.081606  -0.003910   0.093882   0.040634
     80      -0.063990   0.017694  -0.046007  -0.070534   0.048905  -0.070280
     81       0.025087   0.024693   0.021225   0.012598   0.010125  -0.004892
     82      -0.029917   0.143363   0.009909   0.031731  -0.067578  -0.025571
     83       0.015262  -0.023199  -0.063542   0.117027  -0.043048   0.125199
     84       0.056152   0.017959   0.059612  -0.100569   0.096921  -0.103908
     85       0.095339   0.214093   0.005293  -0.083540  -0.046228  -0.146152
     86      -0.092869  -0.078799  -0.068154   0.234889  -0.079195   0.244233
     87       0.000640  -0.037877  -0.008045   0.123337  -0.024885   0.136019
     88      -0.168964   0.081104   0.012258   0.161233  -0.104177   0.099512
     89      -0.078249  -0.070038  -0.064894   0.212527  -0.070425   0.220729
     90       0.009764  -0.059033   0.021274   0.087275   0.196933   0.004805
     91      -0.027184   0.056808  -0.079293   0.011178  -0.100834  -0.043424
     92       0.012516   0.011607  -0.283011   0.273043   0.174055  -0.105088
     93      -0.012907   0.074795   0.087822   0.025708  -0.129762   0.014115
     94      -0.026599   0.069546  -0.054986  -0.004127  -0.147148  -0.034549
     95       0.109469  -0.020531   0.294469  -0.023454  -0.231951   0.160955
     96       0.016376   0.081392   0.011162   0.025657  -0.040368  -0.031014
     97      -0.039133   0.198285   0.000442   0.044640  -0.116589  -0.050969
     98       0.143257   0.020079  -0.109178   0.100355  -0.076658   0.122137
     99       0.019536   0.059108   0.012522   0.026827  -0.024982  -0.013975
    100      -0.055234   0.243780  -0.007212   0.063493  -0.162682  -0.067788
    101       0.093628  -0.021115  -0.135003   0.224273  -0.133342   0.256049
    102       0.011998   0.125647   0.034406  -0.042887  -0.021888  -0.130636
    103       0.063312   0.245550  -0.008856  -0.042667  -0.097931  -0.134942
    104       0.209729   0.053052  -0.114030   0.039996  -0.063557   0.062346
    105       0.011210   0.099407  -0.020811   0.103801  -0.112193   0.032486
    106      -0.133292   0.144071   0.010760   0.123864  -0.125385   0.031935
    107       0.219334   0.060446  -0.112029   0.023884  -0.057492   0.045217
                 12         13         14         15         16         17    
      0       0.024093  -0.018359  -0.013292  -0.013941  -0.034143   0.003678
      1      -0.010319   0.024986  -0.005286  -0.035848   0.162804   0.024084
      2      -0.033533   0.163021   0.018519   0.016854  -0.085281   0.034376
      3       0.041156  -0.056506  -0.015920   0.000185  -0.117033  -0.006474
      4      -0.000281   0.005470  -0.004645  -0.024591   0.099149   0.013324
      5      -0.012496   0.102098   0.000407   0.011642  -0.044475   0.056352
      6       0.051266  -0.094445  -0.021823  -0.004328  -0.091099  -0.018347
      7       0.014877  -0.027130  -0.001654   0.000239  -0.026244  -0.014824
      8       0.030605  -0.061238  -0.021514   0.002901   0.035470   0.006536
      9       0.046089  -0.099764  -0.027301  -0.028589   0.025425  -0.015114
     10       0.020233  -0.040863   0.000166   0.010965  -0.073018  -0.025245
     11       0.052065  -0.162173  -0.025408   0.002129   0.065777  -0.050043
     12       0.026832  -0.054628  -0.023969  -0.044976   0.102463   0.013169
     13       0.010805  -0.020447  -0.000434  -0.001637  -0.007911  -0.010756
     14       0.019342  -0.062902  -0.000351   0.010102  -0.021235  -0.001859
     15       0.018164  -0.017734  -0.017999  -0.039385   0.067273   0.019976
     16      -0.004778   0.013028  -0.003060  -0.025902   0.115941   0.016935
     17      -0.023228   0.099702   0.021847   0.017511  -0.098085   0.043778
     18       0.027109  -0.022430  -0.015127  -0.006042  -0.025180  -0.001004
     19      -0.010576   0.036605  -0.009277  -0.040725   0.141754  -0.025658
     20      -0.008190   0.126736  -0.001387   0.020724  -0.051677  -0.054071
     21       0.048503  -0.062209  -0.014188   0.015150  -0.207550  -0.016766
     22      -0.005689   0.017645  -0.005555  -0.031115   0.137210   0.022809
     23      -0.025446   0.160252  -0.000586   0.011747  -0.048374   0.086929
     24       0.004465   0.005394  -0.017304  -0.056449   0.132784   0.035569
     25      -0.012425   0.022488  -0.004456  -0.038603   0.166255   0.025982
     26      -0.042717   0.150001   0.036581   0.024120  -0.144843   0.061218
     27       0.054720  -0.132974  -0.032627  -0.031742   0.053115  -0.029037
     28       0.031814  -0.066995   0.002021   0.028889  -0.159585  -0.043357
     29       0.092219  -0.310941  -0.046893  -0.004530   0.146976  -0.115400
     30      -0.058975   0.088567   0.018974  -0.032969  -0.026881   0.051016
     31       0.155445   0.093364   0.004377  -0.022711   0.014972  -0.118689
     32       0.003729   0.048844  -0.023300   0.041171  -0.033491  -0.056726
     33      -0.058650   0.092715   0.024652   0.019602   0.021516   0.010580
     34       0.152022   0.048272  -0.015658  -0.133881  -0.092185   0.082219
     35       0.048143  -0.108118  -0.063862   0.153156   0.030780   0.151913
     36       0.023059   0.008510   0.005773   0.046331  -0.020782   0.054268
     37       0.076378   0.034061   0.026435   0.222576  -0.021656   0.013937
     38      -0.188981  -0.074792  -0.019344  -0.287620  -0.024538  -0.115070
     39      -0.112314   0.066747   0.035469   0.009256   0.004693   0.089853
     40       0.104779   0.021434  -0.009815  -0.149208  -0.115319   0.159282
     41       0.060128  -0.193140   0.091253   0.052417   0.022757   0.061902
     42      -0.075270   0.196832   0.014160   0.015976   0.033434  -0.155534
     43       0.132362   0.050702   0.100905  -0.259471  -0.134621  -0.062035
     44       0.066929  -0.134240  -0.153177   0.252898   0.061526   0.303057
     45      -0.020449   0.012519   0.035956   0.094299   0.089674   0.030917
     46       0.163804   0.035977  -0.140584  -0.013530  -0.059766   0.266870
     47       0.058611  -0.123062  -0.143839   0.238465   0.058261   0.276898
     48      -0.161233   0.096753   0.120244  -0.018215   0.011535   0.039765
     49       0.105715   0.121951  -0.044350  -0.119008  -0.119164   0.175452
     50       0.070596  -0.279801   0.098483   0.035896   0.025055   0.056490
     51      -0.144296  -0.003245  -0.041093   0.087161   0.029768   0.135917
     52       0.120660  -0.079139   0.023064  -0.181675  -0.113293   0.122654
     53       0.067204  -0.265009   0.104022   0.038216   0.025526   0.044615
     54       0.094105  -0.055591  -0.027248   0.003231  -0.076862  -0.184568
     55      -0.064776   0.014410  -0.015014  -0.031661   0.095872  -0.060612
     56       0.130875   0.128287  -0.002876   0.029182  -0.052256  -0.170415
     57       0.096913   0.026355  -0.003035  -0.000876   0.042057   0.002211
     58      -0.220037  -0.116913  -0.000053   0.062760  -0.267297  -0.029014
     59       0.003335   0.010817   0.014511  -0.019540   0.150711   0.044988
     60       0.025268  -0.023088  -0.006046  -0.029090  -0.015748  -0.067478
     61      -0.050829   0.020959  -0.007132  -0.054924   0.147533  -0.037673
     62       0.151457   0.129882   0.006179   0.006481  -0.007872  -0.152008
     63       0.106889   0.036929  -0.003329   0.006535   0.018634  -0.006659
     64      -0.191454  -0.086734  -0.001241   0.080565  -0.353046  -0.065461
     65       0.011912   0.018331   0.016098  -0.000680   0.231942   0.092368
     66       0.051466  -0.046670   0.001391   0.027494   0.010409  -0.006456
     67       0.049512   0.012778   0.032230   0.231255   0.012120   0.064087
     68      -0.213868  -0.103075  -0.010306  -0.236488   0.016943  -0.040743
     69       0.101001   0.013321  -0.000773   0.000868   0.033866  -0.010774
     70      -0.130568  -0.084882   0.012210   0.159987  -0.176466   0.019902
     71      -0.036233  -0.004576   0.009215  -0.055295   0.101064   0.021711
     72       0.059502  -0.062857   0.000381   0.018833   0.020113  -0.030015
     73       0.023255   0.033537   0.038621   0.256625   0.015904   0.121880
     74      -0.195940  -0.142039  -0.012530  -0.258883   0.040865  -0.096360
     75       0.039676  -0.077296  -0.032112   0.003319   0.049494   0.014076
     76      -0.087060   0.005719  -0.017077  -0.035968   0.146986  -0.002824
     77      -0.103327   0.077209  -0.014417   0.029668  -0.029190  -0.017776
     78      -0.110432   0.155057   0.037908  -0.012653   0.026561  -0.045746
     79       0.184430   0.132888   0.015124   0.038086   0.024279  -0.271011
     80      -0.093262   0.065840  -0.018601  -0.020451   0.010165   0.050060
     81      -0.072808   0.094008   0.037556  -0.031398  -0.021098   0.125368
     82      -0.011313  -0.011268   0.007528  -0.046442  -0.041920   0.063465
     83       0.037200  -0.030417   0.193375  -0.023193  -0.000478   0.000628
     84       0.022393   0.015558   0.076374  -0.072607  -0.061733   0.231588
     85      -0.066506  -0.030045  -0.221487   0.018908  -0.017178   0.063148
     86       0.060615   0.002163   0.368993  -0.066273  -0.010973  -0.024009
     87      -0.048829   0.211929   0.001729  -0.125435  -0.080521   0.163367
     88       0.019064   0.002830   0.256824  -0.083218  -0.041788   0.020366
     89       0.059445  -0.009450   0.352227  -0.056785  -0.006775  -0.022574
     90       0.020179  -0.050249  -0.026429  -0.061066   0.194140   0.027908
     91       0.015595  -0.032097   0.000508   0.005323  -0.046507  -0.018909
     92       0.031608  -0.127161  -0.001095   0.010020  -0.016786  -0.014883
     93       0.063341  -0.121883  -0.022514   0.011728  -0.161102  -0.033441
     94       0.020976  -0.039801  -0.000385   0.011898  -0.079922  -0.024640
     95       0.051456  -0.123014  -0.038360  -0.003359   0.085939   0.000236
     96      -0.190354   0.072740   0.036740   0.110024   0.088905  -0.037178
     97      -0.124116  -0.034448   0.008711   0.091317   0.065360  -0.101053
     98      -0.052484   0.078094  -0.167884  -0.002050  -0.007610   0.001088
     99      -0.146771   0.087225   0.034178   0.048212   0.041810   0.025786
    100      -0.228582  -0.054068   0.032058   0.224147   0.172679  -0.271240
    101      -0.061820   0.161522  -0.068923  -0.077040  -0.030829  -0.118244
    102      -0.225305  -0.019277   0.064895   0.233811   0.169236  -0.056418
    103      -0.164223  -0.022836  -0.261366   0.144050   0.070235  -0.019115
    104      -0.080332   0.080952  -0.342298   0.038501  -0.000405   0.053454
    105      -0.289447   0.135823   0.011807   0.161998   0.145191  -0.217881
    106      -0.066132  -0.041751   0.260892   0.016515   0.040652  -0.148039
    107      -0.082178   0.073336  -0.365181   0.049078   0.002735   0.068928
                 18         19         20         21         22         23    
      0       0.058437   0.053390   0.002139  -0.000174   0.006750  -0.000623
      1      -0.055690   0.128766   0.038983   0.006605   0.042834   0.001650
      2       0.099875   0.037111  -0.003331  -0.002285   0.006451   0.002066
      3       0.127958   0.040147  -0.016230  -0.003493   0.000739  -0.002069
      4      -0.017841   0.104517   0.024503   0.004552   0.042031   0.001413
      5       0.156585   0.093439   0.000741  -0.006924  -0.054726  -0.008121
      6       0.094055   0.028354  -0.015587  -0.001877   0.012605   0.000138
      7       0.030425  -0.008263  -0.013082  -0.001472   0.006458   0.000461
      8       0.001222   0.005260   0.000296  -0.001005  -0.025614   0.000909
      9       0.023140   0.094544   0.009638   0.004914   0.068746   0.002612
     10       0.033856  -0.057971  -0.024610  -0.003109  -0.008058   0.000321
     11      -0.173190  -0.114061  -0.000078   0.007881   0.044554   0.007147
     12       0.021686   0.170493   0.030391   0.006025   0.059530  -0.000724
     13       0.009460  -0.013361  -0.007889  -0.001163  -0.005751  -0.000688
     14       0.017205  -0.020697  -0.007896  -0.001187  -0.030130  -0.005911
     15       0.064872   0.165635   0.021870   0.003067   0.040074  -0.000645
     16      -0.041389   0.092016   0.029245   0.004472   0.023362   0.000926
     17       0.172370   0.059223  -0.012968  -0.007810  -0.063985  -0.004251
     18       0.000411   0.023696   0.008368   0.002411   0.008527   0.001238
     19       0.012595  -0.017893  -0.026318  -0.004917  -0.017241  -0.006539
     20      -0.028588  -0.030881  -0.014433   0.007912   0.125282   0.007714
     21       0.195656   0.005764  -0.039042  -0.007525  -0.010345  -0.003598
     22      -0.035310   0.128787   0.035161   0.005728   0.041588   0.000850
     23       0.228897   0.154652   0.004672  -0.009878  -0.078603  -0.014833
     24       0.066607   0.237493   0.032206   0.005125   0.063819   0.005827
     25      -0.051007   0.143022   0.039477   0.006604   0.045798   0.005143
     26       0.264393   0.075191  -0.026642  -0.012205  -0.101911  -0.007187
     27      -0.030567   0.071503   0.012197   0.007657   0.088611   0.004915
     28       0.055539  -0.128219  -0.044751  -0.005959  -0.024421   0.000552
     29      -0.387310  -0.235414   0.003099   0.018233   0.122335   0.016831
     30      -0.021394  -0.012390  -0.003827   0.001980   0.037794   0.001730
     31      -0.030049   0.024425   0.068096  -0.017337  -0.200054   0.000965
     32      -0.028206  -0.038333  -0.025247   0.011824   0.134022   0.005176
     33      -0.048926  -0.021714   0.023075  -0.002587  -0.047682   0.000956
     34      -0.039485  -0.019934   0.014602  -0.000858  -0.069690  -0.000834
     35      -0.038817  -0.035984   0.039962   0.017715  -0.097792  -0.000484
     36      -0.016613  -0.025039  -0.062366   0.009001   0.115589   0.033340
     37       0.041666  -0.049735   0.076777   0.013136   0.034997   0.058584
     38       0.002200  -0.009609   0.127359  -0.009017  -0.130784   0.081164
     39      -0.102417  -0.088538  -0.000076   0.007295   0.010297  -0.000869
     40      -0.070164  -0.066914  -0.012933   0.008853   0.012468  -0.001677
     41      -0.002246   0.010960   0.017273   0.022348  -0.046065  -0.004214
     42      -0.023122   0.004667   0.008953  -0.011881   0.024430   0.004891
     43      -0.010131   0.004069  -0.045727   0.003282   0.121030  -0.002354
     44      -0.067553  -0.060343   0.091028   0.016553  -0.264861  -0.000153
     45      -0.037677   0.016080   0.081718  -0.007785  -0.235925  -0.001567
     46      -0.078555  -0.056698   0.070912  -0.001838  -0.248515   0.000321
     47      -0.064408  -0.058506   0.080272   0.016783  -0.229585  -0.000222
     48      -0.088809  -0.089940  -0.016640  -0.029979   0.084681   0.000615
     49      -0.083651  -0.085497   0.012978  -0.042764  -0.012506  -0.001475
     50       0.007162   0.026585   0.000099   0.072126  -0.043362  -0.004326
     51      -0.113204  -0.101066  -0.008354   0.054306   0.008955  -0.000120
     52      -0.047955  -0.033672  -0.030285   0.061681   0.017379  -0.003022
     53       0.009990   0.030045   0.004663   0.062014  -0.042096  -0.004950
     54       0.031468  -0.179853  -0.077290  -0.013821  -0.030105  -0.011160
     55       0.116637  -0.199775  -0.131682  -0.011087   0.015264  -0.013467
     56      -0.166308   0.076426   0.079630   0.003820   0.046694   0.006984
     57       0.026309  -0.039704   0.024805   0.003092   0.007114   0.006988
     58      -0.129645   0.146836  -0.084680  -0.008952  -0.015587   0.025726
     59      -0.025269   0.051989  -0.269538  -0.019712  -0.034198  -0.023749
     60       0.058353  -0.127977  -0.114716  -0.015884  -0.011840   0.057397
     61       0.068091  -0.112223  -0.104816  -0.012596  -0.013861   0.007457
     62      -0.250618   0.208158   0.119642   0.001653   0.002991   0.027029
     63      -0.017863  -0.010934   0.064997   0.005888   0.018283  -0.209725
     64      -0.283346   0.262222   0.062914   0.000958   0.006371  -0.592793
     65       0.073750  -0.072911  -0.418328  -0.029082   0.007363  -0.088326
     66      -0.012037   0.021109  -0.042016  -0.003843  -0.010547   0.009142
     67       0.093628  -0.108354   0.138504   0.026219   0.101567   0.039148
     68       0.067934  -0.087335   0.191964   0.009754  -0.023858   0.050963
     69       0.017643   0.009999   0.050618   0.004507  -0.042214   0.311269
     70      -0.069589   0.094867  -0.209998  -0.013929  -0.018133   0.081360
     71      -0.063059   0.091534  -0.227157  -0.018558  -0.037523  -0.022725
     72       0.014894  -0.005641   0.052466  -0.000921  -0.013903  -0.228356
     73       0.170160  -0.250993   0.325379   0.056135   0.293462  -0.350768
     74       0.135464  -0.156295   0.426676   0.017555  -0.026965  -0.543097
     75      -0.093653   0.134759   0.055762   0.017290   0.102170   0.003824
     76       0.073147  -0.112147  -0.100961  -0.002862   0.052236  -0.010336
     77       0.033290  -0.132784  -0.103325   0.013285   0.229523   0.002372
     78      -0.035196  -0.020104  -0.005896  -0.004411   0.049506   0.002298
     79      -0.049724   0.053438   0.125733  -0.029582  -0.314050   0.005167
     80      -0.016139  -0.087133  -0.108173   0.021952   0.306395  -0.000017
     81      -0.142920  -0.121033   0.006718   0.003401  -0.025101  -0.002259
     82      -0.004198  -0.015190  -0.020483   0.002909   0.074731   0.001148
     83       0.002933   0.006898   0.015988  -0.062994   0.016335   0.000820
     84      -0.187941  -0.160774   0.009334   0.010001  -0.038941  -0.005500
     85       0.004642  -0.004373  -0.021573   0.060542   0.030977  -0.002203
     86       0.006148   0.007420   0.016482  -0.110128   0.052735   0.004252
     87      -0.180151  -0.160563  -0.009359  -0.000600   0.007039  -0.000357
     88       0.007277  -0.004854  -0.012694  -0.062066   0.107025   0.005064
     89       0.006385   0.009149   0.018723  -0.104683   0.042065   0.003524
     90      -0.028087   0.224645   0.054447   0.009867   0.069693  -0.002974
     91       0.029109  -0.038859  -0.018719  -0.002710  -0.010990  -0.000734
     92       0.004002  -0.039236  -0.012023  -0.000778  -0.038880  -0.011550
     93       0.115617  -0.045294  -0.037119  -0.005799  -0.020396  -0.000560
     94       0.047440  -0.059993  -0.027975  -0.004234  -0.016144  -0.000281
     95      -0.024476   0.012041   0.003070  -0.000489  -0.031217   0.003145
     96      -0.083101  -0.053834   0.037360  -0.003787  -0.118104  -0.003054
     97       0.067092   0.061518   0.007045  -0.004898  -0.002081   0.001103
     98      -0.000817  -0.000677  -0.005813   0.015675   0.005729  -0.000245
     99      -0.105314  -0.080618   0.013609   0.032353  -0.077284  -0.002624
    100       0.126712   0.131535   0.035374   0.010491  -0.117352  -0.000374
    101       0.038814   0.037046  -0.165788   0.592456  -0.097254  -0.003412
    102      -0.074505  -0.036598   0.167513  -0.403472  -0.114446  -0.002066
    103       0.037814   0.030337   0.090985  -0.310520   0.059819   0.002846
    104      -0.019328  -0.020073   0.055306  -0.203292   0.046374   0.000881
    105      -0.021995   0.012427  -0.040137   0.355003  -0.255535  -0.006719
    106       0.083355   0.077941  -0.076691   0.282572  -0.042134   0.000006
    107      -0.024138  -0.025072   0.074142  -0.274215   0.060665   0.001334
                 24         25         26         27         28         29    
      0      -0.031880   0.001263   0.000956  -0.026898  -0.059681  -0.020738
      1       0.112330  -0.002104  -0.007828   0.015675  -0.045630  -0.009036
      2      -0.103450   0.014627   0.003552  -0.053822  -0.069547  -0.027286
      3      -0.093423   0.002445   0.051118   0.004846   0.055169   0.007227
      4       0.070975  -0.000224   0.004659   0.031148   0.008129   0.004226
      5       0.130716  -0.005543   0.194542   0.014645   0.009890  -0.004633
      6      -0.120762   0.001075  -0.043432   0.011383   0.072077   0.016132
      7      -0.020678   0.000854  -0.009381   0.013546   0.040764   0.009937
      8       0.075201  -0.013387  -0.204106   0.027094   0.013074   0.016027
      9      -0.134613   0.008681   0.003181   0.020467   0.088529   0.017650
     10      -0.043871   0.001624   0.004216  -0.003989   0.018589   0.002039
     11      -0.094286   0.012455   0.003982  -0.048024  -0.079051  -0.027113
     12       0.001370   0.001782   0.045722   0.032188   0.048404   0.010188
     13       0.035452  -0.002092   0.010669  -0.003350  -0.026954  -0.008925
     14       0.083185  -0.002475   0.199339   0.017122   0.030812   0.012586
     15      -0.006078  -0.001544  -0.049670   0.025222   0.036381   0.007458
     16       0.132386  -0.004360  -0.018875   0.010464  -0.071831  -0.015084
     17       0.073913  -0.013675  -0.205915   0.017978   0.005019   0.009788
     18       0.040274   0.000870   0.000480  -0.029757  -0.118479  -0.031554
     19      -0.045775  -0.009261   0.002929  -0.020584   0.048034   0.009497
     20      -0.123521   0.013813   0.005151   0.006394  -0.012072  -0.009306
     21      -0.163617   0.004330   0.111437   0.018964   0.141729   0.026208
     22       0.127088  -0.002326   0.017696   0.031037  -0.024350  -0.003256
     23       0.272308  -0.013853   0.426849   0.054176   0.050283   0.002827
     24       0.040485   0.004281  -0.108921   0.058597   0.070823   0.015159
     25       0.154429   0.002990  -0.030653   0.029523  -0.050762  -0.008640
     26       0.135344  -0.036201  -0.448360   0.057224   0.048520   0.008315
     27      -0.162238   0.011930   0.004531   0.011706   0.074024   0.012075
     28      -0.109495   0.003941   0.006081  -0.016242   0.031317   0.004119
     29      -0.239650   0.027833   0.010454  -0.087660  -0.127173  -0.047647
     30      -0.038922   0.003117   0.003229  -0.079796  -0.191114  -0.043467
     31      -0.118192   0.018348   0.004820  -0.093753   0.039898   0.032267
     32      -0.088849   0.007106   0.003857   0.041323   0.025877  -0.001935
     33      -0.033767   0.005826   0.000752  -0.150633  -0.092855  -0.014745
     34      -0.101100   0.010530   0.009069   0.119788  -0.135555  -0.024462
     35      -0.015455   0.003034   0.000457  -0.028353  -0.002175   0.003321
[...]
     73       0.000462  -0.011164   0.003452   0.000578  -0.035525   0.007073
     74       0.000621  -0.010224   0.004849   0.001117   0.384407  -0.075993
     75       0.000122   0.000768   0.000981  -0.001629  -0.000316   0.000161
     76       0.000043   0.014716   0.022355   0.002450  -0.000266  -0.000027
     77       0.000378  -0.010755  -0.013891  -0.003806   0.000033  -0.000032
     78      -0.000956   0.004643   0.001838   0.526157  -0.001401   0.000947
     79       0.000646  -0.003631  -0.001247  -0.674360   0.002501  -0.001502
     80       0.000332  -0.005418  -0.000927  -0.512641   0.000998  -0.000835
     81      -0.000015  -0.000054  -0.000011  -0.000024  -0.000019  -0.000005
     82      -0.000050  -0.000161  -0.000154   0.000051   0.000008  -0.000011
     83       0.000001   0.000067   0.000017   0.000039  -0.000001   0.000003
     84       0.000078   0.000517   0.000543  -0.000235   0.000039  -0.000120
     85       0.000348   0.001125   0.001493  -0.000244  -0.000083  -0.000089
     86       0.000401   0.001348   0.001448  -0.000303  -0.000143  -0.000014
     87       0.000022   0.000243   0.000105   0.000206   0.000290  -0.000109
     88       0.000271   0.001013   0.000818   0.000366   0.000243  -0.000094
     89      -0.000390  -0.001624  -0.001009  -0.000420  -0.000217   0.000036
     90      -0.064988  -0.001506  -0.001124  -0.000509   0.000007   0.000205
     91      -0.152281  -0.003387  -0.001359  -0.000796  -0.000004   0.000478
     92       0.023051   0.000438   0.000392   0.000232   0.000061  -0.000093
     93      -0.015804  -0.003813  -0.003810  -0.000964  -0.000038  -0.000167
     94       0.023075   0.005441   0.005467   0.000973   0.000016   0.000273
     95       0.002305   0.000505   0.000606   0.000157   0.000029   0.000005
     96      -0.000009  -0.000101  -0.000016  -0.000018  -0.000019   0.000013
     97      -0.000013  -0.000043  -0.000142   0.000020  -0.000021   0.000043
     98      -0.000009   0.000165  -0.000027   0.000019   0.000021   0.000005
     99       0.000090   0.001706   0.000019   0.000036   0.000208  -0.000042
    100       0.000053   0.000702   0.000040   0.000048   0.000049  -0.000034
    101      -0.000004  -0.000190   0.000038  -0.000017  -0.000047   0.000013
    102      -0.000000  -0.000048   0.000075   0.000026  -0.000045   0.000022
    103      -0.000013   0.000541   0.000507  -0.000139   0.000192  -0.000193
    104       0.000058  -0.001193  -0.000106   0.000219  -0.000337   0.000067
    105       0.000009  -0.000320   0.000120   0.000057   0.000010  -0.000045
    106       0.000055  -0.000598   0.000880  -0.000421   0.000069  -0.000325
    107       0.000035  -0.000461   0.000469  -0.000453   0.000151  -0.000117


-----------
IR SPECTRUM  
-----------

 Mode    freq (cm**-1)   T**2         TX         TY         TZ
-------------------------------------------------------------------
   7:        42.11    0.000000  (  0.000000   0.000000   0.000000)
   8:        56.47    0.000000  (  0.000000   0.000000   0.000000)
   9:        65.74    0.000000  (  0.000000   0.000000   0.000000)
  10:        66.29    0.000000  (  0.000000   0.000000   0.000000)
  11:        69.59    0.000000  (  0.000000   0.000000   0.000000)
  12:        98.99    0.000000  (  0.000000   0.000000   0.000000)
  13:       111.67    0.000000  (  0.000000   0.000000   0.000000)
  14:       118.00    0.000000  (  0.000000   0.000000   0.000000)
  15:       167.29    0.000000  (  0.000000   0.000000   0.000000)
  16:       173.73    0.000000  (  0.000000   0.000000   0.000000)
  17:       218.81    0.000000  (  0.000000   0.000000   0.000000)
  18:       239.97    0.000000  (  0.000000   0.000000   0.000000)
  19:       247.08    0.000000  (  0.000000   0.000000   0.000000)
  20:       261.66    0.000000  (  0.000000   0.000000   0.000000)
  21:       271.01    0.000000  (  0.000000   0.000000   0.000000)
  22:       306.14    0.000000  (  0.000000   0.000000   0.000000)
  23:       333.20    0.000000  (  0.000000   0.000000   0.000000)
  24:       360.29    0.000000  (  0.000000   0.000000   0.000000)
  25:       363.42    0.000000  (  0.000000   0.000000   0.000000)
  26:       379.78    0.000000  (  0.000000   0.000000   0.000000)
  27:       408.53    0.000000  (  0.000000   0.000000   0.000000)
  28:       429.11    0.000000  (  0.000000   0.000000   0.000000)
  29:       474.41    0.000000  (  0.000000   0.000000   0.000000)
  30:       492.18    0.000000  (  0.000000   0.000000   0.000000)
  31:       520.78    0.000000  (  0.000000   0.000000   0.000000)
  32:       547.35    0.000000  (  0.000000   0.000000   0.000000)
  33:       588.92    0.000000  (  0.000000   0.000000   0.000000)
  34:       623.42    0.000000  (  0.000000   0.000000   0.000000)
  35:       638.61    0.000000  (  0.000000   0.000000   0.000000)
  36:       677.16    0.000000  (  0.000000   0.000000   0.000000)
  37:       698.67    0.000000  (  0.000000   0.000000   0.000000)
  38:       758.33    0.000000  (  0.000000   0.000000   0.000000)
  39:       766.90    0.000000  (  0.000000   0.000000   0.000000)
  40:       808.66    0.000000  (  0.000000   0.000000   0.000000)
  41:       821.48    0.000000  (  0.000000   0.000000   0.000000)
  42:       840.55    0.000000  (  0.000000   0.000000   0.000000)
  43:       869.32    0.000000  (  0.000000   0.000000   0.000000)
  44:       884.81    0.000000  (  0.000000   0.000000   0.000000)
  45:       909.76    0.000000  (  0.000000   0.000000   0.000000)
  46:       930.35    0.000000  (  0.000000   0.000000   0.000000)
  47:       934.39    0.000000  (  0.000000   0.000000   0.000000)
  48:       937.03    0.000000  (  0.000000   0.000000   0.000000)
  49:       950.32    0.000000  (  0.000000   0.000000   0.000000)
  50:       967.58    0.000000  (  0.000000   0.000000   0.000000)
  51:       982.60    0.000000  (  0.000000   0.000000   0.000000)
  52:      1036.13    0.000000  (  0.000000   0.000000   0.000000)
  53:      1067.70    0.000000  (  0.000000   0.000000   0.000000)
  54:      1077.00    0.000000  (  0.000000   0.000000   0.000000)
  55:      1098.43    0.000000  (  0.000000   0.000000   0.000000)
  56:      1117.35    0.000000  (  0.000000   0.000000   0.000000)
  57:      1119.18    0.000000  (  0.000000   0.000000   0.000000)
  58:      1130.86    0.000000  (  0.000000   0.000000   0.000000)
  59:      1155.41    0.000000  (  0.000000   0.000000   0.000000)
  60:      1178.22    0.000000  (  0.000000   0.000000   0.000000)
  61:      1190.16    0.000000  (  0.000000   0.000000   0.000000)
  62:      1205.94    0.000000  (  0.000000   0.000000   0.000000)
  63:      1220.68    0.000000  (  0.000000   0.000000   0.000000)
  64:      1225.04    0.000000  (  0.000000   0.000000   0.000000)
  65:      1257.15    0.000000  (  0.000000   0.000000   0.000000)
  66:      1274.86    0.000000  (  0.000000   0.000000   0.000000)
  67:      1278.12    0.000000  (  0.000000   0.000000   0.000000)
  68:      1281.93    0.000000  (  0.000000   0.000000   0.000000)
  69:      1289.63    0.000000  (  0.000000   0.000000   0.000000)
  70:      1301.99    0.000000  (  0.000000   0.000000   0.000000)
  71:      1331.07    0.000000  (  0.000000   0.000000   0.000000)
  72:      1351.07    0.000000  (  0.000000   0.000000   0.000000)
  73:      1360.02    0.000000  (  0.000000   0.000000   0.000000)
  74:      1378.40    0.000000  (  0.000000   0.000000   0.000000)
  75:      1423.13    0.000000  (  0.000000   0.000000   0.000000)
  76:      1427.77    0.000000  (  0.000000   0.000000   0.000000)
  77:      1462.85    0.000000  (  0.000000   0.000000   0.000000)
  78:      1468.79    0.000000  (  0.000000   0.000000   0.000000)
  79:      1498.75    0.000000  (  0.000000   0.000000   0.000000)
  80:      1507.37    0.000000  (  0.000000   0.000000   0.000000)
  81:      1507.77    0.000000  (  0.000000   0.000000   0.000000)
  82:      1512.00    0.000000  (  0.000000   0.000000   0.000000)
  83:      1527.36    0.000000  (  0.000000   0.000000   0.000000)
  84:      1542.55    0.000000  (  0.000000   0.000000   0.000000)
  85:      1568.63    0.000000  (  0.000000   0.000000   0.000000)
  86:      1576.24    0.000000  (  0.000000   0.000000   0.000000)
  87:      2881.16    0.000000  (  0.000000   0.000000   0.000000)
  88:      2893.01    0.000000  (  0.000000   0.000000   0.000000)
  89:      2905.10    0.000000  (  0.000000   0.000000   0.000000)
  90:      2938.90    0.000000  (  0.000000   0.000000   0.000000)
  91:      2962.57    0.000000  (  0.000000   0.000000   0.000000)
  92:      2967.31    0.000000  (  0.000000   0.000000   0.000000)
  93:      2975.79    0.000000  (  0.000000   0.000000   0.000000)
  94:      2979.44    0.000000  (  0.000000   0.000000   0.000000)
  95:      2984.65    0.000000  (  0.000000   0.000000   0.000000)
  96:      2998.24    0.000000  (  0.000000   0.000000   0.000000)
  97:      3002.36    0.000000  (  0.000000   0.000000   0.000000)
  98:      3039.30    0.000000  (  0.000000   0.000000   0.000000)
  99:      3052.89    0.000000  (  0.000000   0.000000   0.000000)
 100:      3058.67    0.000000  (  0.000000   0.000000   0.000000)
 101:      3069.55    0.000000  (  0.000000   0.000000   0.000000)
 102:      3089.44    0.000000  (  0.000000   0.000000   0.000000)
 103:      3125.09    0.000000  (  0.000000   0.000000   0.000000)
 104:      3201.22    0.000000  (  0.000000   0.000000   0.000000)
 105:      3388.24    0.000000  (  0.000000   0.000000   0.000000)
 106:      3571.69    0.000000  (  0.000000   0.000000   0.000000)
 107:      3579.11    0.000000  (  0.000000   0.000000   0.000000)

The first frequency considered to be a vibration is 7
The total number of vibrations considered is 101


--------------------------
THERMOCHEMISTRY AT 298.15K
--------------------------

Temperature         ... 298.15 K
Pressure            ... 1.00 atm
Total Mass          ... 215.29 AMU

Throughout the following assumptions are being made:
  (1) The electronic state is orbitally nondegenerate
  (2) There are no thermally accessible electronically excited states
  (3) Hindered rotations indicated by low frequency modes are not
      treated as such but are treated as vibrations and this may
      cause some error
  (4) All equations used are the standard statistical mechanics
      equations for an ideal gas
  (5) All vibrations are strictly harmonic

freq.      42.11  E(vib)   ...       0.53 
freq.      56.47  E(vib)   ...       0.52 
freq.      65.74  E(vib)   ...       0.50 
freq.      66.29  E(vib)   ...       0.50 
freq.      69.59  E(vib)   ...       0.50 
freq.      98.99  E(vib)   ...       0.46 
freq.     111.67  E(vib)   ...       0.45 
freq.     118.00  E(vib)   ...       0.44 
freq.     167.29  E(vib)   ...       0.39 
freq.     173.73  E(vib)   ...       0.38 
freq.     218.81  E(vib)   ...       0.33 
freq.     239.97  E(vib)   ...       0.31 
freq.     247.08  E(vib)   ...       0.31 
freq.     261.66  E(vib)   ...       0.30 
freq.     271.01  E(vib)   ...       0.29 
freq.     306.14  E(vib)   ...       0.26 
freq.     333.20  E(vib)   ...       0.24 
freq.     360.29  E(vib)   ...       0.22 
freq.     363.42  E(vib)   ...       0.22 
freq.     379.78  E(vib)   ...       0.21 
freq.     408.53  E(vib)   ...       0.19 
freq.     429.11  E(vib)   ...       0.18 
freq.     474.41  E(vib)   ...       0.15 
freq.     492.18  E(vib)   ...       0.14 
freq.     520.78  E(vib)   ...       0.13 
freq.     547.35  E(vib)   ...       0.12 
freq.     588.92  E(vib)   ...       0.10 
freq.     623.42  E(vib)   ...       0.09 
freq.     638.61  E(vib)   ...       0.09 
freq.     677.16  E(vib)   ...       0.08 
freq.     698.67  E(vib)   ...       0.07 
freq.     758.33  E(vib)   ...       0.06 
freq.     766.90  E(vib)   ...       0.06 
freq.     808.66  E(vib)   ...       0.05 
freq.     821.48  E(vib)   ...       0.05 
freq.     840.55  E(vib)   ...       0.04 
freq.     869.32  E(vib)   ...       0.04 
freq.     884.81  E(vib)   ...       0.04 
freq.     909.76  E(vib)   ...       0.03 
freq.     930.35  E(vib)   ...       0.03 
freq.     934.39  E(vib)   ...       0.03 
freq.     937.03  E(vib)   ...       0.03 
freq.     950.32  E(vib)   ...       0.03 
freq.     967.58  E(vib)   ...       0.03 
freq.     982.60  E(vib)   ...       0.02 
freq.    1036.13  E(vib)   ...       0.02 
freq.    1067.70  E(vib)   ...       0.02 
freq.    1077.00  E(vib)   ...       0.02 
freq.    1098.43  E(vib)   ...       0.02 
freq.    1117.35  E(vib)   ...       0.01 
freq.    1119.18  E(vib)   ...       0.01 
freq.    1130.86  E(vib)   ...       0.01 
freq.    1155.41  E(vib)   ...       0.01 
freq.    1178.22  E(vib)   ...       0.01 
freq.    1190.16  E(vib)   ...       0.01 
freq.    1205.94  E(vib)   ...       0.01 
freq.    1220.68  E(vib)   ...       0.01 
freq.    1225.04  E(vib)   ...       0.01 
freq.    1257.15  E(vib)   ...       0.01 
freq.    1274.86  E(vib)   ...       0.01 
freq.    1278.12  E(vib)   ...       0.01 
freq.    1281.93  E(vib)   ...       0.01 
freq.    1289.63  E(vib)   ...       0.01 
freq.    1301.99  E(vib)   ...       0.01 
freq.    1331.07  E(vib)   ...       0.01 
freq.    1351.07  E(vib)   ...       0.01 
freq.    1360.02  E(vib)   ...       0.01 
freq.    1378.40  E(vib)   ...       0.01 
freq.    1423.13  E(vib)   ...       0.00 
freq.    1427.77  E(vib)   ...       0.00 
freq.    1462.85  E(vib)   ...       0.00 
freq.    1468.79  E(vib)   ...       0.00 
freq.    1498.75  E(vib)   ...       0.00 
freq.    1507.37  E(vib)   ...       0.00 
freq.    1507.77  E(vib)   ...       0.00 
freq.    1512.00  E(vib)   ...       0.00 
freq.    1527.36  E(vib)   ...       0.00 
freq.    1542.55  E(vib)   ...       0.00 
freq.    1568.63  E(vib)   ...       0.00 
freq.    1576.24  E(vib)   ...       0.00 
freq.    2881.16  E(vib)   ...       0.00 
freq.    2893.01  E(vib)   ...       0.00 
freq.    2905.10  E(vib)   ...       0.00 
freq.    2938.90  E(vib)   ...       0.00 
freq.    2962.57  E(vib)   ...       0.00 
freq.    2967.31  E(vib)   ...       0.00 
freq.    2975.79  E(vib)   ...       0.00 
freq.    2979.44  E(vib)   ...       0.00 
freq.    2984.65  E(vib)   ...       0.00 
freq.    2998.24  E(vib)   ...       0.00 
freq.    3002.36  E(vib)   ...       0.00 
freq.    3039.30  E(vib)   ...       0.00 
freq.    3052.89  E(vib)   ...       0.00 
freq.    3058.67  E(vib)   ...       0.00 
freq.    3069.55  E(vib)   ...       0.00 
freq.    3089.44  E(vib)   ...       0.00 
freq.    3125.09  E(vib)   ...       0.00 
freq.    3201.22  E(vib)   ...       0.00 
freq.    3388.24  E(vib)   ...       0.00 
freq.    3571.69  E(vib)   ...       0.00 
freq.    3579.11  E(vib)   ...       0.00 

------------
INNER ENERGY
------------

The inner energy is: U= E(el) + E(ZPE) + E(vib) + E(rot) + E(trans)
    E(el)   - is the total energy from the electronic structure calculation
              = E(kin-el) + E(nuc-el) + E(el-el) + E(nuc-nuc)
    E(ZPE)  - the the zero temperature vibrational energy from the frequency calculation
    E(vib)  - the the finite temperature correction to E(ZPE) due to population
              of excited vibrational states
    E(rot)  - is the rotational thermal energy
    E(trans)- is the translational thermal energy

Summary of contributions to the inner energy U:
Electronic energy                ...    -49.38719293 Eh
Zero point energy                ...      0.30305496 Eh     190.17 kcal/mol
Thermal vibrational correction   ...      0.01514086 Eh       9.50 kcal/mol
Thermal rotational correction    ...      0.00141627 Eh       0.89 kcal/mol
Thermal translational correction ...      0.00141627 Eh       0.89 kcal/mol
-----------------------------------------------------------------------
Total thermal energy                    -49.06616457 Eh


Summary of corrections to the electronic energy:
(perhaps to be used in another calculation)
Total thermal correction                  0.01797340 Eh      11.28 kcal/mol
Non-thermal (ZPE) correction              0.30305496 Eh     190.17 kcal/mol
-----------------------------------------------------------------------
Total correction                          0.32102836 Eh     201.45 kcal/mol


--------
ENTHALPY
--------

The enthalpy is H = U + kB*T
                kB is Boltzmann's constant
Total free energy                 ...    -49.06616457 Eh 
Thermal Enthalpy correction       ...      0.00094421 Eh       0.59 kcal/mol
-----------------------------------------------------------------------
Total Enthalpy                    ...    -49.06522036 Eh


Note: Only C1 symmetry has been detected, increase convergence thresholds 
      if your molecule has a higher symmetry. Symmetry factor of 1.0 is   
      used for the rotational entropy correction. 
 

Note: Rotational entropy computed according to Herzberg 
Infrared and Raman Spectra, Chapter V,1, Van Nostrand Reinhold, 1945 
Point Group:  C1, Symmetry Number:   1  
Rotational constants in cm-1:     0.034683     0.009056     0.008191 

Vibrational entropy computed according to the QRRHO of S. Grimme
Chem.Eur.J. 2012 18 9955


-------
ENTROPY
-------

The entropy contributions are T*S = T*(S(el)+S(vib)+S(rot)+S(trans))
     S(el)   - electronic entropy
     S(vib)  - vibrational entropy
     S(rot)  - rotational entropy
     S(trans)- translational entropy
The entropies will be listed as mutliplied by the temperature to get
units of energy

Electronic entropy                ...      0.00000000 Eh      0.00 kcal/mol
Vibrational entropy               ...      0.02652964 Eh     16.65 kcal/mol
Rotational entropy                ...      0.01558693 Eh      9.78 kcal/mol
Translational entropy             ...      0.01995728 Eh     12.52 kcal/mol
-----------------------------------------------------------------------
Final entropy term                ...      0.06207385 Eh     38.95 kcal/mol

In case the symmetry of your molecule has not been determined correctly
or in case you have a reason to use a different symmetry number we print 
out the resulting rotational entropy values for sn=1,12 :
 --------------------------------------------------------
|  sn= 1 | S(rot)=       0.01558693 Eh      9.78 kcal/mol|
|  sn= 2 | S(rot)=       0.01493247 Eh      9.37 kcal/mol|
|  sn= 3 | S(rot)=       0.01454964 Eh      9.13 kcal/mol|
|  sn= 4 | S(rot)=       0.01427801 Eh      8.96 kcal/mol|
|  sn= 5 | S(rot)=       0.01406733 Eh      8.83 kcal/mol|
|  sn= 6 | S(rot)=       0.01389518 Eh      8.72 kcal/mol|
|  sn= 7 | S(rot)=       0.01374964 Eh      8.63 kcal/mol|
|  sn= 8 | S(rot)=       0.01362356 Eh      8.55 kcal/mol|
|  sn= 9 | S(rot)=       0.01351235 Eh      8.48 kcal/mol|
|  sn=10 | S(rot)=       0.01341287 Eh      8.42 kcal/mol|
|  sn=11 | S(rot)=       0.01332288 Eh      8.36 kcal/mol|
|  sn=12 | S(rot)=       0.01324073 Eh      8.31 kcal/mol|
 --------------------------------------------------------


-------------------
GIBBS FREE ENERGY
-------------------

The Gibbs free energy is G = H - T*S

Total enthalpy                    ...    -49.06522036 Eh 
Total entropy correction          ...     -0.06207385 Eh    -38.95 kcal/mol
-----------------------------------------------------------------------
Final Gibbs free energy         ...    -49.12729421 Eh

For completeness - the Gibbs free energy minus the electronic energy
G-E(el)                           ...      0.25989872 Eh    163.09 kcal/mol


Total Time for Numerical Frequencies  :       108.969 sec
Time for Reference State(s)           :         0.213 sec
Time for Displacements                :        96.795 sec

Timings for individual modules:

Sum of individual times         ...        0.416 sec (=   0.007 min)
XTB module                      ...        0.416 sec (=   0.007 min) 100.0 %
                             ****ORCA TERMINATED NORMALLY****
TOTAL RUN TIME: 0 days 0 hours 1 minutes 50 seconds 207 msec
