(SLURM) JOB ID:         311

                                 *****************
                                 * O   R   C   A *
                                 *****************

           --- An Ab Initio, DFT and Semiempirical electronic structure package ---

                  #######################################################
                  #                        -***-                        #
                  #          Department of theory and spectroscopy      #
                  #               Directorship: Frank Neese             #
                  #        Max Planck Institute fuer Kohlenforschung    #
                  #                Kaiser Wilhelm Platz 1               #
                  #                 D-45470 Muelheim/Ruhr               #
                  #                      Germany                        #
                  #                                                     #
                  #                  All rights reserved                #
                  #                        -***-                        #
                  #######################################################


                         Program Version 4.2.1 -  RELEASE  -


 With contributions from (in alphabetic order):
   Daniel Aravena         : Magnetic Suceptibility
   Michael Atanasov       : Ab Initio Ligand Field Theory (pilot matlab implementation)
   Alexander A. Auer      : GIAO ZORA, VPT2
   Ute Becker             : Parallelization
   Giovanni Bistoni       : ED, misc. LED, open-shell LED, HFLD
   Martin Brehm           : Molecular dynamics
   Dmytro Bykov           : SCF Hessian
   Vijay G. Chilkuri      : MRCI spin determinant printing, contributions to CSF-ICE
   Dipayan Datta          : RHF DLPNO-CCSD density
   Achintya Kumar Dutta   : EOM-CC, STEOM-CC
   Dmitry Ganyushin       : Spin-Orbit,Spin-Spin,Magnetic field MRCI
   Miquel Garcia          : C-PCM Hessian, Gaussian charge scheme
   Yang Guo               : DLPNO-NEVPT2, CIM, IAO-localization
   Andreas Hansen         : Spin unrestricted coupled pair/coupled cluster methods
   Benjamin Helmich-Paris : CASSCF linear response (MC-RPA)
   Lee Huntington         : MR-EOM, pCC
   Robert Izsak           : Overlap fitted RIJCOSX, COSX-SCS-MP3, EOM
   Christian Kollmar      : KDIIS, OOCD, Brueckner-CCSD(T), CCSD density
   Simone Kossmann        : Meta GGA functionals, TD-DFT gradient, OOMP2, MP2 Hessian
   Martin Krupicka        : AUTO-CI
   Lucas Lang             : DCDCAS
   Dagmar Lenk            : GEPOL surface, SMD
   Dimitrios Liakos       : Extrapolation schemes; Compound Job, initial MDCI parallelization
   Dimitrios Manganas     : Further ROCIS development; embedding schemes
   Dimitrios Pantazis     : SARC Basis sets
   Taras Petrenko         : DFT Hessian,TD-DFT gradient, ASA, ECA, R-Raman, ABS, FL, XAS/XES, NRVS
   Peter Pinski           : DLPNO-MP2, DLPNO-MP2 Gradient
   Christoph Reimann      : Effective Core Potentials
   Marius Retegan         : Local ZFS, SOC
   Christoph Riplinger    : Optimizer, TS searches, QM/MM, DLPNO-CCSD(T), (RO)-DLPNO pert. Triples
   Tobias Risthaus        : Range-separated hybrids, TD-DFT gradient, RPA, STAB
   Michael Roemelt        : Original ROCIS implementation
   Masaaki Saitow         : Open-shell DLPNO-CCSD energy and density
   Barbara Sandhoefer     : DKH picture change effects
   Avijit Sen             : IP-ROCIS
   Kantharuban Sivalingam : CASSCF convergence, NEVPT2, FIC-MRCI
   Bernardo de Souza      : ESD, SOC TD-DFT
   Georgi Stoychev        : AutoAux, RI-MP2 NMR
   Willem Van den Heuvel  : Paramagnetic NMR
   Boris Wezisla          : Elementary symmetry handling
   Frank Wennmohs         : Technical directorship


 We gratefully acknowledge several colleagues who have allowed us to
 interface, adapt or use parts of their codes:
   Stefan Grimme, W. Hujo, H. Kruse,             : VdW corrections, initial TS optimization,
                  C. Bannwarth                     DFT functionals, gCP, sTDA/sTD-DF
   Ed Valeev, F. Pavosevic, A. Kumar             : LibInt (2-el integral package), F12 methods
   Garnet Chan, S. Sharma, J. Yang, R. Olivares  : DMRG
   Ulf Ekstrom                                   : XCFun DFT Library
   Mihaly Kallay                                 : mrcc  (arbitrary order and MRCC methods)
   Andreas Klamt, Michael Diedenhofen            : otool_cosmo (COSMO solvation model)
   Jiri Pittner, Ondrej Demel                    : Mk-CCSD
   Frank Weinhold                                : gennbo (NPA and NBO analysis)
   Christopher J. Cramer and Donald G. Truhlar   : smd solvation model
   Lars Goerigk                                  : TD-DFT with DH, B97 family of functionals
   V. Asgeirsson, H. Jonsson                     : NEB implementation
   FAccTs GmbH                                   : IRC, NEB, NEB-TS, Multilevel, MM, QM/MM, CI optimization
   S Lehtola, MJT Oliveira, MAL Marques          : LibXC Library


 Your calculation uses the libint2 library for the computation of 2-el integrals
 For citations please refer to: http://libint.valeyev.net

 Your ORCA version has been built with support for libXC version: 4.2.3
 For citations please refer to: https://tddft.org/programs/libxc/

 This ORCA versions uses:
   CBLAS   interface :  Fast vector & matrix operations
   LAPACKE interface :  Fast linear algebra routines
   SCALAPACK package :  Parallel linear algebra routines




***************************************
The coordinates will be read from file: init.xyz
***************************************


Your calculation utilizes the SMD solvation module
Please cite in your paper:
A.V. Marenich, C.J. Cramer, D.G. Truhlar J. Phys. Chem. B, 113, (2009), 6378 

Your calculation utilizes the semiempirical GFN2-xTB method
Please cite in your paper:
C. Bannwarth, Ehlert S., S. Grimme,  J. Chem. Theory Comput., 15, (2019), 1652.
   

----- Orbital basis set information -----
Your calculation utilizes the basis: def2-SVP
   F. Weigend and R. Ahlrichs, Phys. Chem. Chem. Phys. 7, 3297 (2005).

================================================================================
                                        WARNINGS
                       Please study these warnings very carefully!
================================================================================

WARNING: Gradients needed for Numerical Frequencies
  ===> : Setting RunTyp to EnGrad

WARNING: The environment variable RSH_COMMAND is not set!
  ===> : All Displacements for the Numerical Hessian calculation
         will be started on localhost

WARNING: Found dipole moment calculation with XTB calculation
  ===> : Switching off dipole moment calculation


INFO   : the flag for use of LIBINT has been found!

================================================================================
                                       INPUT FILE
================================================================================
NAME = /tmp/slurm-scratch/freq.311/freq.inp
|  1> ! XTB2 NumFreq
|  2> %maxcore 1450
|  3> 
|  4> * xyzfile 0 1 init.xyz
|  5> 
|  6> %cpcm
|  7>  smd true
|  8>  smdsolvent "ch2cl2"
|  9> end
| 10> %pal nprocs 8 end
| 11> 
| 12>                          ****END OF INPUT****
================================================================================

                     *******************************
                     * Energy+Gradient Calculation *
                     *******************************

      -----------------------------------------------------------      
     |                   =====================                   |     
     |                           x T B                           |     
     |                   =====================                   |     
     |                         S. Grimme                         |     
     |          Mulliken Center for Theoretical Chemistry        |     
     |                    University of Bonn                     |     
      -----------------------------------------------------------      

   * xtb version 6.3.0 (preview) compiled by 'ehlert@majestix' on 2020-01-15

   This program is distributed in the hope that it will be useful,
   but WITHOUT ANY WARRANTY; without even the implied warranty of
   MERCHANTABILITY or FITNESS FOR A PARTICULAR PURPOSE.
   
   FOR NON-COMMERCIAL, ACADEMIA USE ONLY.
   
   Cite this work as:
   * S. Grimme, C. Bannwarth, P. Shushkov, J. Chem. Theory Comput., 2017,
     13, 1989-2009. DOI: 10.1021/acs.jctc.7b00118
   * C. Bannwarth, S. Ehlert and S. Grimme., J. Chem. Theory Comput., 2019,
     15, 1652-1671. DOI: 10.1021/acs.jctc.8b01176
   * P. Pracht, E. Caldeweyher, S. Ehlert, S. Grimme, ChemRxiv, 2019, preprint.
     DOI: 10.26434/chemrxiv.8326202.v1
   * S. Grimme, S. Spicher unpublished
   
   for DFT-D4:
   * E. Caldeweyher, C. Bannwarth and S. Grimme, J. Chem. Phys., 2017,
     147, 034112. DOI: 10.1063/1.4993215
   * E. Caldeweyher, S. Ehlert, A. Hansen, H. Neugebauer, S. Spicher,
     C. Bannwarth and S. Grimme, J. Chem. Phys., 2019, 150, 154122.
     DOI: 10.1063/1.5090222
   
   for sTDA-xTB:
   * S. Grimme and C. Bannwarth, J. Chem. Phys., 2016, 145, 054103.
     DOI: 10.1063/1.4959605
   
   in the mass-spec context:
   * V. Asgeirsson, C. Bauer and S. Grimme, Chem. Sci., 2017, 8, 4879.
     DOI: 10.1039/c7sc00601b
   
   for metadynamics refer to:
   * S. Grimme, J. Chem. Theory Comput., 2019, 155, 2847-2862
     DOI: 10.1021/acs.jctc.9b00143
   
   with help from (in alphabetical order)
   C. Bannwarth, F. Bohle, G. Brandenburg, E. Caldeweyher, M. Checinski,
   S. Dohm, S. Ehlert, S. Ehrlich, F. März, H. Neugebauer, J. Pisarek,
   P. Pracht, P. Shushkov, and S. Spicher.
   
 * started run on 2020/11/18 at 17:36:49.924     

           -------------------------------------------------
          |                Calculation Setup                |
           -------------------------------------------------

          program call               : /opt/orca/otool_xtb /tmp/slurm-scratch/freq.311/freq_XTB.xyz --grad -c 0 -u 0 -P 8 --namespace /tmp/slurm-scratch/freq.311/freq --gbsa CH2Cl2
          hostname                   : headnode-pbs
          calculation namespace      : /tmp/slurm-scratch/freq.311/freq
          coordinate file            : /tmp/slurm-scratch/freq.311/freq_XTB.xyz
          omp threads                :                     8
          number of atoms            :                    46
          number of electrons        :                   104
          charge                     :                     0
          spin                       :                   0.0
          first test random number   :      0.31188461860185


molecular fragmentation (1/2 indicates fragments):
1111111111211112122211121112221112222222111111
# atoms in fragment 1/2:    30    16
 fragment masses (1/2) :      179.26       73.14
CMA distance (Bohr)    :   8.637
constraining FC (au)   :  0.0500

########################################################################
# WARNING! Please study the warnings concerning your input carefully
#  - Process number higher than OMP_NUM_THREADS, I hope you know what you are doing.
########################################################################

           ------------------------------------------------- 
          |                 G F N 2 - x T B                 |
          | Geometry, Frequencies, Noncovalent interactions |
          |            JCTC 2019 parametrisation            |
           ------------------------------------------------- 
             k(s)              :                1.8500
             k(p)              :                2.2300
             k(d)              :                2.2300
             k(f)              :                2.0000
             kEN (H0ij)        :               -2.0000
             D4 a1             :                0.5200
             D4 a2             :                5.0000
             D4 s6             :                1.0000
             D4 s8             :                2.7000
             D4 s9             :                5.0000
             alphaj            :                2.0000

  Z AO/shell   Hii/eV     exponent
  1     Wed Apr 25 08:07:45 CEST 2018   EN: 2.200 GM2: 0.406  GM3: 0.0800  RAES: 1.40
     1s    -10.707211    1.230000
  6     Wed Apr 25 08:07:45 CEST 2018   EN: 2.550 GM2: 0.538  GM3: 0.1500  RAES: 3.00
     2s    -13.970922    2.096432
     2p    -10.063292    1.800000
  7     Wed Apr 25 08:07:45 CEST 2018   EN: 3.040 GM2: 0.461  GM3:-0.0640  RAES: 1.90
     2s    -16.686243    2.339881
     2p    -12.523956    2.014332
  8     Wed Apr 25 08:07:45 CEST 2018   EN: 3.440 GM2: 0.452  GM3:-0.0517  RAES: 1.80
     2s    -20.229985    2.439742
     2p    -15.503117    2.137023

 Solvent             : CH2Cl2
 Using internal parameter file: .param_gbsa2_CH2Cl2
 Gsolv ref. state (COSMO-RS): gsolv [1 M gas/solution]
 temperature (mdtemp)       :    298.150000000000     
 dielectric constant        :    8.93000000000000     
 rho                        :    1.33000000000000     
 mass                       :    84.9300000000000     
 surface tension            :    15.5689454083859     
 probe radius               :   0.719875900000000     
 Gshift (Eh)                :   4.440829173451759E-003
 c1                         :    1.49173776000000     
 soset                      :   0.000000000000000E+000
 HB correction              :  F
           ------------------------------------------------- 
          |        Self-Consistent Charge Iterations        |
           ------------------------------------------------- 

          ...................................................
          :                      SETUP                      :
          :.................................................:
          :  # basis functions                 100          :
          :  # atomic orbitals                 100          :
          :  # shells                           64          :
          :  # electrons                       104          :
          :  max. iterations                   250          :
          :  Hamiltonian                  GFN2-xTB          :
          :  GBSA solvation                   true          :
          :  PC potential                    false          :
          :  electronic temp.          300.0000000     K    :
          :  accuracy                    1.0000000          :
          :  -> integral cutoff          0.2500000E+02      :
          :  -> integral neglect         0.1000000E-07      :
          :  -> SCF convergence          0.1000000E-05 Eh   :
          :  -> wf. convergence          0.1000000E-03 e    :
          :  Broyden damping             0.4000000          :
          ...................................................
  Checking positiv definite overlap ...  done.
 

 iter      E             dE          RMSdq      gap      omega  full diag
   1    -57.0264402 -0.570264E+02  0.327E+00    3.81       0.0  T
   2    -57.0938011 -0.673609E-01  0.185E+00    3.90       1.0  T
   3    -57.0952620 -0.146098E-02  0.655E-01    3.85       1.0  T
   4    -57.0957376 -0.475527E-03  0.209E-01    3.86       1.0  T
   5    -57.0974970 -0.175941E-02  0.664E-02    3.84       1.0  T
   6    -57.0975394 -0.424201E-04  0.262E-02    3.85       1.0  T
   7    -57.0975406 -0.115482E-05  0.773E-03    3.85       1.9  T
   8    -57.0975414 -0.869015E-06  0.238E-03    3.85       6.2  T
   9    -57.0975415 -0.107212E-06  0.122E-03    3.85      12.1  T
  10    -57.0975415 -0.453601E-08  0.403E-04    3.85      36.6  T
  11    -57.0975415 -0.264276E-08  0.157E-04    3.85      93.7  T

   *** convergence criteria satisfied after 11 iterations ***

         #    Occupation            Energy/Eh            Energy/eV
      -------------------------------------------------------------
         1        2.0000           -0.6978975             -18.9908
       ...           ...                  ...                  ...
        46        2.0000           -0.4228120             -11.5053
        47        2.0000           -0.4199807             -11.4283
        48        2.0000           -0.4153635             -11.3026
        49        2.0000           -0.4052816             -11.0283
        50        2.0000           -0.4029413             -10.9646
        51        2.0000           -0.3729078             -10.1473
        52        2.0000           -0.3713934             -10.1061 (HOMO)
        53                         -0.2299747              -6.2579 (LUMO)
        54                         -0.2264708              -6.1626
        55                         -0.1028115              -2.7976
        56                          0.0122673               0.3338
        57                          0.0223736               0.6088
       ...                                ...                  ...
       100                          0.6449153              17.5490
      -------------------------------------------------------------
                  HL-Gap            0.1414187 Eh            3.8482 eV
             Fermi-level           -0.3006841 Eh           -8.1820 eV

 SCC (total)                   0 d,  0 h,  0 min,  0.073 sec
 SCC setup                      ...        0 min,  0.004 sec (  5.292%)
 Dispersion                     ...        0 min,  0.001 sec (  1.289%)
 integral evaluation            ...        0 min,  0.014 sec ( 19.440%)
 zeroth order Hamiltonian       ...        0 min,  0.000 sec (  0.019%)
 iterations                     ...        0 min,  0.038 sec ( 52.355%)
 molecular gradient             ...        0 min,  0.015 sec ( 20.356%)
 printout                       ...        0 min,  0.001 sec (  1.183%)

         :::::::::::::::::::::::::::::::::::::::::::::::::::::
         ::                     SUMMARY                     ::
         :::::::::::::::::::::::::::::::::::::::::::::::::::::
         :: total energy             -56.312614762695 Eh    ::
         :: total w/o Gsasa/hb       -56.290842952495 Eh    ::
         :: gradient norm              0.026330837441 Eh/a0 ::
         :: HOMO-LUMO gap              3.848199694186 eV    ::
         ::.................................................::
         :: SCC energy               -57.119313351495 Eh    ::
         :: -> isotropic ES            0.056092856921 Eh    ::
         :: -> anisotropic ES          0.008440661211 Eh    ::
         :: -> anisotropic XC          0.035415143929 Eh    ::
         :: -> dispersion             -0.039084633854 Eh    ::
         :: -> Gsolv                  -0.026131250840 Eh    ::
         ::    -> Gborn               -0.004359440639 Eh    ::
         ::    -> Gsasa               -0.026212639374 Eh    ::
         ::    -> Ghb                  0.000000000000 Eh    ::
         ::    -> Gshift               0.004440829173 Eh    ::
         :: repulsion energy           0.806095073182 Eh    ::
         :: add. restraining           0.000000000000 Eh    ::
         :::::::::::::::::::::::::::::::::::::::::::::::::::::

           -------------------------------------------------
          |                Property Printout                |
           -------------------------------------------------

    * Orbital Energies and Occupations

         #    Occupation            Energy/Eh            Energy/eV
      -------------------------------------------------------------
         1        2.0000           -0.6978975             -18.9908
       ...           ...                  ...                  ...
        40        2.0000           -0.4430076             -12.0548
        41        2.0000           -0.4399219             -11.9709
        42        2.0000           -0.4391781             -11.9506
        43        2.0000           -0.4352705             -11.8443
        44        2.0000           -0.4350669             -11.8388
        45        2.0000           -0.4287795             -11.6677
        46        2.0000           -0.4228120             -11.5053
        47        2.0000           -0.4199807             -11.4283
        48        2.0000           -0.4153635             -11.3026
        49        2.0000           -0.4052816             -11.0283
        50        2.0000           -0.4029413             -10.9646
        51        2.0000           -0.3729078             -10.1473
        52        2.0000           -0.3713934             -10.1061 (HOMO)
        53                         -0.2299747              -6.2579 (LUMO)
        54                         -0.2264708              -6.1626
        55                         -0.1028115              -2.7976
        56                          0.0122673               0.3338
        57                          0.0223736               0.6088
        58                          0.0327168               0.8903
        59                          0.0595860               1.6214
        60                          0.0762952               2.0761
        61                          0.0888774               2.4185
        62                          0.0946398               2.5753
        63                          0.1088900               2.9630
       ...                                ...                  ...
       100                          0.6449153              17.5490
      -------------------------------------------------------------
                  HL-Gap            0.1414187 Eh            3.8482 eV
             Fermi-level           -0.3006841 Eh           -8.1820 eV

     #   Z        covCN         q      C6AA      α(0)
     1   6 C      2.914    -0.029    28.733     8.790
     2   6 C      2.919    -0.037    28.916     8.818
     3   6 C      2.968    -0.016    28.401     8.741
     4   6 C      2.917    -0.036    28.896     8.815
     5   6 C      2.915    -0.030    28.753     8.793
     6   6 C      2.915    -0.030    28.756     8.793
     7   1 H      0.925     0.035     2.519     2.482
     8   1 H      0.925     0.053     2.283     2.363
     9   1 H      0.925     0.040     2.450     2.448
    10   7 N      2.683    -0.279    27.198     7.746
    11   1 H      0.860     0.164     1.309     1.792
    12   6 C      3.740     0.022    20.278     6.425
    13   1 H      0.924     0.015     2.812     2.622
    14   1 H      0.924     0.031     2.566     2.505
    15   1 H      0.860     0.155     1.365     1.830
    16   7 N      2.627    -0.380    29.811     8.109
    17   1 H      0.805     0.295     0.735     1.347
    18   6 C      3.731     0.021    20.313     6.433
    19   1 H      0.924     0.029     2.599     2.521
    20   1 H      0.924     0.022     2.698     2.568
    21   6 C      3.667     0.181    17.946     6.074
    22   1 H      0.924     0.018     2.765     2.600
    23   8 O      1.650    -0.494    22.768     6.441
    24   1 H      0.860     0.136     1.499     1.918
    25   6 C      3.803    -0.065    21.741     6.638
    26   1 H      0.924     0.037     2.490     2.468
    27   1 H      0.924     0.042     2.418     2.432
    28   6 C      3.800    -0.065    21.740     6.639
    29   1 H      0.924     0.025     2.660     2.551
    30   1 H      0.924     0.029     2.604     2.524
    31   6 C      3.800    -0.050    21.470     6.597
    32   1 H      0.924     0.029     2.607     2.525
    33   1 H      0.924     0.031     2.577     2.510
    34   6 C      3.800    -0.051    21.490     6.600
    35   1 H      0.924     0.029     2.607     2.525
    36   1 H      0.924     0.028     2.614     2.528
    37   6 C      3.750    -0.100    22.483     6.762
    38   1 H      0.924     0.035     2.510     2.478
    39   1 H      0.924     0.032     2.558     2.501
    40   1 H      0.924     0.038     2.469     2.457
    41   6 C      3.750    -0.103    22.526     6.769
    42   1 H      0.924     0.036     2.499     2.472
    43   1 H      0.924     0.035     2.511     2.478
    44   1 H      0.924     0.039     2.460     2.453
    45   1 H      0.925     0.040     2.445     2.445
    46   1 H      0.925     0.040     2.444     2.445

 Mol. C6AA /au·bohr⁶  :      17266.729419
 Mol. C8AA /au·bohr⁸  :     377241.852484
 Mol. α(0) /au        :        200.774896


Wiberg/Mayer (AO) data.
largest (>0.10) Wiberg bond orders for each atom
          total WBO             WBO to atom ...
     1  C   3.991        C    2 1.444    C    6 1.438    H   46 0.971    C    4 0.112
     2  C   3.990        C    1 1.444    C    3 1.415    H    7 0.969    C    5 0.112
     3  C   3.986        C    4 1.418    C    2 1.415    C   21 0.979    C    6 0.110
     4  C   3.990        C    5 1.441    C    3 1.418    H    8 0.964    C    1 0.112
     5  C   3.991        C    4 1.441    C    6 1.441    H   45 0.971    C    2 0.112
     6  C   3.991        C    5 1.441    C    1 1.438    H    9 0.971    C    3 0.110
     7  H   0.999        C    2 0.969
     8  H   0.997        C    4 0.964
     9  H   0.998        C    6 0.971
    10  N   3.094        C   21 1.033    C   12 0.997    H   15 0.943
    11  H   0.973        N   16 0.946
    12  C   3.980        C   25 1.006    N   10 0.997    H   14 0.973    H   13 0.966
    13  H   1.000        C   12 0.966
    14  H   0.999        C   12 0.973
    15  H   0.976        N   10 0.943
    16  N   2.998        C   18 1.024    H   24 0.968    H   11 0.946
    17  H   0.913        O   23 0.897
    18  C   3.985        N   16 1.024    C   28 0.996    H   19 0.975    H   20 0.972
    19  H   0.999        C   18 0.975
    20  H   0.999        C   18 0.972
    21  C   3.947        N   10 1.033    C    3 0.979    H   22 0.956    O   23 0.929
    22  H   0.999        C   21 0.956
    23  O   1.938        C   21 0.929    H   17 0.897
    24  H   0.981        N   16 0.968
    25  C   3.994        C   31 1.007    C   12 1.006    H   27 0.976    H   26 0.971
    26  H   0.999        C   25 0.971
    27  H   0.998        C   25 0.976
    28  C   3.997        C   34 1.007    C   18 0.996    H   29 0.977    H   30 0.973
    29  H   0.999        C   28 0.977
    30  H   0.999        C   28 0.973
    31  C   3.997        C   41 1.019    C   25 1.007    H   33 0.978    H   32 0.975
    32  H   0.999        C   31 0.975
    33  H   0.999        C   31 0.978
    34  C   3.997        C   37 1.019    C   28 1.007    H   35 0.978    H   36 0.974
    35  H   0.999        C   34 0.978
    36  H   0.999        C   34 0.974
    37  C   3.996        C   34 1.019    H   39 0.988    H   38 0.987    H   40 0.984
    38  H   0.998        C   37 0.987
    39  H   0.999        C   37 0.988
    40  H   0.999        C   37 0.984
    41  C   3.996        C   31 1.019    H   43 0.988    H   42 0.987    H   44 0.986
    42  H   0.998        C   41 0.987
    43  H   0.999        C   41 0.988
    44  H   0.998        C   41 0.986
    45  H   0.998        C    5 0.971
    46  H   0.998        C    1 0.971

molecular dipole:
                 x           y           z       tot (Debye)
 q only:        0.057       0.346       0.007
   full:       -0.064       0.029       0.387       1.000
molecular quadrupole (traceless):
                xx          xy          yy          xz          yz          zz
 q only:        6.574       1.026      -4.388       2.932       0.231      -2.185
  q+dip:        2.498       5.405      -0.945       0.377       1.877      -1.553
   full:        3.599       4.498      -2.681       2.600      -0.068      -0.918

           -------------------------------------------------
          |                Property Printout                |
           -------------------------------------------------

    * Orbital Energies and Occupations

         #    Occupation            Energy/Eh            Energy/eV
      -------------------------------------------------------------
         1        2.0000           -0.6978975             -18.9908
       ...           ...                  ...                  ...
        40        2.0000           -0.4430076             -12.0548
        41        2.0000           -0.4399219             -11.9709
        42        2.0000           -0.4391781             -11.9506
        43        2.0000           -0.4352705             -11.8443
        44        2.0000           -0.4350669             -11.8388
        45        2.0000           -0.4287795             -11.6677
        46        2.0000           -0.4228120             -11.5053
        47        2.0000           -0.4199807             -11.4283
        48        2.0000           -0.4153635             -11.3026
        49        2.0000           -0.4052816             -11.0283
        50        2.0000           -0.4029413             -10.9646
        51        2.0000           -0.3729078             -10.1473
        52        2.0000           -0.3713934             -10.1061 (HOMO)
        53                         -0.2299747              -6.2579 (LUMO)
        54                         -0.2264708              -6.1626
        55                         -0.1028115              -2.7976
        56                          0.0122673               0.3338
        57                          0.0223736               0.6088
        58                          0.0327168               0.8903
        59                          0.0595860               1.6214
        60                          0.0762952               2.0761
        61                          0.0888774               2.4185
        62                          0.0946398               2.5753
        63                          0.1088900               2.9630
       ...                                ...                  ...
       100                          0.6449153              17.5490
      -------------------------------------------------------------
                  HL-Gap            0.1414187 Eh            3.8482 eV
             Fermi-level           -0.3006841 Eh           -8.1820 eV

     #   Z        covCN         q      C6AA      α(0)
     1   6 C      2.914    -0.029    28.733     8.790
     2   6 C      2.919    -0.037    28.916     8.818
     3   6 C      2.968    -0.016    28.401     8.741
     4   6 C      2.917    -0.036    28.896     8.815
     5   6 C      2.915    -0.030    28.753     8.793
     6   6 C      2.915    -0.030    28.756     8.793
     7   1 H      0.925     0.035     2.519     2.482
     8   1 H      0.925     0.053     2.283     2.363
     9   1 H      0.925     0.040     2.450     2.448
    10   7 N      2.683    -0.279    27.198     7.746
    11   1 H      0.860     0.164     1.309     1.792
    12   6 C      3.740     0.022    20.278     6.425
    13   1 H      0.924     0.015     2.812     2.622
    14   1 H      0.924     0.031     2.566     2.505
    15   1 H      0.860     0.155     1.365     1.830
    16   7 N      2.627    -0.380    29.811     8.109
    17   1 H      0.805     0.295     0.735     1.347
    18   6 C      3.731     0.021    20.313     6.433
    19   1 H      0.924     0.029     2.599     2.521
    20   1 H      0.924     0.022     2.698     2.568
    21   6 C      3.667     0.181    17.946     6.074
    22   1 H      0.924     0.018     2.765     2.600
    23   8 O      1.650    -0.494    22.768     6.441
    24   1 H      0.860     0.136     1.499     1.918
    25   6 C      3.803    -0.065    21.741     6.638
    26   1 H      0.924     0.037     2.490     2.468
    27   1 H      0.924     0.042     2.418     2.432
    28   6 C      3.800    -0.065    21.740     6.639
    29   1 H      0.924     0.025     2.660     2.551
    30   1 H      0.924     0.029     2.604     2.524
    31   6 C      3.800    -0.050    21.470     6.597
    32   1 H      0.924     0.029     2.607     2.525
    33   1 H      0.924     0.031     2.577     2.510
    34   6 C      3.800    -0.051    21.490     6.600
    35   1 H      0.924     0.029     2.607     2.525
    36   1 H      0.924     0.028     2.614     2.528
    37   6 C      3.750    -0.100    22.483     6.762
    38   1 H      0.924     0.035     2.510     2.478
    39   1 H      0.924     0.032     2.558     2.501
    40   1 H      0.924     0.038     2.469     2.457
    41   6 C      3.750    -0.103    22.526     6.769
    42   1 H      0.924     0.036     2.499     2.472
    43   1 H      0.924     0.035     2.511     2.478
    44   1 H      0.924     0.039     2.460     2.453
    45   1 H      0.925     0.040     2.445     2.445
    46   1 H      0.925     0.040     2.444     2.445

 Mol. C6AA /au·bohr⁶  :      17266.729419
 Mol. C8AA /au·bohr⁸  :     377241.852484
 Mol. α(0) /au        :        200.774896


Wiberg/Mayer (AO) data.
largest (>0.10) Wiberg bond orders for each atom
          total WBO             WBO to atom ...
     1  C   3.991        C    2 1.444    C    6 1.438    H   46 0.971    C    4 0.112
     2  C   3.990        C    1 1.444    C    3 1.415    H    7 0.969    C    5 0.112
     3  C   3.986        C    4 1.418    C    2 1.415    C   21 0.979    C    6 0.110
     4  C   3.990        C    5 1.441    C    3 1.418    H    8 0.964    C    1 0.112
     5  C   3.991        C    4 1.441    C    6 1.441    H   45 0.971    C    2 0.112
     6  C   3.991        C    5 1.441    C    1 1.438    H    9 0.971    C    3 0.110
     7  H   0.999        C    2 0.969
     8  H   0.997        C    4 0.964
     9  H   0.998        C    6 0.971
    10  N   3.094        C   21 1.033    C   12 0.997    H   15 0.943
    11  H   0.973        N   16 0.946
    12  C   3.980        C   25 1.006    N   10 0.997    H   14 0.973    H   13 0.966
    13  H   1.000        C   12 0.966
    14  H   0.999        C   12 0.973
    15  H   0.976        N   10 0.943
    16  N   2.998        C   18 1.024    H   24 0.968    H   11 0.946
    17  H   0.913        O   23 0.897
    18  C   3.985        N   16 1.024    C   28 0.996    H   19 0.975    H   20 0.972
    19  H   0.999        C   18 0.975
    20  H   0.999        C   18 0.972
    21  C   3.947        N   10 1.033    C    3 0.979    H   22 0.956    O   23 0.929
    22  H   0.999        C   21 0.956
    23  O   1.938        C   21 0.929    H   17 0.897
    24  H   0.981        N   16 0.968
    25  C   3.994        C   31 1.007    C   12 1.006    H   27 0.976    H   26 0.971
    26  H   0.999        C   25 0.971
    27  H   0.998        C   25 0.976
    28  C   3.997        C   34 1.007    C   18 0.996    H   29 0.977    H   30 0.973
    29  H   0.999        C   28 0.977
    30  H   0.999        C   28 0.973
    31  C   3.997        C   41 1.019    C   25 1.007    H   33 0.978    H   32 0.975
    32  H   0.999        C   31 0.975
    33  H   0.999        C   31 0.978
    34  C   3.997        C   37 1.019    C   28 1.007    H   35 0.978    H   36 0.974
    35  H   0.999        C   34 0.978
    36  H   0.999        C   34 0.974
    37  C   3.996        C   34 1.019    H   39 0.988    H   38 0.987    H   40 0.984
    38  H   0.998        C   37 0.987
    39  H   0.999        C   37 0.988
    40  H   0.999        C   37 0.984
    41  C   3.996        C   31 1.019    H   43 0.988    H   42 0.987    H   44 0.986
    42  H   0.998        C   41 0.987
    43  H   0.999        C   41 0.988
    44  H   0.998        C   41 0.986
    45  H   0.998        C    5 0.971
    46  H   0.998        C    1 0.971

molecular dipole:
                 x           y           z       tot (Debye)
 q only:        0.057       0.346       0.007
   full:       -0.064       0.029       0.387       1.000
molecular quadrupole (traceless):
                xx          xy          yy          xz          yz          zz
 q only:        6.574       1.026      -4.388       2.932       0.231      -2.185
  q+dip:        2.498       5.405      -0.945       0.377       1.877      -1.553
   full:        3.599       4.498      -2.681       2.600      -0.068      -0.918


           -------------------------------------------------
          | TOTAL ENERGY              -56.312614762695 Eh   |
          | GRADIENT NORM               0.026330837441 Eh/α |
          | HOMO-LUMO GAP               3.848199694186 eV   |
           -------------------------------------------------

------------------------------------------------------------------------
 * finished run on 2020/11/18 at 17:36:50.061     
------------------------------------------------------------------------
 total:
 * wall-time:     0 d,  0 h,  0 min,  0.137 sec
 *  cpu-time:     0 d,  0 h,  0 min,  1.018 sec
 * ratio c/w:     7.441 speedup
 SCF:
 * wall-time:     0 d,  0 h,  0 min,  0.075 sec
 *  cpu-time:     0 d,  0 h,  0 min,  0.589 sec
 * ratio c/w:     7.847 speedup


-------------------------   --------------------
FINAL SINGLE POINT ENERGY       -56.312614762700
-------------------------   --------------------


----------------------------------------------------------------------------
                           ORCA NUMERICAL FREQUENCIES
                              (8-process run)
----------------------------------------------------------------------------

Number of atoms                ... 46
Central differences            ... used
Number of displacements        ... 276
Numerical increment            ... 5.000e-03 bohr
IR-spectrum generation         ... on
Raman-spectrum generation      ... off
Surface Crossing Hessian       ... off
List of participating nodes    ...  /tmp/slurm-scratch/freq.311/freq.hostnames

The output will be reduced. Please look at the following files:
SCF program output             ... >/tmp/slurm-scratch/freq.311/freq.lastscf
Integral program output        ... >/tmp/slurm-scratch/freq.311/freq.lastint
Gradient program output        ... >/tmp/slurm-scratch/freq.311/freq.lastgrad
Dipole moment program output   ... >/tmp/slurm-scratch/freq.311/freq.lastmom
AutoCI program output          ... >/tmp/slurm-scratch/freq.311/freq.lastautoci


         <<< Energy and Gradient at the input geometry >>>

        <<< Energy and Gradient at displaced geometries >>>
             <<<Displacing   2/coordinate 3 (+)>>>
             <<<Displacing   3/coordinate 1 (+)>>>
             <<<Displacing   1/coordinate 1 (+)>>>
             <<<Displacing   3/coordinate 2 (+)>>>
             <<<Displacing   2/coordinate 1 (+)>>>
             <<<Displacing   1/coordinate 2 (+)>>>
             <<<Displacing   1/coordinate 3 (+)>>>
             <<<Displacing   2/coordinate 2 (+)>>>
             <<<Displacing   3/coordinate 1 (-)>>>
             <<<Displacing   2/coordinate 1 (-)>>>
             <<<Displacing   2/coordinate 3 (-)>>>
             <<<Displacing   1/coordinate 1 (-)>>>
             <<<Displacing   3/coordinate 2 (-)>>>
             <<<Displacing   1/coordinate 2 (-)>>>
             <<<Displacing   1/coordinate 3 (-)>>>
             <<<Displacing   2/coordinate 2 (-)>>>
             <<<Displacing   3/coordinate 3 (+)>>>
             <<<Displacing   4/coordinate 2 (+)>>>
             <<<Displacing   5/coordinate 3 (+)>>>
             <<<Displacing   4/coordinate 3 (+)>>>
             <<<Displacing   3/coordinate 3 (-)>>>
             <<<Displacing   5/coordinate 2 (+)>>>
             <<<Displacing   4/coordinate 2 (-)>>>
             <<<Displacing   5/coordinate 3 (-)>>>
             <<<Displacing   4/coordinate 3 (-)>>>
             <<<Displacing   4/coordinate 1 (+)>>>
             <<<Displacing   6/coordinate 1 (+)>>>
             <<<Displacing   5/coordinate 2 (-)>>>
             <<<Displacing   4/coordinate 1 (-)>>>
             <<<Displacing   6/coordinate 1 (-)>>>
             <<<Displacing   5/coordinate 1 (+)>>>
             <<<Displacing   5/coordinate 1 (-)>>>
             <<<Displacing   7/coordinate 1 (+)>>>
             <<<Displacing   6/coordinate 3 (+)>>>
             <<<Displacing   6/coordinate 2 (+)>>>
             <<<Displacing   7/coordinate 1 (-)>>>
             <<<Displacing   7/coordinate 3 (+)>>>
             <<<Displacing   6/coordinate 3 (-)>>>
             <<<Displacing   6/coordinate 2 (-)>>>
             <<<Displacing   7/coordinate 2 (+)>>>
             <<<Displacing   7/coordinate 3 (-)>>>
             <<<Displacing   7/coordinate 2 (-)>>>
             <<<Displacing   8/coordinate 1 (+)>>>
             <<<Displacing   8/coordinate 1 (-)>>>
             <<<Displacing   8/coordinate 2 (+)>>>
             <<<Displacing   8/coordinate 3 (+)>>>
             <<<Displacing   8/coordinate 2 (-)>>>
             <<<Displacing   8/coordinate 3 (-)>>>
             <<<Displacing   9/coordinate 1 (+)>>>
             <<<Displacing   9/coordinate 2 (+)>>>
             <<<Displacing   9/coordinate 1 (-)>>>
             <<<Displacing   9/coordinate 3 (+)>>>
             <<<Displacing  10/coordinate 1 (+)>>>
             <<<Displacing   9/coordinate 2 (-)>>>
             <<<Displacing  10/coordinate 2 (+)>>>
             <<<Displacing   9/coordinate 3 (-)>>>
             <<<Displacing  10/coordinate 1 (-)>>>
             <<<Displacing  10/coordinate 2 (-)>>>
             <<<Displacing  11/coordinate 2 (+)>>>
             <<<Displacing  10/coordinate 3 (+)>>>
             <<<Displacing  11/coordinate 1 (+)>>>
             <<<Displacing  11/coordinate 2 (-)>>>
             <<<Displacing  11/coordinate 1 (-)>>>
             <<<Displacing  10/coordinate 3 (-)>>>
             <<<Displacing  11/coordinate 3 (+)>>>
             <<<Displacing  12/coordinate 1 (+)>>>
             <<<Displacing  11/coordinate 3 (-)>>>
             <<<Displacing  12/coordinate 1 (-)>>>
             <<<Displacing  12/coordinate 3 (+)>>>
             <<<Displacing  12/coordinate 2 (+)>>>
             <<<Displacing  12/coordinate 3 (-)>>>
             <<<Displacing  12/coordinate 2 (-)>>>
             <<<Displacing  13/coordinate 1 (+)>>>
             <<<Displacing  13/coordinate 1 (-)>>>
             <<<Displacing  13/coordinate 2 (+)>>>
             <<<Displacing  13/coordinate 2 (-)>>>
             <<<Displacing  13/coordinate 3 (+)>>>
             <<<Displacing  13/coordinate 3 (-)>>>
             <<<Displacing  14/coordinate 1 (+)>>>
             <<<Displacing  14/coordinate 1 (-)>>>
             <<<Displacing  14/coordinate 2 (+)>>>
             <<<Displacing  14/coordinate 3 (+)>>>
             <<<Displacing  14/coordinate 2 (-)>>>
             <<<Displacing  14/coordinate 3 (-)>>>
             <<<Displacing  15/coordinate 1 (+)>>>
             <<<Displacing  15/coordinate 1 (-)>>>
             <<<Displacing  15/coordinate 2 (+)>>>
             <<<Displacing  15/coordinate 2 (-)>>>
             <<<Displacing  15/coordinate 3 (+)>>>
             <<<Displacing  16/coordinate 1 (+)>>>
             <<<Displacing  15/coordinate 3 (-)>>>
             <<<Displacing  16/coordinate 1 (-)>>>
             <<<Displacing  16/coordinate 2 (+)>>>
             <<<Displacing  16/coordinate 2 (-)>>>
             <<<Displacing  16/coordinate 3 (+)>>>
             <<<Displacing  16/coordinate 3 (-)>>>
             <<<Displacing  17/coordinate 1 (+)>>>
             <<<Displacing  17/coordinate 1 (-)>>>
             <<<Displacing  17/coordinate 3 (+)>>>
             <<<Displacing  17/coordinate 3 (-)>>>
             <<<Displacing  18/coordinate 1 (+)>>>
             <<<Displacing  18/coordinate 1 (-)>>>
             <<<Displacing  17/coordinate 2 (+)>>>
             <<<Displacing  17/coordinate 2 (-)>>>
             <<<Displacing  18/coordinate 2 (+)>>>
             <<<Displacing  18/coordinate 2 (-)>>>
             <<<Displacing  18/coordinate 3 (+)>>>
             <<<Displacing  19/coordinate 2 (+)>>>
             <<<Displacing  19/coordinate 1 (+)>>>
             <<<Displacing  18/coordinate 3 (-)>>>
             <<<Displacing  19/coordinate 2 (-)>>>
             <<<Displacing  19/coordinate 1 (-)>>>
             <<<Displacing  19/coordinate 3 (+)>>>
             <<<Displacing  19/coordinate 3 (-)>>>
             <<<Displacing  20/coordinate 1 (+)>>>
             <<<Displacing  20/coordinate 2 (+)>>>
             <<<Displacing  20/coordinate 1 (-)>>>
             <<<Displacing  20/coordinate 2 (-)>>>
             <<<Displacing  20/coordinate 3 (+)>>>
             <<<Displacing  20/coordinate 3 (-)>>>
             <<<Displacing  21/coordinate 1 (+)>>>
             <<<Displacing  21/coordinate 1 (-)>>>
             <<<Displacing  21/coordinate 3 (+)>>>
             <<<Displacing  21/coordinate 2 (+)>>>
             <<<Displacing  22/coordinate 1 (+)>>>
             <<<Displacing  21/coordinate 3 (-)>>>
             <<<Displacing  21/coordinate 2 (-)>>>
             <<<Displacing  22/coordinate 1 (-)>>>
             <<<Displacing  22/coordinate 2 (+)>>>
             <<<Displacing  22/coordinate 2 (-)>>>
             <<<Displacing  22/coordinate 3 (+)>>>
             <<<Displacing  23/coordinate 1 (+)>>>
             <<<Displacing  22/coordinate 3 (-)>>>
             <<<Displacing  23/coordinate 1 (-)>>>
             <<<Displacing  23/coordinate 2 (+)>>>
             <<<Displacing  23/coordinate 2 (-)>>>
             <<<Displacing  23/coordinate 3 (+)>>>
             <<<Displacing  23/coordinate 3 (-)>>>
             <<<Displacing  24/coordinate 2 (+)>>>
             <<<Displacing  24/coordinate 2 (-)>>>
             <<<Displacing  24/coordinate 3 (+)>>>
             <<<Displacing  24/coordinate 3 (-)>>>
             <<<Displacing  24/coordinate 1 (+)>>>
             <<<Displacing  24/coordinate 1 (-)>>>
             <<<Displacing  25/coordinate 1 (+)>>>
             <<<Displacing  25/coordinate 1 (-)>>>
             <<<Displacing  25/coordinate 3 (+)>>>
             <<<Displacing  25/coordinate 2 (+)>>>
             <<<Displacing  25/coordinate 3 (-)>>>
             <<<Displacing  25/coordinate 2 (-)>>>
             <<<Displacing  26/coordinate 2 (+)>>>
             <<<Displacing  26/coordinate 2 (-)>>>
             <<<Displacing  26/coordinate 1 (+)>>>
             <<<Displacing  26/coordinate 3 (+)>>>
             <<<Displacing  26/coordinate 1 (-)>>>
             <<<Displacing  26/coordinate 3 (-)>>>
             <<<Displacing  27/coordinate 2 (+)>>>
             <<<Displacing  27/coordinate 1 (+)>>>
             <<<Displacing  27/coordinate 2 (-)>>>
             <<<Displacing  27/coordinate 1 (-)>>>
             <<<Displacing  27/coordinate 3 (+)>>>
             <<<Displacing  27/coordinate 3 (-)>>>
             <<<Displacing  28/coordinate 1 (+)>>>
             <<<Displacing  28/coordinate 2 (+)>>>
             <<<Displacing  28/coordinate 1 (-)>>>
             <<<Displacing  28/coordinate 2 (-)>>>
             <<<Displacing  28/coordinate 3 (+)>>>
             <<<Displacing  28/coordinate 3 (-)>>>
             <<<Displacing  29/coordinate 1 (+)>>>
             <<<Displacing  29/coordinate 1 (-)>>>
             <<<Displacing  29/coordinate 2 (+)>>>
             <<<Displacing  29/coordinate 2 (-)>>>
             <<<Displacing  29/coordinate 3 (+)>>>
             <<<Displacing  30/coordinate 1 (+)>>>
             <<<Displacing  30/coordinate 1 (-)>>>
             <<<Displacing  29/coordinate 3 (-)>>>
             <<<Displacing  30/coordinate 2 (+)>>>
             <<<Displacing  30/coordinate 2 (-)>>>
             <<<Displacing  30/coordinate 3 (+)>>>
             <<<Displacing  31/coordinate 1 (+)>>>
             <<<Displacing  31/coordinate 1 (-)>>>
             <<<Displacing  30/coordinate 3 (-)>>>
             <<<Displacing  31/coordinate 2 (+)>>>
             <<<Displacing  31/coordinate 2 (-)>>>
             <<<Displacing  32/coordinate 1 (+)>>>
             <<<Displacing  31/coordinate 3 (+)>>>
             <<<Displacing  32/coordinate 1 (-)>>>
             <<<Displacing  31/coordinate 3 (-)>>>
             <<<Displacing  32/coordinate 3 (+)>>>
             <<<Displacing  32/coordinate 2 (+)>>>
             <<<Displacing  32/coordinate 3 (-)>>>
             <<<Displacing  32/coordinate 2 (-)>>>
             <<<Displacing  33/coordinate 1 (+)>>>
             <<<Displacing  33/coordinate 1 (-)>>>
             <<<Displacing  33/coordinate 2 (+)>>>
             <<<Displacing  33/coordinate 2 (-)>>>
             <<<Displacing  33/coordinate 3 (+)>>>
             <<<Displacing  33/coordinate 3 (-)>>>
             <<<Displacing  34/coordinate 1 (+)>>>
             <<<Displacing  34/coordinate 1 (-)>>>
             <<<Displacing  34/coordinate 2 (+)>>>
             <<<Displacing  34/coordinate 3 (+)>>>
             <<<Displacing  34/coordinate 2 (-)>>>
             <<<Displacing  34/coordinate 3 (-)>>>
             <<<Displacing  35/coordinate 2 (+)>>>
             <<<Displacing  35/coordinate 1 (+)>>>
             <<<Displacing  35/coordinate 2 (-)>>>
             <<<Displacing  35/coordinate 1 (-)>>>
             <<<Displacing  35/coordinate 3 (+)>>>
             <<<Displacing  35/coordinate 3 (-)>>>
             <<<Displacing  36/coordinate 1 (+)>>>
             <<<Displacing  36/coordinate 1 (-)>>>
             <<<Displacing  36/coordinate 2 (+)>>>
             <<<Displacing  36/coordinate 3 (+)>>>
             <<<Displacing  36/coordinate 2 (-)>>>
             <<<Displacing  36/coordinate 3 (-)>>>
             <<<Displacing  37/coordinate 1 (+)>>>
             <<<Displacing  37/coordinate 2 (+)>>>
             <<<Displacing  37/coordinate 1 (-)>>>
             <<<Displacing  37/coordinate 2 (-)>>>
             <<<Displacing  37/coordinate 3 (+)>>>
             <<<Displacing  37/coordinate 3 (-)>>>
             <<<Displacing  38/coordinate 1 (+)>>>
             <<<Displacing  38/coordinate 1 (-)>>>
             <<<Displacing  38/coordinate 2 (+)>>>
             <<<Displacing  38/coordinate 2 (-)>>>
             <<<Displacing  38/coordinate 3 (+)>>>
             <<<Displacing  39/coordinate 1 (+)>>>
             <<<Displacing  39/coordinate 2 (+)>>>
             <<<Displacing  38/coordinate 3 (-)>>>
             <<<Displacing  39/coordinate 1 (-)>>>
             <<<Displacing  39/coordinate 2 (-)>>>
             <<<Displacing  39/coordinate 3 (+)>>>
             <<<Displacing  40/coordinate 1 (+)>>>
             <<<Displacing  39/coordinate 3 (-)>>>
             <<<Displacing  40/coordinate 1 (-)>>>
             <<<Displacing  40/coordinate 2 (+)>>>
             <<<Displacing  40/coordinate 2 (-)>>>
             <<<Displacing  40/coordinate 3 (+)>>>
             <<<Displacing  40/coordinate 3 (-)>>>
             <<<Displacing  41/coordinate 1 (+)>>>
             <<<Displacing  41/coordinate 1 (-)>>>
             <<<Displacing  41/coordinate 2 (+)>>>
             <<<Displacing  41/coordinate 2 (-)>>>
             <<<Displacing  41/coordinate 3 (+)>>>
             <<<Displacing  42/coordinate 1 (+)>>>
             <<<Displacing  41/coordinate 3 (-)>>>
             <<<Displacing  42/coordinate 1 (-)>>>
             <<<Displacing  42/coordinate 2 (+)>>>
             <<<Displacing  42/coordinate 3 (+)>>>
             <<<Displacing  42/coordinate 2 (-)>>>
             <<<Displacing  42/coordinate 3 (-)>>>
             <<<Displacing  43/coordinate 1 (+)>>>
             <<<Displacing  43/coordinate 1 (-)>>>
             <<<Displacing  43/coordinate 2 (+)>>>
             <<<Displacing  43/coordinate 2 (-)>>>
             <<<Displacing  43/coordinate 3 (+)>>>
             <<<Displacing  43/coordinate 3 (-)>>>
             <<<Displacing  44/coordinate 2 (+)>>>
             <<<Displacing  44/coordinate 2 (-)>>>
             <<<Displacing  44/coordinate 1 (+)>>>
             <<<Displacing  44/coordinate 3 (+)>>>
             <<<Displacing  44/coordinate 1 (-)>>>
             <<<Displacing  44/coordinate 3 (-)>>>
             <<<Displacing  45/coordinate 1 (+)>>>
             <<<Displacing  45/coordinate 1 (-)>>>
             <<<Displacing  45/coordinate 2 (+)>>>
             <<<Displacing  45/coordinate 2 (-)>>>
             <<<Displacing  45/coordinate 3 (+)>>>
             <<<Displacing  45/coordinate 3 (-)>>>
             <<<Displacing  46/coordinate 1 (+)>>>
             <<<Displacing  46/coordinate 1 (-)>>>
             <<<Displacing  46/coordinate 2 (+)>>>
             <<<Displacing  46/coordinate 2 (-)>>>
             <<<Displacing  46/coordinate 3 (+)>>>
             <<<Displacing  46/coordinate 3 (-)>>>

-----------------------
VIBRATIONAL FREQUENCIES
-----------------------

Scaling factor for frequencies =  1.000000000 (already applied!)

   0:         0.00 cm**-1
   1:         0.00 cm**-1
   2:         0.00 cm**-1
   3:         0.00 cm**-1
   4:         0.00 cm**-1
   5:         0.00 cm**-1
   6:        18.55 cm**-1
   7:        37.53 cm**-1
   8:        42.57 cm**-1
   9:        56.50 cm**-1
  10:        64.87 cm**-1
  11:        69.49 cm**-1
  12:        72.64 cm**-1
  13:        84.43 cm**-1
  14:        96.31 cm**-1
  15:       103.86 cm**-1
  16:       128.99 cm**-1
  17:       132.61 cm**-1
  18:       138.96 cm**-1
  19:       151.59 cm**-1
  20:       160.65 cm**-1
  21:       202.90 cm**-1
  22:       213.40 cm**-1
  23:       238.31 cm**-1
  24:       259.01 cm**-1
  25:       267.14 cm**-1
  26:       271.15 cm**-1
  27:       304.14 cm**-1
  28:       345.53 cm**-1
  29:       371.22 cm**-1
  30:       380.45 cm**-1
  31:       385.40 cm**-1
  32:       390.24 cm**-1
  33:       425.59 cm**-1
  34:       432.90 cm**-1
  35:       520.59 cm**-1
  36:       547.26 cm**-1
  37:       589.59 cm**-1
  38:       611.69 cm**-1
  39:       677.83 cm**-1
  40:       745.53 cm**-1
  41:       759.41 cm**-1
  42:       768.78 cm**-1
  43:       769.29 cm**-1
  44:       813.16 cm**-1
  45:       822.84 cm**-1
  46:       843.83 cm**-1
  47:       886.52 cm**-1
  48:       912.99 cm**-1
  49:       920.88 cm**-1
  50:       923.83 cm**-1
  51:       931.61 cm**-1
  52:       934.77 cm**-1
  53:       942.43 cm**-1
  54:       943.77 cm**-1
  55:       951.35 cm**-1
  56:       972.02 cm**-1
  57:       984.15 cm**-1
  58:      1012.93 cm**-1
  59:      1040.05 cm**-1
  60:      1057.90 cm**-1
  61:      1068.04 cm**-1
  62:      1073.52 cm**-1
  63:      1085.59 cm**-1
  64:      1103.49 cm**-1
  65:      1107.76 cm**-1
  66:      1110.83 cm**-1
  67:      1113.81 cm**-1
  68:      1120.27 cm**-1
  69:      1134.17 cm**-1
  70:      1135.34 cm**-1
  71:      1179.03 cm**-1
  72:      1188.59 cm**-1
  73:      1198.40 cm**-1
  74:      1204.22 cm**-1
  75:      1204.34 cm**-1
  76:      1226.50 cm**-1
  77:      1252.79 cm**-1
  78:      1260.62 cm**-1
  79:      1264.28 cm**-1
  80:      1269.35 cm**-1
  81:      1271.59 cm**-1
  82:      1275.17 cm**-1
  83:      1279.71 cm**-1
  84:      1281.85 cm**-1
  85:      1287.57 cm**-1
  86:      1307.21 cm**-1
  87:      1310.07 cm**-1
  88:      1333.91 cm**-1
  89:      1340.57 cm**-1
  90:      1371.00 cm**-1
  91:      1375.54 cm**-1
  92:      1393.24 cm**-1
  93:      1424.69 cm**-1
  94:      1426.51 cm**-1
  95:      1428.88 cm**-1
  96:      1462.48 cm**-1
  97:      1493.72 cm**-1
  98:      1497.93 cm**-1
  99:      1499.82 cm**-1
 100:      1502.72 cm**-1
 101:      1504.42 cm**-1
 102:      1505.72 cm**-1
 103:      1508.44 cm**-1
 104:      1512.47 cm**-1
 105:      1514.16 cm**-1
 106:      1517.00 cm**-1
 107:      1567.12 cm**-1
 108:      1569.83 cm**-1
 109:      1576.53 cm**-1
 110:      2893.43 cm**-1
 111:      2925.18 cm**-1
 112:      2930.71 cm**-1
 113:      2938.93 cm**-1
 114:      2939.46 cm**-1
 115:      2946.12 cm**-1
 116:      2949.61 cm**-1
 117:      2958.95 cm**-1
 118:      2960.93 cm**-1
 119:      2963.35 cm**-1
 120:      2966.79 cm**-1
 121:      2970.04 cm**-1
 122:      2972.34 cm**-1
 123:      2981.49 cm**-1
 124:      2981.78 cm**-1
 125:      2988.85 cm**-1
 126:      2989.68 cm**-1
 127:      2999.86 cm**-1
 128:      3001.40 cm**-1
 129:      3047.43 cm**-1
 130:      3052.79 cm**-1
 131:      3058.58 cm**-1
 132:      3068.35 cm**-1
 133:      3073.26 cm**-1
 134:      3370.88 cm**-1
 135:      3381.38 cm**-1
 136:      3406.18 cm**-1
 137:      3514.96 cm**-1


------------
NORMAL MODES
------------

These modes are the cartesian displacements weighted by the diagonal matrix
M(i,i)=1/sqrt(m[i]) where m[i] is the mass of the displaced atom
Thus, these vectors are normalized but *not* orthogonal

                  0          1          2          3          4          5    
      0       0.000000   0.000000   0.000000   0.000000   0.000000   0.000000
      1       0.000000   0.000000   0.000000   0.000000   0.000000   0.000000
      2       0.000000   0.000000   0.000000   0.000000   0.000000   0.000000
      3       0.000000   0.000000   0.000000   0.000000   0.000000   0.000000
      4       0.000000   0.000000   0.000000   0.000000   0.000000   0.000000
      5       0.000000   0.000000   0.000000   0.000000   0.000000   0.000000
      6       0.000000   0.000000   0.000000   0.000000   0.000000   0.000000
      7       0.000000   0.000000   0.000000   0.000000   0.000000   0.000000
      8       0.000000   0.000000   0.000000   0.000000   0.000000   0.000000
      9       0.000000   0.000000   0.000000   0.000000   0.000000   0.000000
     10       0.000000   0.000000   0.000000   0.000000   0.000000   0.000000
     11       0.000000   0.000000   0.000000   0.000000   0.000000   0.000000
     12       0.000000   0.000000   0.000000   0.000000   0.000000   0.000000
     13       0.000000   0.000000   0.000000   0.000000   0.000000   0.000000
     14       0.000000   0.000000   0.000000   0.000000   0.000000   0.000000
     15       0.000000   0.000000   0.000000   0.000000   0.000000   0.000000
     16       0.000000   0.000000   0.000000   0.000000   0.000000   0.000000
     17       0.000000   0.000000   0.000000   0.000000   0.000000   0.000000
     18       0.000000   0.000000   0.000000   0.000000   0.000000   0.000000
     19       0.000000   0.000000   0.000000   0.000000   0.000000   0.000000
     20       0.000000   0.000000   0.000000   0.000000   0.000000   0.000000
     21       0.000000   0.000000   0.000000   0.000000   0.000000   0.000000
     22       0.000000   0.000000   0.000000   0.000000   0.000000   0.000000
     23       0.000000   0.000000   0.000000   0.000000   0.000000   0.000000
     24       0.000000   0.000000   0.000000   0.000000   0.000000   0.000000
     25       0.000000   0.000000   0.000000   0.000000   0.000000   0.000000
     26       0.000000   0.000000   0.000000   0.000000   0.000000   0.000000
     27       0.000000   0.000000   0.000000   0.000000   0.000000   0.000000
     28       0.000000   0.000000   0.000000   0.000000   0.000000   0.000000
     29       0.000000   0.000000   0.000000   0.000000   0.000000   0.000000
     30       0.000000   0.000000   0.000000   0.000000   0.000000   0.000000
     31       0.000000   0.000000   0.000000   0.000000   0.000000   0.000000
     32       0.000000   0.000000   0.000000   0.000000   0.000000   0.000000
     33       0.000000   0.000000   0.000000   0.000000   0.000000   0.000000
     34       0.000000   0.000000   0.000000   0.000000   0.000000   0.000000
     35       0.000000   0.000000   0.000000   0.000000   0.000000   0.000000
     36       0.000000   0.000000   0.000000   0.000000   0.000000   0.000000
     37       0.000000   0.000000   0.000000   0.000000   0.000000   0.000000
     38       0.000000   0.000000   0.000000   0.000000   0.000000   0.000000
     39       0.000000   0.000000   0.000000   0.000000   0.000000   0.000000
     40       0.000000   0.000000   0.000000   0.000000   0.000000   0.000000
     41       0.000000   0.000000   0.000000   0.000000   0.000000   0.000000
     42       0.000000   0.000000   0.000000   0.000000   0.000000   0.000000
     43       0.000000   0.000000   0.000000   0.000000   0.000000   0.000000
     44       0.000000   0.000000   0.000000   0.000000   0.000000   0.000000
     45       0.000000   0.000000   0.000000   0.000000   0.000000   0.000000
     46       0.000000   0.000000   0.000000   0.000000   0.000000   0.000000
     47       0.000000   0.000000   0.000000   0.000000   0.000000   0.000000
     48       0.000000   0.000000   0.000000   0.000000   0.000000   0.000000
     49       0.000000   0.000000   0.000000   0.000000   0.000000   0.000000
     50       0.000000   0.000000   0.000000   0.000000   0.000000   0.000000
     51       0.000000   0.000000   0.000000   0.000000   0.000000   0.000000
     52       0.000000   0.000000   0.000000   0.000000   0.000000   0.000000
     53       0.000000   0.000000   0.000000   0.000000   0.000000   0.000000
     54       0.000000   0.000000   0.000000   0.000000   0.000000   0.000000
     55       0.000000   0.000000   0.000000   0.000000   0.000000   0.000000
     56       0.000000   0.000000   0.000000   0.000000   0.000000   0.000000
     57       0.000000   0.000000   0.000000   0.000000   0.000000   0.000000
     58       0.000000   0.000000   0.000000   0.000000   0.000000   0.000000
     59       0.000000   0.000000   0.000000   0.000000   0.000000   0.000000
     60       0.000000   0.000000   0.000000   0.000000   0.000000   0.000000
     61       0.000000   0.000000   0.000000   0.000000   0.000000   0.000000
     62       0.000000   0.000000   0.000000   0.000000   0.000000   0.000000
     63       0.000000   0.000000   0.000000   0.000000   0.000000   0.000000
     64       0.000000   0.000000   0.000000   0.000000   0.000000   0.000000
     65       0.000000   0.000000   0.000000   0.000000   0.000000   0.000000
     66       0.000000   0.000000   0.000000   0.000000   0.000000   0.000000
     67       0.000000   0.000000   0.000000   0.000000   0.000000   0.000000
     68       0.000000   0.000000   0.000000   0.000000   0.000000   0.000000
     69       0.000000   0.000000   0.000000   0.000000   0.000000   0.000000
     70       0.000000   0.000000   0.000000   0.000000   0.000000   0.000000
     71       0.000000   0.000000   0.000000   0.000000   0.000000   0.000000
     72       0.000000   0.000000   0.000000   0.000000   0.000000   0.000000
     73       0.000000   0.000000   0.000000   0.000000   0.000000   0.000000
     74       0.000000   0.000000   0.000000   0.000000   0.000000   0.000000
     75       0.000000   0.000000   0.000000   0.000000   0.000000   0.000000
     76       0.000000   0.000000   0.000000   0.000000   0.000000   0.000000
     77       0.000000   0.000000   0.000000   0.000000   0.000000   0.000000
     78       0.000000   0.000000   0.000000   0.000000   0.000000   0.000000
     79       0.000000   0.000000   0.000000   0.000000   0.000000   0.000000
     80       0.000000   0.000000   0.000000   0.000000   0.000000   0.000000
     81       0.000000   0.000000   0.000000   0.000000   0.000000   0.000000
     82       0.000000   0.000000   0.000000   0.000000   0.000000   0.000000
     83       0.000000   0.000000   0.000000   0.000000   0.000000   0.000000
     84       0.000000   0.000000   0.000000   0.000000   0.000000   0.000000
     85       0.000000   0.000000   0.000000   0.000000   0.000000   0.000000
     86       0.000000   0.000000   0.000000   0.000000   0.000000   0.000000
     87       0.000000   0.000000   0.000000   0.000000   0.000000   0.000000
     88       0.000000   0.000000   0.000000   0.000000   0.000000   0.000000
     89       0.000000   0.000000   0.000000   0.000000   0.000000   0.000000
     90       0.000000   0.000000   0.000000   0.000000   0.000000   0.000000
     91       0.000000   0.000000   0.000000   0.000000   0.000000   0.000000
     92       0.000000   0.000000   0.000000   0.000000   0.000000   0.000000
     93       0.000000   0.000000   0.000000   0.000000   0.000000   0.000000
     94       0.000000   0.000000   0.000000   0.000000   0.000000   0.000000
     95       0.000000   0.000000   0.000000   0.000000   0.000000   0.000000
     96       0.000000   0.000000   0.000000   0.000000   0.000000   0.000000
     97       0.000000   0.000000   0.000000   0.000000   0.000000   0.000000
     98       0.000000   0.000000   0.000000   0.000000   0.000000   0.000000
     99       0.000000   0.000000   0.000000   0.000000   0.000000   0.000000
    100       0.000000   0.000000   0.000000   0.000000   0.000000   0.000000
    101       0.000000   0.000000   0.000000   0.000000   0.000000   0.000000
    102       0.000000   0.000000   0.000000   0.000000   0.000000   0.000000
    103       0.000000   0.000000   0.000000   0.000000   0.000000   0.000000
    104       0.000000   0.000000   0.000000   0.000000   0.000000   0.000000
    105       0.000000   0.000000   0.000000   0.000000   0.000000   0.000000
    106       0.000000   0.000000   0.000000   0.000000   0.000000   0.000000
    107       0.000000   0.000000   0.000000   0.000000   0.000000   0.000000
    108       0.000000   0.000000   0.000000   0.000000   0.000000   0.000000
    109       0.000000   0.000000   0.000000   0.000000   0.000000   0.000000
    110       0.000000   0.000000   0.000000   0.000000   0.000000   0.000000
    111       0.000000   0.000000   0.000000   0.000000   0.000000   0.000000
    112       0.000000   0.000000   0.000000   0.000000   0.000000   0.000000
    113       0.000000   0.000000   0.000000   0.000000   0.000000   0.000000
    114       0.000000   0.000000   0.000000   0.000000   0.000000   0.000000
    115       0.000000   0.000000   0.000000   0.000000   0.000000   0.000000
    116       0.000000   0.000000   0.000000   0.000000   0.000000   0.000000
    117       0.000000   0.000000   0.000000   0.000000   0.000000   0.000000
    118       0.000000   0.000000   0.000000   0.000000   0.000000   0.000000
    119       0.000000   0.000000   0.000000   0.000000   0.000000   0.000000
    120       0.000000   0.000000   0.000000   0.000000   0.000000   0.000000
    121       0.000000   0.000000   0.000000   0.000000   0.000000   0.000000
    122       0.000000   0.000000   0.000000   0.000000   0.000000   0.000000
    123       0.000000   0.000000   0.000000   0.000000   0.000000   0.000000
    124       0.000000   0.000000   0.000000   0.000000   0.000000   0.000000
    125       0.000000   0.000000   0.000000   0.000000   0.000000   0.000000
    126       0.000000   0.000000   0.000000   0.000000   0.000000   0.000000
    127       0.000000   0.000000   0.000000   0.000000   0.000000   0.000000
    128       0.000000   0.000000   0.000000   0.000000   0.000000   0.000000
    129       0.000000   0.000000   0.000000   0.000000   0.000000   0.000000
    130       0.000000   0.000000   0.000000   0.000000   0.000000   0.000000
    131       0.000000   0.000000   0.000000   0.000000   0.000000   0.000000
    132       0.000000   0.000000   0.000000   0.000000   0.000000   0.000000
    133       0.000000   0.000000   0.000000   0.000000   0.000000   0.000000
    134       0.000000   0.000000   0.000000   0.000000   0.000000   0.000000
    135       0.000000   0.000000   0.000000   0.000000   0.000000   0.000000
    136       0.000000   0.000000   0.000000   0.000000   0.000000   0.000000
    137       0.000000   0.000000   0.000000   0.000000   0.000000   0.000000
                  6          7          8          9         10         11    
      0       0.058375  -0.048425  -0.001123  -0.050655   0.108777   0.017798
      1       0.012716   0.030403   0.092913   0.045685  -0.048137   0.022013
      2       0.048832   0.080259   0.045694  -0.059197   0.077116   0.006289
      3       0.053951  -0.050023  -0.001290  -0.025311   0.062286  -0.007931
      4       0.015772  -0.016370   0.053358   0.025107  -0.000560   0.038492
      5       0.042793   0.053861   0.025472  -0.023809   0.017861  -0.031496
      6       0.044852  -0.018940   0.037870   0.003277   0.002666   0.003211
      7       0.023285  -0.023147   0.037533   0.004960   0.039894   0.030492
      8       0.027760   0.005405   0.004629   0.011108  -0.042692  -0.019484
      9       0.039604   0.013325   0.076378   0.002130  -0.007031   0.040576
     10       0.027089   0.018771   0.062865   0.007197   0.031064   0.006116
     11       0.020143  -0.015354   0.005212   0.008196  -0.040675   0.029972
     12       0.044688   0.015312   0.075788  -0.023989   0.040341   0.066540
     13       0.023483   0.065002   0.102192   0.028105  -0.017185  -0.010558
     14       0.027749   0.012149   0.024492  -0.027775   0.019767   0.067850
     15       0.053695  -0.015687   0.036920  -0.050562   0.098629   0.056072
     16       0.016682   0.071357   0.117608   0.047380  -0.056562  -0.003324
     17       0.041829   0.059841   0.045294  -0.060954   0.078995   0.057041
     18       0.057487  -0.075822  -0.031650  -0.027560   0.073029  -0.035546
     19       0.012703  -0.048391   0.033284   0.023352   0.004972   0.057068
     20       0.048216   0.069413   0.025876  -0.023658   0.019236  -0.068334
     21       0.027187   0.036433   0.105509   0.019340  -0.049109   0.047509
     22       0.034970   0.014768   0.050384  -0.006396   0.058152   0.000859
     23       0.007345  -0.053935  -0.005565   0.035724  -0.081330   0.039516
     24       0.056923  -0.014232   0.037108  -0.070451   0.135532   0.076836
     25       0.014653   0.108035   0.148105   0.063739  -0.093954  -0.017098
     26       0.046615   0.080882   0.061052  -0.088621   0.126839   0.087553
     27       0.050546  -0.013651   0.038609   0.016974  -0.023806  -0.007061
     28       0.015254  -0.011060  -0.008284  -0.022731   0.131936  -0.037752
     29      -0.004748  -0.024814  -0.017569   0.037600  -0.064919  -0.064940
     30      -0.092992   0.123426  -0.025238  -0.022162   0.029736  -0.054573
     31       0.079944  -0.111057  -0.027555  -0.086684  -0.080575   0.026114
     32      -0.037115  -0.109255  -0.061129   0.104473   0.023910   0.000457
     33       0.044098  -0.023589   0.041172   0.014495  -0.010278   0.001040
     34      -0.042822  -0.022595   0.018062  -0.116229   0.033188  -0.059509
     35      -0.041660  -0.054102  -0.000986  -0.007986  -0.063107  -0.052842
     36       0.058947  -0.056764   0.052392  -0.001450   0.032810   0.004640
     37      -0.066567  -0.049561   0.042377  -0.184285  -0.015344  -0.072271
     38      -0.104278  -0.143505   0.073142  -0.207744  -0.186287  -0.088109
     39       0.013647  -0.014437   0.038214   0.011833  -0.006088   0.020483
     40      -0.094564  -0.092918   0.078336  -0.281719  -0.076559  -0.091970
     41      -0.005738   0.000390  -0.046882   0.116958   0.020760  -0.025964
     42       0.087340  -0.012516   0.025215   0.055129  -0.018138   0.015311
     43       0.042224   0.042747  -0.025158   0.042683   0.199919  -0.071432
     44      -0.016455  -0.057633  -0.009243   0.002587  -0.106833  -0.041173
     45      -0.086103   0.082938  -0.109001  -0.034581  -0.000716  -0.014678
     46       0.146340  -0.093523  -0.169213  -0.074154  -0.093871   0.039405
     47      -0.081434  -0.124792   0.029461   0.095664   0.030852  -0.005110
     48       0.040362  -0.041329   0.057841   0.054334  -0.074912   0.019830
     49       0.025311  -0.138908  -0.034088  -0.011621   0.023967   0.097092
     50       0.014618  -0.114817  -0.062316   0.015816  -0.116177   0.031550
     51      -0.142032   0.028156  -0.081783  -0.008474   0.009240  -0.018773
     52       0.128911  -0.070778  -0.182625  -0.017825  -0.045183  -0.017444
     53      -0.019014  -0.050972  -0.008378   0.082980   0.035038  -0.018531
     54      -0.110808  -0.038340  -0.146558   0.034725   0.006222   0.043747
     55       0.234878  -0.056425  -0.335454   0.061159  -0.012625   0.017112
     56      -0.081826  -0.070855   0.078393   0.038968   0.013315  -0.030387
     57      -0.254205   0.018545   0.031850  -0.016944   0.025122  -0.090722
     58       0.164925  -0.066234  -0.233987   0.007402  -0.035169  -0.004479
     59       0.082845  -0.036634  -0.163981   0.174397   0.077583   0.009530
     60       0.037971  -0.024950   0.038746   0.020912  -0.024146  -0.008923
     61       0.022697  -0.074626  -0.011222  -0.017436   0.071070   0.035299
     62       0.013317  -0.030350  -0.017802   0.032605  -0.078125  -0.039999
     63       0.022121  -0.035324   0.017739   0.020177  -0.008202  -0.042800
     64       0.024859  -0.138581  -0.041111  -0.023697   0.044472   0.076783
     65       0.009790   0.015763   0.001131   0.037595  -0.055401  -0.075140
     66       0.037437  -0.026887   0.061232   0.043113  -0.065499   0.015837
     67       0.024334  -0.107371  -0.026739  -0.018663   0.057397   0.057758
     68       0.018260  -0.125874  -0.064847   0.028581  -0.120074   0.026786
     69       0.001474   0.096257  -0.225715  -0.068731  -0.047068   0.042388
     70       0.119507  -0.099822  -0.113495  -0.079097  -0.088873   0.032438
     71      -0.152395  -0.141974   0.187837   0.072961   0.038577  -0.017667
     72       0.055848  -0.003909   0.035132   0.033025  -0.061289  -0.027482
     73      -0.009803   0.089902  -0.058897   0.086052   0.112203  -0.013999
     74      -0.043433  -0.038831  -0.018705   0.036503   0.016301  -0.008241
     75       0.092650  -0.022031   0.023191   0.062199  -0.029108  -0.127709
     76       0.048475   0.140660  -0.127612   0.266455   0.268948  -0.054763
     77      -0.078104  -0.078003   0.027575  -0.085660  -0.088816   0.003003
     78       0.031499   0.039125   0.038461   0.030855  -0.165736   0.035133
     79       0.012725   0.105776  -0.083574   0.150508   0.173668  -0.032328
     80       0.021556   0.029043  -0.098626   0.247576   0.180576  -0.045528
     81      -0.099823   0.065046  -0.113104  -0.027600   0.000955  -0.012246
     82      -0.058791  -0.067553   0.041642  -0.085176  -0.046697  -0.129281
     83      -0.005193   0.044445   0.026971   0.000742   0.012982  -0.057510
     84       0.000718   0.070476  -0.209160  -0.045239  -0.027149   0.047376
     85      -0.097976  -0.077488   0.098378  -0.126237  -0.066848  -0.141764
     86      -0.120355   0.011819   0.202757  -0.142845  -0.060795  -0.089898
     87      -0.123965   0.146029  -0.070716  -0.053793   0.015128  -0.072018
     88      -0.171567  -0.097023   0.205853  -0.204190  -0.104499  -0.164677
     89       0.066606   0.078802  -0.076621   0.076361   0.054645  -0.043439
     90       0.052757  -0.015841   0.038284   0.022925  -0.022612  -0.012848
     91      -0.086266   0.109095  -0.006453  -0.040684  -0.112593   0.117063
     92      -0.084261  -0.062548   0.011982  -0.046095   0.025834   0.088114
     93       0.082530  -0.042533   0.023695   0.041559   0.099977  -0.089599
     94      -0.107292   0.102484   0.013113  -0.100035  -0.170851   0.123393
     95      -0.140664  -0.090806   0.067794  -0.220983  -0.117568   0.087730
     96       0.013987  -0.012288   0.061244  -0.022656  -0.063731   0.109442
     97      -0.137027   0.090633   0.041812  -0.189747  -0.253796   0.127869
     98      -0.054461  -0.048544  -0.018852   0.053978   0.121143   0.102918
     99      -0.156095  -0.009007  -0.075445   0.010402   0.012673  -0.006570
    100      -0.036406  -0.011112  -0.037888   0.064736   0.054753  -0.163921
    101       0.062332   0.142039  -0.037815   0.002728   0.029938  -0.074190
    102      -0.160616  -0.087640  -0.069861   0.036026   0.030118   0.001844
    103       0.042905   0.020774  -0.148059   0.187764   0.153252  -0.187977
    104       0.007972   0.105804   0.037509  -0.075640  -0.033524  -0.056009
    105      -0.219489  -0.014994  -0.032966   0.031386   0.009289  -0.007319
    106      -0.008308  -0.000186  -0.076636   0.107811   0.089351  -0.171560
    107       0.143652   0.178365  -0.158741   0.152400   0.145985  -0.101443
    108      -0.122506   0.028248  -0.100006  -0.012505   0.006374  -0.010614
    109      -0.143191  -0.008672   0.065131   0.004875  -0.015607  -0.146667
    110       0.093487   0.238016  -0.047095  -0.086692  -0.022342  -0.075774
    111      -0.158485  -0.022954  -0.073810   0.018611   0.017220  -0.003704
    112      -0.138602   0.019555   0.036444   0.078921   0.039613  -0.184731
    113       0.132125   0.299780  -0.083131  -0.095732  -0.016379  -0.094739
    114      -0.060800   0.035571  -0.147565  -0.022316   0.016301  -0.009099
    115      -0.164089  -0.014418   0.090656  -0.022854  -0.041665  -0.133462
    116       0.038396   0.219280   0.031007  -0.195120  -0.116652  -0.026115
    117      -0.124865   0.099208  -0.096361  -0.052233  -0.020346  -0.021447
    118      -0.202015  -0.028147   0.140347  -0.083325  -0.096791  -0.102658
    119       0.133234   0.267614  -0.097747  -0.035540   0.026640  -0.106932
    120       0.061690   0.001864   0.031008   0.048196  -0.088340  -0.059086
    121      -0.072075   0.154291  -0.037058   0.095610  -0.085212   0.226226
    122      -0.089273  -0.068137   0.011052  -0.034583   0.101374   0.165765
    123       0.059591  -0.006380   0.033273   0.038481  -0.058085  -0.047431
    124      -0.097225   0.175363  -0.020995   0.049373  -0.200405   0.297602
    125      -0.105853  -0.079105   0.024023  -0.079488   0.123835   0.226680
    126       0.050654   0.032527   0.032040   0.059469  -0.178880   0.003093
    127      -0.062494   0.157036  -0.047125   0.135200  -0.048691   0.228088
    128      -0.060672  -0.055377  -0.020518   0.091581   0.204211   0.180239
    129       0.080121  -0.008016   0.022820   0.064791  -0.077313  -0.166349
    130      -0.047198   0.160225  -0.063209   0.200155   0.013229   0.230375
    131      -0.104546  -0.074160   0.029016  -0.108127   0.031653   0.146146
    132       0.041129   0.040306   0.106274  -0.023328   0.032073   0.095427
    133       0.027193   0.096435   0.121563   0.030206  -0.024412  -0.029355
    134       0.021620  -0.003844   0.024438  -0.029525   0.021838   0.105920
    135       0.065148  -0.072238  -0.030293  -0.070575   0.153535   0.008551
    136       0.007495   0.035086   0.104039   0.060549  -0.078899   0.028224
    137       0.058759   0.116227   0.061485  -0.085925   0.123230  -0.002555
                 12         13         14         15         16         17    
      0      -0.107833   0.021670  -0.037542  -0.019174   0.003252   0.013845
      1       0.071883  -0.004860  -0.001081   0.015651   0.000128  -0.005903
      2      -0.140985   0.064220   0.017746   0.010975   0.011208   0.015511
      3      -0.118356  -0.009230  -0.034984  -0.018933  -0.006547  -0.005225
      4       0.070819  -0.011993  -0.047833  -0.010961  -0.002914  -0.001601
      5      -0.161818   0.005415  -0.002631  -0.002737  -0.008302  -0.016430
      6       0.004610  -0.016052   0.005149   0.006351  -0.006110  -0.009246
      7      -0.019155   0.002375  -0.063442  -0.021211  -0.001111   0.003387
      8      -0.004768  -0.056841  -0.028378  -0.016406  -0.021759  -0.035386
      9       0.131455   0.011129   0.042194   0.029265   0.005207   0.002877
     10      -0.101558   0.021901  -0.032146  -0.004425   0.004090   0.008217
     11       0.164509  -0.059585  -0.035581  -0.018015  -0.019396  -0.032932
     12       0.144259   0.041148   0.041626   0.030508   0.014423   0.021936
     13      -0.101632   0.029757   0.014839   0.022033   0.007347   0.004020
     14       0.186214  -0.001886  -0.014243  -0.003312  -0.001847  -0.001786
     15       0.026929   0.047309   0.001711   0.006282   0.014637   0.030725
     16      -0.017289   0.015712   0.029424   0.031328   0.004355  -0.005319
     17       0.036691   0.060683   0.012244   0.011524   0.014667   0.026157
     18      -0.222473  -0.025875  -0.066066  -0.039259  -0.013265  -0.013691
     19       0.134742  -0.026937  -0.072455  -0.024440  -0.005646  -0.003015
     20      -0.295167   0.010051   0.001879  -0.002396  -0.009628  -0.020356
     21       0.213122   0.011826   0.071265   0.043164   0.010650   0.002672
     22      -0.158766   0.028738  -0.041573  -0.009442   0.003127   0.011200
     23       0.267825  -0.100338  -0.060227  -0.029911  -0.027510  -0.048938
     24       0.037948   0.071745   0.000801   0.007092   0.023182   0.048797
     25      -0.018107   0.019692   0.064567   0.050934   0.004782  -0.011993
     26       0.056047   0.106815   0.028275   0.022778   0.030332   0.055455
     27      -0.001045  -0.022091   0.002994   0.005787  -0.009091  -0.023644
     28       0.006842  -0.200885  -0.008319   0.016021  -0.096196  -0.079456
[...]
  14:        96.31    0.000000  (  0.000000   0.000000   0.000000)
  15:       103.86    0.000000  (  0.000000   0.000000   0.000000)
  16:       128.99    0.000000  (  0.000000   0.000000   0.000000)
  17:       132.61    0.000000  (  0.000000   0.000000   0.000000)
  18:       138.96    0.000000  (  0.000000   0.000000   0.000000)
  19:       151.59    0.000000  (  0.000000   0.000000   0.000000)
  20:       160.65    0.000000  (  0.000000   0.000000   0.000000)
  21:       202.90    0.000000  (  0.000000   0.000000   0.000000)
  22:       213.40    0.000000  (  0.000000   0.000000   0.000000)
  23:       238.31    0.000000  (  0.000000   0.000000   0.000000)
  24:       259.01    0.000000  (  0.000000   0.000000   0.000000)
  25:       267.14    0.000000  (  0.000000   0.000000   0.000000)
  26:       271.15    0.000000  (  0.000000   0.000000   0.000000)
  27:       304.14    0.000000  (  0.000000   0.000000   0.000000)
  28:       345.53    0.000000  (  0.000000   0.000000   0.000000)
  29:       371.22    0.000000  (  0.000000   0.000000   0.000000)
  30:       380.45    0.000000  (  0.000000   0.000000   0.000000)
  31:       385.40    0.000000  (  0.000000   0.000000   0.000000)
  32:       390.24    0.000000  (  0.000000   0.000000   0.000000)
  33:       425.59    0.000000  (  0.000000   0.000000   0.000000)
  34:       432.90    0.000000  (  0.000000   0.000000   0.000000)
  35:       520.59    0.000000  (  0.000000   0.000000   0.000000)
  36:       547.26    0.000000  (  0.000000   0.000000   0.000000)
  37:       589.59    0.000000  (  0.000000   0.000000   0.000000)
  38:       611.69    0.000000  (  0.000000   0.000000   0.000000)
  39:       677.83    0.000000  (  0.000000   0.000000   0.000000)
  40:       745.53    0.000000  (  0.000000   0.000000   0.000000)
  41:       759.41    0.000000  (  0.000000   0.000000   0.000000)
  42:       768.78    0.000000  (  0.000000   0.000000   0.000000)
  43:       769.29    0.000000  (  0.000000   0.000000   0.000000)
  44:       813.16    0.000000  (  0.000000   0.000000   0.000000)
  45:       822.84    0.000000  (  0.000000   0.000000   0.000000)
  46:       843.83    0.000000  (  0.000000   0.000000   0.000000)
  47:       886.52    0.000000  (  0.000000   0.000000   0.000000)
  48:       912.99    0.000000  (  0.000000   0.000000   0.000000)
  49:       920.88    0.000000  (  0.000000   0.000000   0.000000)
  50:       923.83    0.000000  (  0.000000   0.000000   0.000000)
  51:       931.61    0.000000  (  0.000000   0.000000   0.000000)
  52:       934.77    0.000000  (  0.000000   0.000000   0.000000)
  53:       942.43    0.000000  (  0.000000   0.000000   0.000000)
  54:       943.77    0.000000  (  0.000000   0.000000   0.000000)
  55:       951.35    0.000000  (  0.000000   0.000000   0.000000)
  56:       972.02    0.000000  (  0.000000   0.000000   0.000000)
  57:       984.15    0.000000  (  0.000000   0.000000   0.000000)
  58:      1012.93    0.000000  (  0.000000   0.000000   0.000000)
  59:      1040.05    0.000000  (  0.000000   0.000000   0.000000)
  60:      1057.90    0.000000  (  0.000000   0.000000   0.000000)
  61:      1068.04    0.000000  (  0.000000   0.000000   0.000000)
  62:      1073.52    0.000000  (  0.000000   0.000000   0.000000)
  63:      1085.59    0.000000  (  0.000000   0.000000   0.000000)
  64:      1103.49    0.000000  (  0.000000   0.000000   0.000000)
  65:      1107.76    0.000000  (  0.000000   0.000000   0.000000)
  66:      1110.83    0.000000  (  0.000000   0.000000   0.000000)
  67:      1113.81    0.000000  (  0.000000   0.000000   0.000000)
  68:      1120.27    0.000000  (  0.000000   0.000000   0.000000)
  69:      1134.17    0.000000  (  0.000000   0.000000   0.000000)
  70:      1135.34    0.000000  (  0.000000   0.000000   0.000000)
  71:      1179.03    0.000000  (  0.000000   0.000000   0.000000)
  72:      1188.59    0.000000  (  0.000000   0.000000   0.000000)
  73:      1198.40    0.000000  (  0.000000   0.000000   0.000000)
  74:      1204.22    0.000000  (  0.000000   0.000000   0.000000)
  75:      1204.34    0.000000  (  0.000000   0.000000   0.000000)
  76:      1226.50    0.000000  (  0.000000   0.000000   0.000000)
  77:      1252.79    0.000000  (  0.000000   0.000000   0.000000)
  78:      1260.62    0.000000  (  0.000000   0.000000   0.000000)
  79:      1264.28    0.000000  (  0.000000   0.000000   0.000000)
  80:      1269.35    0.000000  (  0.000000   0.000000   0.000000)
  81:      1271.59    0.000000  (  0.000000   0.000000   0.000000)
  82:      1275.17    0.000000  (  0.000000   0.000000   0.000000)
  83:      1279.71    0.000000  (  0.000000   0.000000   0.000000)
  84:      1281.85    0.000000  (  0.000000   0.000000   0.000000)
  85:      1287.57    0.000000  (  0.000000   0.000000   0.000000)
  86:      1307.21    0.000000  (  0.000000   0.000000   0.000000)
  87:      1310.07    0.000000  (  0.000000   0.000000   0.000000)
  88:      1333.91    0.000000  (  0.000000   0.000000   0.000000)
  89:      1340.57    0.000000  (  0.000000   0.000000   0.000000)
  90:      1371.00    0.000000  (  0.000000   0.000000   0.000000)
  91:      1375.54    0.000000  (  0.000000   0.000000   0.000000)
  92:      1393.24    0.000000  (  0.000000   0.000000   0.000000)
  93:      1424.69    0.000000  (  0.000000   0.000000   0.000000)
  94:      1426.51    0.000000  (  0.000000   0.000000   0.000000)
  95:      1428.88    0.000000  (  0.000000   0.000000   0.000000)
  96:      1462.48    0.000000  (  0.000000   0.000000   0.000000)
  97:      1493.72    0.000000  (  0.000000   0.000000   0.000000)
  98:      1497.93    0.000000  (  0.000000   0.000000   0.000000)
  99:      1499.82    0.000000  (  0.000000   0.000000   0.000000)
 100:      1502.72    0.000000  (  0.000000   0.000000   0.000000)
 101:      1504.42    0.000000  (  0.000000   0.000000   0.000000)
 102:      1505.72    0.000000  (  0.000000   0.000000   0.000000)
 103:      1508.44    0.000000  (  0.000000   0.000000   0.000000)
 104:      1512.47    0.000000  (  0.000000   0.000000   0.000000)
 105:      1514.16    0.000000  (  0.000000   0.000000   0.000000)
 106:      1517.00    0.000000  (  0.000000   0.000000   0.000000)
 107:      1567.12    0.000000  (  0.000000   0.000000   0.000000)
 108:      1569.83    0.000000  (  0.000000   0.000000   0.000000)
 109:      1576.53    0.000000  (  0.000000   0.000000   0.000000)
 110:      2893.43    0.000000  (  0.000000   0.000000   0.000000)
 111:      2925.18    0.000000  (  0.000000   0.000000   0.000000)
 112:      2930.71    0.000000  (  0.000000   0.000000   0.000000)
 113:      2938.93    0.000000  (  0.000000   0.000000   0.000000)
 114:      2939.46    0.000000  (  0.000000   0.000000   0.000000)
 115:      2946.12    0.000000  (  0.000000   0.000000   0.000000)
 116:      2949.61    0.000000  (  0.000000   0.000000   0.000000)
 117:      2958.95    0.000000  (  0.000000   0.000000   0.000000)
 118:      2960.93    0.000000  (  0.000000   0.000000   0.000000)
 119:      2963.35    0.000000  (  0.000000   0.000000   0.000000)
 120:      2966.79    0.000000  (  0.000000   0.000000   0.000000)
 121:      2970.04    0.000000  (  0.000000   0.000000   0.000000)
 122:      2972.34    0.000000  (  0.000000   0.000000   0.000000)
 123:      2981.49    0.000000  (  0.000000   0.000000   0.000000)
 124:      2981.78    0.000000  (  0.000000   0.000000   0.000000)
 125:      2988.85    0.000000  (  0.000000   0.000000   0.000000)
 126:      2989.68    0.000000  (  0.000000   0.000000   0.000000)
 127:      2999.86    0.000000  (  0.000000   0.000000   0.000000)
 128:      3001.40    0.000000  (  0.000000   0.000000   0.000000)
 129:      3047.43    0.000000  (  0.000000   0.000000   0.000000)
 130:      3052.79    0.000000  (  0.000000   0.000000   0.000000)
 131:      3058.58    0.000000  (  0.000000   0.000000   0.000000)
 132:      3068.35    0.000000  (  0.000000   0.000000   0.000000)
 133:      3073.26    0.000000  (  0.000000   0.000000   0.000000)
 134:      3370.88    0.000000  (  0.000000   0.000000   0.000000)
 135:      3381.38    0.000000  (  0.000000   0.000000   0.000000)
 136:      3406.18    0.000000  (  0.000000   0.000000   0.000000)
 137:      3514.96    0.000000  (  0.000000   0.000000   0.000000)

The first frequency considered to be a vibration is 6
The total number of vibrations considered is 132


--------------------------
THERMOCHEMISTRY AT 298.15K
--------------------------

Temperature         ... 298.15 K
Pressure            ... 1.00 atm
Total Mass          ... 252.40 AMU

Throughout the following assumptions are being made:
  (1) The electronic state is orbitally nondegenerate
  (2) There are no thermally accessible electronically excited states
  (3) Hindered rotations indicated by low frequency modes are not
      treated as such but are treated as vibrations and this may
      cause some error
  (4) All equations used are the standard statistical mechanics
      equations for an ideal gas
  (5) All vibrations are strictly harmonic

freq.      18.55  E(vib)   ...       0.57 
freq.      37.53  E(vib)   ...       0.54 
freq.      42.57  E(vib)   ...       0.53 
freq.      56.50  E(vib)   ...       0.52 
freq.      64.87  E(vib)   ...       0.50 
freq.      69.49  E(vib)   ...       0.50 
freq.      72.64  E(vib)   ...       0.49 
freq.      84.43  E(vib)   ...       0.48 
freq.      96.31  E(vib)   ...       0.47 
freq.     103.86  E(vib)   ...       0.46 
freq.     128.99  E(vib)   ...       0.43 
freq.     132.61  E(vib)   ...       0.42 
freq.     138.96  E(vib)   ...       0.42 
freq.     151.59  E(vib)   ...       0.40 
freq.     160.65  E(vib)   ...       0.39 
freq.     202.90  E(vib)   ...       0.35 
freq.     213.40  E(vib)   ...       0.34 
freq.     238.31  E(vib)   ...       0.32 
freq.     259.01  E(vib)   ...       0.30 
freq.     267.14  E(vib)   ...       0.29 
freq.     271.15  E(vib)   ...       0.29 
freq.     304.14  E(vib)   ...       0.26 
freq.     345.53  E(vib)   ...       0.23 
freq.     371.22  E(vib)   ...       0.21 
freq.     380.45  E(vib)   ...       0.21 
freq.     385.40  E(vib)   ...       0.20 
freq.     390.24  E(vib)   ...       0.20 
freq.     425.59  E(vib)   ...       0.18 
freq.     432.90  E(vib)   ...       0.17 
freq.     520.59  E(vib)   ...       0.13 
freq.     547.26  E(vib)   ...       0.12 
freq.     589.59  E(vib)   ...       0.10 
freq.     611.69  E(vib)   ...       0.10 
freq.     677.83  E(vib)   ...       0.08 
freq.     745.53  E(vib)   ...       0.06 
freq.     759.41  E(vib)   ...       0.06 
freq.     768.78  E(vib)   ...       0.06 
freq.     769.29  E(vib)   ...       0.06 
freq.     813.16  E(vib)   ...       0.05 
freq.     822.84  E(vib)   ...       0.05 
freq.     843.83  E(vib)   ...       0.04 
freq.     886.52  E(vib)   ...       0.04 
freq.     912.99  E(vib)   ...       0.03 
freq.     920.88  E(vib)   ...       0.03 
freq.     923.83  E(vib)   ...       0.03 
freq.     931.61  E(vib)   ...       0.03 
freq.     934.77  E(vib)   ...       0.03 
freq.     942.43  E(vib)   ...       0.03 
freq.     943.77  E(vib)   ...       0.03 
freq.     951.35  E(vib)   ...       0.03 
freq.     972.02  E(vib)   ...       0.03 
freq.     984.15  E(vib)   ...       0.02 
freq.    1012.93  E(vib)   ...       0.02 
freq.    1040.05  E(vib)   ...       0.02 
freq.    1057.90  E(vib)   ...       0.02 
freq.    1068.04  E(vib)   ...       0.02 
freq.    1073.52  E(vib)   ...       0.02 
freq.    1085.59  E(vib)   ...       0.02 
freq.    1103.49  E(vib)   ...       0.02 
freq.    1107.76  E(vib)   ...       0.02 
freq.    1110.83  E(vib)   ...       0.01 
freq.    1113.81  E(vib)   ...       0.01 
freq.    1120.27  E(vib)   ...       0.01 
freq.    1134.17  E(vib)   ...       0.01 
freq.    1135.34  E(vib)   ...       0.01 
freq.    1179.03  E(vib)   ...       0.01 
freq.    1188.59  E(vib)   ...       0.01 
freq.    1198.40  E(vib)   ...       0.01 
freq.    1204.22  E(vib)   ...       0.01 
freq.    1204.34  E(vib)   ...       0.01 
freq.    1226.50  E(vib)   ...       0.01 
freq.    1252.79  E(vib)   ...       0.01 
freq.    1260.62  E(vib)   ...       0.01 
freq.    1264.28  E(vib)   ...       0.01 
freq.    1269.35  E(vib)   ...       0.01 
freq.    1271.59  E(vib)   ...       0.01 
freq.    1275.17  E(vib)   ...       0.01 
freq.    1279.71  E(vib)   ...       0.01 
freq.    1281.85  E(vib)   ...       0.01 
freq.    1287.57  E(vib)   ...       0.01 
freq.    1307.21  E(vib)   ...       0.01 
freq.    1310.07  E(vib)   ...       0.01 
freq.    1333.91  E(vib)   ...       0.01 
freq.    1340.57  E(vib)   ...       0.01 
freq.    1371.00  E(vib)   ...       0.01 
freq.    1375.54  E(vib)   ...       0.01 
freq.    1393.24  E(vib)   ...       0.00 
freq.    1424.69  E(vib)   ...       0.00 
freq.    1426.51  E(vib)   ...       0.00 
freq.    1428.88  E(vib)   ...       0.00 
freq.    1462.48  E(vib)   ...       0.00 
freq.    1493.72  E(vib)   ...       0.00 
freq.    1497.93  E(vib)   ...       0.00 
freq.    1499.82  E(vib)   ...       0.00 
freq.    1502.72  E(vib)   ...       0.00 
freq.    1504.42  E(vib)   ...       0.00 
freq.    1505.72  E(vib)   ...       0.00 
freq.    1508.44  E(vib)   ...       0.00 
freq.    1512.47  E(vib)   ...       0.00 
freq.    1514.16  E(vib)   ...       0.00 
freq.    1517.00  E(vib)   ...       0.00 
freq.    1567.12  E(vib)   ...       0.00 
freq.    1569.83  E(vib)   ...       0.00 
freq.    1576.53  E(vib)   ...       0.00 
freq.    2893.43  E(vib)   ...       0.00 
freq.    2925.18  E(vib)   ...       0.00 
freq.    2930.71  E(vib)   ...       0.00 
freq.    2938.93  E(vib)   ...       0.00 
freq.    2939.46  E(vib)   ...       0.00 
freq.    2946.12  E(vib)   ...       0.00 
freq.    2949.61  E(vib)   ...       0.00 
freq.    2958.95  E(vib)   ...       0.00 
freq.    2960.93  E(vib)   ...       0.00 
freq.    2963.35  E(vib)   ...       0.00 
freq.    2966.79  E(vib)   ...       0.00 
freq.    2970.04  E(vib)   ...       0.00 
freq.    2972.34  E(vib)   ...       0.00 
freq.    2981.49  E(vib)   ...       0.00 
freq.    2981.78  E(vib)   ...       0.00 
freq.    2988.85  E(vib)   ...       0.00 
freq.    2989.68  E(vib)   ...       0.00 
freq.    2999.86  E(vib)   ...       0.00 
freq.    3001.40  E(vib)   ...       0.00 
freq.    3047.43  E(vib)   ...       0.00 
freq.    3052.79  E(vib)   ...       0.00 
freq.    3058.58  E(vib)   ...       0.00 
freq.    3068.35  E(vib)   ...       0.00 
freq.    3073.26  E(vib)   ...       0.00 
freq.    3370.88  E(vib)   ...       0.00 
freq.    3381.38  E(vib)   ...       0.00 
freq.    3406.18  E(vib)   ...       0.00 
freq.    3514.96  E(vib)   ...       0.00 

------------
INNER ENERGY
------------

The inner energy is: U= E(el) + E(ZPE) + E(vib) + E(rot) + E(trans)
    E(el)   - is the total energy from the electronic structure calculation
              = E(kin-el) + E(nuc-el) + E(el-el) + E(nuc-nuc)
    E(ZPE)  - the the zero temperature vibrational energy from the frequency calculation
    E(vib)  - the the finite temperature correction to E(ZPE) due to population
              of excited vibrational states
    E(rot)  - is the rotational thermal energy
    E(trans)- is the translational thermal energy

Summary of contributions to the inner energy U:
Electronic energy                ...    -56.31261476 Eh
Zero point energy                ...      0.40461499 Eh     253.90 kcal/mol
Thermal vibrational correction   ...      0.01963111 Eh      12.32 kcal/mol
Thermal rotational correction    ...      0.00141627 Eh       0.89 kcal/mol
Thermal translational correction ...      0.00141627 Eh       0.89 kcal/mol
-----------------------------------------------------------------------
Total thermal energy                    -55.88553612 Eh


Summary of corrections to the electronic energy:
(perhaps to be used in another calculation)
Total thermal correction                  0.02246366 Eh      14.10 kcal/mol
Non-thermal (ZPE) correction              0.40461499 Eh     253.90 kcal/mol
-----------------------------------------------------------------------
Total correction                          0.42707865 Eh     268.00 kcal/mol


--------
ENTHALPY
--------

The enthalpy is H = U + kB*T
                kB is Boltzmann's constant
Total free energy                 ...    -55.88553612 Eh 
Thermal Enthalpy correction       ...      0.00094421 Eh       0.59 kcal/mol
-----------------------------------------------------------------------
Total Enthalpy                    ...    -55.88459191 Eh


Note: Only C1 symmetry has been detected, increase convergence thresholds 
      if your molecule has a higher symmetry. Symmetry factor of 1.0 is   
      used for the rotational entropy correction. 
 

Note: Rotational entropy computed according to Herzberg 
Infrared and Raman Spectra, Chapter V,1, Van Nostrand Reinhold, 1945 
Point Group:  C1, Symmetry Number:   1  
Rotational constants in cm-1:     0.018893     0.006430     0.005353 

Vibrational entropy computed according to the QRRHO of S. Grimme
Chem.Eur.J. 2012 18 9955


-------
ENTROPY
-------

The entropy contributions are T*S = T*(S(el)+S(vib)+S(rot)+S(trans))
     S(el)   - electronic entropy
     S(vib)  - vibrational entropy
     S(rot)  - rotational entropy
     S(trans)- translational entropy
The entropies will be listed as mutliplied by the temperature to get
units of energy

Electronic entropy                ...      0.00000000 Eh      0.00 kcal/mol
Vibrational entropy               ...      0.03579569 Eh     22.46 kcal/mol
Rotational entropy                ...      0.01623611 Eh     10.19 kcal/mol
Translational entropy             ...      0.02018250 Eh     12.66 kcal/mol
-----------------------------------------------------------------------
Final entropy term                ...      0.07221430 Eh     45.32 kcal/mol

In case the symmetry of your molecule has not been determined correctly
or in case you have a reason to use a different symmetry number we print 
out the resulting rotational entropy values for sn=1,12 :
 --------------------------------------------------------
|  sn= 1 | S(rot)=       0.01623611 Eh     10.19 kcal/mol|
|  sn= 2 | S(rot)=       0.01558165 Eh      9.78 kcal/mol|
|  sn= 3 | S(rot)=       0.01519882 Eh      9.54 kcal/mol|
|  sn= 4 | S(rot)=       0.01492720 Eh      9.37 kcal/mol|
|  sn= 5 | S(rot)=       0.01471651 Eh      9.23 kcal/mol|
|  sn= 6 | S(rot)=       0.01454436 Eh      9.13 kcal/mol|
|  sn= 7 | S(rot)=       0.01439882 Eh      9.04 kcal/mol|
|  sn= 8 | S(rot)=       0.01427274 Eh      8.96 kcal/mol|
|  sn= 9 | S(rot)=       0.01416153 Eh      8.89 kcal/mol|
|  sn=10 | S(rot)=       0.01406205 Eh      8.82 kcal/mol|
|  sn=11 | S(rot)=       0.01397206 Eh      8.77 kcal/mol|
|  sn=12 | S(rot)=       0.01388991 Eh      8.72 kcal/mol|
 --------------------------------------------------------


-------------------
GIBBS FREE ENERGY
-------------------

The Gibbs free energy is G = H - T*S

Total enthalpy                    ...    -55.88459191 Eh 
Total entropy correction          ...     -0.07221430 Eh    -45.32 kcal/mol
-----------------------------------------------------------------------
Final Gibbs free energy         ...    -55.95680621 Eh

For completeness - the Gibbs free energy minus the electronic energy
G-E(el)                           ...      0.35580856 Eh    223.27 kcal/mol


Total Time for Numerical Frequencies  :        98.411 sec
Time for Reference State(s)           :         0.091 sec
Time for Displacements                :        87.383 sec

Timings for individual modules:

Sum of individual times         ...        0.234 sec (=   0.004 min)
XTB module                      ...        0.234 sec (=   0.004 min) 100.0 %
                             ****ORCA TERMINATED NORMALLY****
TOTAL RUN TIME: 0 days 0 hours 1 minutes 39 seconds 3 msec
(SLURM) EXECUTION TIME: 99.021053244 seconds.
