      -----------------------------------------------------------      
     |                   =====================                   |     
     |                           x T B                           |     
     |                   =====================                   |     
     |                         S. Grimme                         |     
     |          Mulliken Center for Theoretical Chemistry        |     
     |                    University of Bonn                     |     
      -----------------------------------------------------------      

   * xtb version 6.3.1 (461a024) compiled by 'schneider@apollo14' on 2020-06-26

   xtb is free software: you can redistribute it and/or modify it under
   the terms of the GNU Lesser General Public License as published by
   the Free Software Foundation, either version 3 of the License, or
   (at your option) any later version.
   
   xtb is distributed in the hope that it will be useful,
   but WITHOUT ANY WARRANTY; without even the implied warranty of
   MERCHANTABILITY or FITNESS FOR A PARTICULAR PURPOSE.  See the
   GNU Lesser General Public License for more details.
   
   Cite this work as:
   * S. Grimme, C. Bannwarth, P. Shushkov, J. Chem. Theory Comput., 2017,
     13, 1989-2009. DOI: 10.1021/acs.jctc.7b00118
   * C. Bannwarth, S. Ehlert and S. Grimme., J. Chem. Theory Comput., 2019,
     15, 1652-1671. DOI: 10.1021/acs.jctc.8b01176
   * P. Pracht, E. Caldeweyher, S. Ehlert, S. Grimme, ChemRxiv, 2019, preprint.
     DOI: 10.26434/chemrxiv.8326202.v1
   
   for GFN-FF:
   * S. Spicher and S. Grimme, Angew. Chem. Int. Ed., 2020,
     DOI: 10.1002/anie.202004239
   
   for DFT-D4:
   * E. Caldeweyher, C. Bannwarth and S. Grimme, J. Chem. Phys., 2017,
     147, 034112. DOI: 10.1063/1.4993215
   * E. Caldeweyher, S. Ehlert, A. Hansen, H. Neugebauer, S. Spicher,
     C. Bannwarth and S. Grimme, J. Chem. Phys., 2019, 150, 154122.
     DOI: 10.1063/1.5090222
   
   for sTDA-xTB:
   * S. Grimme and C. Bannwarth, J. Chem. Phys., 2016, 145, 054103.
     DOI: 10.1063/1.4959605
   
   in the mass-spec context:
   * V. Asgeirsson, C. Bauer and S. Grimme, Chem. Sci., 2017, 8, 4879.
     DOI: 10.1039/c7sc00601b
   * J. Koopman and S. Grimme, ACS Omega 2019, 4, 12, 15120-15133.
     DOI: 10.1021/acsomega.9b02011
   
   for metadynamics refer to:
   * S. Grimme, J. Chem. Theory Comput., 2019, 155, 2847-2862
     DOI: 10.1021/acs.jctc.9b00143
   
   with help from (in alphabetical order)
   C. Bannwarth, F. Bohle, G. Brandenburg, E. Caldeweyher, M. Checinski,
   S. Dohm, S. Ehlert, S. Ehrlich, F. März, H. Neugebauer, J. Pisarek,
   P. Pracht, P. Shushkov, and S. Spicher.
   
 * started run on 2020/07/06 at 12:35:34.774     

           -------------------------------------------------
          |                Calculation Setup                |
           -------------------------------------------------

          program call               : xtb dmtca.xyz --ohess --gbsa water
          coordinate file            : dmtca.xyz
          omp threads                :                    12
          number of atoms            :                    15
          number of electrons        :                    54
          charge                     :                     0
          spin                       :                   0.0
          first test random number   :      0.22223049290957

   ID    Z sym.   atoms
    1    7 N      1
    2    6 C      2, 6, 10, 14
    3    1 H      3-5, 7-9
    4   17 Cl     11-13
    5    8 O      15

           -------------------------------------------------
          |                 G F N 2 - x T B                 |
           -------------------------------------------------

        Reference                      10.1021/acs.jctc.8b01176
      * Hamiltonian:
        H0-scaling (s, p, d)           1.850000    2.230000    2.230000
        zeta-weighting                 0.500000
      * Dispersion:
        s8                             2.700000
        a1                             0.520000
        a2                             5.000000
        s9                             5.000000
      * Repulsion:
        kExp                           1.500000    1.000000
        rExp                           1.000000
      * Coulomb:
        alpha                          2.000000
        third order                    shell-resolved
        anisotropic                    true
        a3                             3.000000
        a5                             4.000000
        cn-shift                       1.200000
        cn-exp                         4.000000
        max-rad                        5.000000

      * Solvation model:               GBSA
        Solvent                        water
        Parameter file                 internal GFN2-xTB/GBSA
        Dielectric constant                8.0200E+01
        Reference state                gsolv [1 M gas/solution]
        Free energy shift                  1.8574E-03 Eh       1.1656E+00 kcal/mol
        Temperature                        2.9815E+02 K
        Density                            1.0000E+00 kg/L
        Solvent mass                       1.8000E+01 g/mol
        Interaction kernel             Still
        Born radius scaling (c1)           1.5524E+00
        Born radii integrator          GBOBC
        Born offset                        2.4628E-02 a0       4.6540E-02 AA
        H-bond correction              true
        Ion screening                  false
        Surface tension                    1.0000E-05 Eh       1.5569E+01 dyn/cm
        Grid points                               230 per atom
q/qsh data taken from xtbrestart
CAMM data taken from xtbrestart

          ...................................................
          :                      SETUP                      :
          :.................................................:
          :  # basis functions                  60          :
          :  # atomic orbitals                  57          :
          :  # shells                           27          :
          :  # electrons                        54          :
          :  max. iterations                   250          :
          :  Hamiltonian                  GFN2-xTB          :
          :  restarted?                       true          :
          :  GBSA solvation                   true          :
          :  PC potential                    false          :
          :  electronic temp.          300.0000000     K    :
          :  accuracy                    1.0000000          :
          :  -> integral cutoff          0.2500000E+02      :
          :  -> integral neglect         0.1000000E-07      :
          :  -> SCF convergence          0.1000000E-05 Eh   :
          :  -> wf. convergence          0.1000000E-03 e    :
          :  Broyden damping             0.4000000          :
          ...................................................

 iter      E             dE          RMSdq      gap      omega  full diag
   1    -32.4892620 -0.324893E+02  0.546E-05    4.29       0.0  T
   2    -32.4892620 -0.692779E-11  0.472E-05    4.29     547.5  T
   3    -32.4892620 -0.134150E-10  0.337E-05    4.29     766.9  T

   *** convergence criteria satisfied after 3 iterations ***

         #    Occupation            Energy/Eh            Energy/eV
      -------------------------------------------------------------
         1        2.0000           -1.0951711             -29.8011
       ...           ...                  ...                  ...
        21        2.0000           -0.4695587             -12.7773
        22        2.0000           -0.4592420             -12.4966
        23        2.0000           -0.4554056             -12.3922
        24        2.0000           -0.4508997             -12.2696
        25        2.0000           -0.4498907             -12.2421
        26        2.0000           -0.4263229             -11.6008
        27        2.0000           -0.4132293             -11.2445 (HOMO)
        28                         -0.2554096              -6.9500 (LUMO)
        29                         -0.2411861              -6.5630
        30                         -0.1905672              -5.1856
        31                         -0.1646373              -4.4800
        32                         -0.0584810              -1.5913
       ...                                ...                  ...
        57                          0.5726221              15.5818
      -------------------------------------------------------------
                  HL-Gap            0.1578197 Eh            4.2945 eV
             Fermi-level           -0.3343195 Eh           -9.0973 eV

 SCC (total)                   0 d,  0 h,  0 min,  0.079 sec
 SCC setup                      ...        0 min,  0.004 sec (  4.910%)
 Dispersion                     ...        0 min,  0.004 sec (  5.407%)
 classical contributions        ...        0 min,  0.005 sec (  5.894%)
 integral evaluation            ...        0 min,  0.014 sec ( 18.114%)
 iterations                     ...        0 min,  0.006 sec (  7.891%)
 molecular gradient             ...        0 min,  0.045 sec ( 56.850%)
 printout                       ...        0 min,  0.001 sec (  0.909%)

         :::::::::::::::::::::::::::::::::::::::::::::::::::::
         ::                     SUMMARY                     ::
         :::::::::::::::::::::::::::::::::::::::::::::::::::::
         :: total energy             -32.279436532871 Eh    ::
         :: total w/o Gsasa/hb       -32.278205652127 Eh    ::
         :: gradient norm              0.000711914610 Eh/a0 ::
         :: HOMO-LUMO gap              4.294493304575 eV    ::
         ::.................................................::
         :: SCC energy               -32.489262026707 Eh    ::
         :: -> isotropic ES            0.059657840034 Eh    ::
         :: -> anisotropic ES         -0.006032509524 Eh    ::
         :: -> anisotropic XC          0.002698812633 Eh    ::
         :: -> dispersion             -0.015269965697 Eh    ::
         :: -> Gsolv                  -0.013584813432 Eh    ::
         ::    -> Gborn               -0.012353932688 Eh    ::
         ::    -> Gsasa               -0.001277761716 Eh    ::
         ::    -> Ghb                 -0.001810562155 Eh    ::
         ::    -> Gshift               0.001857443127 Eh    ::
         :: repulsion energy           0.209765304946 Eh    ::
         :: add. restraining           0.000000000000 Eh    ::
         :::::::::::::::::::::::::::::::::::::::::::::::::::::

      ----------------------------------------------------------- 
     |                   =====================                   |
     |                        A N C O P T                        |
     |                   =====================                   |
     |               Approximate Normal Coordinate               |
     |                Rational Function Optimizer                |
      ----------------------------------------------------------- 

          ...................................................
          :                      SETUP                      :
          :.................................................:
          :   optimization level            normal          :
          :   max. optcycles                   200          :
          :   ANC micro-cycles                  20          :
          :   degrees of freedom                39          :
          :.................................................:
          :   RF solver                   davidson          :
          :   write xtbopt.log                true          :
          :   linear?                        false          :
          :   energy convergence         0.5000000E-05 Eh   :
          :   grad. convergence          0.1000000E-02 Eh/α :
          :   maximium RF displ.         1.0000000          :
          :   Hlow (freq-cutoff)         0.1000000E-01      :
          :   Hmax (freq-cutoff)         5.0000000          :
          :   S6 in model hess.         20.0000000          :
          ...................................................

generating ANC from model Hessian ...
Using Lindh-Hessian (1995)
 Shifting diagonal of input Hessian by    8.0482392050141051E-003
 Lowest  eigenvalues of input Hessian
    0.000000    0.000000    0.000000    0.000000    0.000000    0.000000
    0.010000    0.012097    0.014412    0.019309    0.019740    0.026010
    0.033405    0.038235    0.041513    0.042199    0.060743    0.066505
 Highest eigenvalues
    1.152524    1.159342    1.220328    1.563488    1.866720    2.335216


........................................................................
.............................. CYCLE    1 ..............................
........................................................................
   1    -32.4892620 -0.324893E+02  0.229E-05    4.29       0.0  T
   2    -32.4892620 -0.116529E-11  0.193E-05    4.29    1337.4  T
   3    -32.4892620 -0.154188E-11  0.151E-05    4.29    1710.0  T
     SCC iter.                  ...        0 min,  0.007 sec
     gradient                   ...        0 min,  0.048 sec
 * total energy  :   -32.2794365 Eh     change       -0.1247713E-10 Eh
   gradient norm :     0.0007115 Eh/α   predicted     0.0000000E+00 (-100.00%)
   displ. norm   :     0.0044147 α      lambda       -0.7748596E-06
   maximum displ.:     0.0022646 α      in ANC's #1, #4, #10, ...

   *** GEOMETRY OPTIMIZATION CONVERGED AFTER 1 ITERATIONS ***

------------------------------------------------------------------------
 total energy gain   :        -0.0000000 Eh       -0.0000 kcal/mol
 total RMSD          :         0.0000001 a0        0.0000 Å
 total power (kW/mol):        -0.0000000 (step)   -0.0000 (real)
------------------------------------------------------------------------

 ANCopt (total)                0 d,  0 h,  0 min,  0.110 sec
 optimizer setup                ...        0 min,  0.001 sec (  0.784%)
 model hessian                  ...        0 min,  0.004 sec (  3.631%)
 ANC generation                 ...        0 min,  0.001 sec (  0.610%)
 coordinate transformation      ...        0 min,  0.000 sec (  0.006%)
 single point calculation       ...        0 min,  0.102 sec ( 92.760%)
 optimization log               ...        0 min,  0.000 sec (  0.137%)
 hessian update                 ...        0 min,  0.000 sec (  0.001%)
 rational function              ...        0 min,  0.002 sec (  1.961%)

================
 final structure:
================
15
 xtb: 6.3.1 (461a024)
N         0.55802326630675   -0.60935885423386   -0.70316202500944
C         0.95760011637990   -1.94636957972574   -0.32061494660645
H         0.11377756388179   -2.62402846120602   -0.25889596608415
H         1.46952856090013   -1.92300140855703    0.64337297693318
H         1.64744128462526   -2.31761485380693   -1.07744130191569
C         1.63161315945797    0.17565365119874   -1.28600539080603
H         1.29112498234953    1.19810023868858   -1.42897395859665
H         1.91635770557880   -0.24787489007984   -2.24902594555779
H         2.48959895311206    0.16418018298811   -0.61502714895631
C        -1.75028915975051   -0.84914205324210    0.15326560280921
Cl       -2.26482850295562   -2.20281457293091   -0.87908204063170
Cl       -1.26642238892484   -1.44167295796301    1.74521538284239
Cl       -3.16153765015259    0.21629286295403    0.37839961682101
C        -0.62079012411669   -0.02951277544994   -0.53242940694082
O        -0.89121172237658    1.11262538353070   -0.87896423410750

 Bond Distances (Angstroems)
 ---------------------------
N1-C2=1.4469         N1-C6=1.4521         N1-C14=1.3248        C2-N1=1.4469         C2-H3=1.0840         C2-H4=1.0917         
C2-H5=1.0893         H3-C2=1.0840         H4-C2=1.0917         H5-C2=1.0893         C6-N1=1.4521         C6-H7=1.0871         
C6-H8=1.0899         C6-H9=1.0893         H7-C6=1.0871         H8-C6=1.0899         H9-C6=1.0893         C10-Cl11=1.7785      
C10-Cl12=1.7662      C10-Cl13=1.7825      C10-C14=1.5549       Cl11-C10=1.7785      Cl12-C10=1.7662      Cl13-C10=1.7825      
C14-N1=1.3248        C14-C10=1.5549       C14-O15=1.2238       O15-C14=1.2238       
 C  H  Rav=1.0885 sigma=0.0024  Rmin=1.0840  Rmax=1.0917     6
 C  C  Rav=1.5549 sigma=0.0000  Rmin=1.5549  Rmax=1.5549     1
 N  C  Rav=1.4079 sigma=0.0588  Rmin=1.3248  Rmax=1.4521     3
 O  C  Rav=1.2238 sigma=0.0000  Rmin=1.2238  Rmax=1.2238     1
 Cl C  Rav=1.7757 sigma=0.0069  Rmin=1.7662  Rmax=1.7825     3

 selected bond angles (degree)
 --------------------
C6-N1-C2=113.67                C14-N1-C2=128.03               C14-N1-C6=118.23               H3-C2-N1=112.19                
H4-C2-N1=110.07                H4-C2-H3=109.15                H5-C2-N1=107.83                H5-C2-H3=108.63                
H5-C2-H4=108.89                H7-C6-N1=109.25                H8-C6-N1=109.74                H8-C6-H7=109.34                
H9-C6-N1=109.23                H9-C6-H7=109.73                H9-C6-H8=109.54                Cl12-C10-Cl11=110.31           
Cl13-C10-Cl11=107.41           Cl13-C10-Cl12=107.67           C14-C10-Cl11=110.82            C14-C10-Cl12=112.04            
C14-C10-Cl13=108.41            

 selected dihedral angles (degree)
 ---------------------------------
H3-C2-N1-C6=202.28            H3-C2-N1-C14= 25.34           H4-C2-N1-C6= 80.52            H4-C2-N1-C14=263.58           
H5-C2-N1-C6=321.86            H5-C2-N1-C14=144.92           H7-C6-N1-C2=187.12            H7-C6-N1-C14=  4.39           
H8-C6-N1-C2= 67.26            H8-C6-N1-C14=244.52           H9-C6-N1-C2=307.16            H9-C6-N1-C14=124.43           
           -------------------------------------------------
          |                Final Singlepoint                |
           -------------------------------------------------

          ...................................................
          :                      SETUP                      :
          :.................................................:
          :  # basis functions                  60          :
          :  # atomic orbitals                  57          :
          :  # shells                           27          :
          :  # electrons                        54          :
          :  max. iterations                   250          :
          :  Hamiltonian                  GFN2-xTB          :
          :  restarted?                      false          :
          :  GBSA solvation                   true          :
          :  PC potential                    false          :
          :  electronic temp.          300.0000000     K    :
          :  accuracy                    1.0000000          :
          :  -> integral cutoff          0.2500000E+02      :
          :  -> integral neglect         0.1000000E-07      :
          :  -> SCF convergence          0.1000000E-05 Eh   :
          :  -> wf. convergence          0.1000000E-03 e    :
          :  Broyden damping             0.4000000          :
          ...................................................

 iter      E             dE          RMSdq      gap      omega  full diag
   1    -32.4892620 -0.324893E+02  0.100E-05    4.29       0.0  T
   2    -32.4892620 -0.262901E-12  0.866E-06    4.29    2982.1  T
   3    -32.4892620 -0.440536E-12  0.617E-06    4.29    4184.1  T

   *** convergence criteria satisfied after 3 iterations ***

         #    Occupation            Energy/Eh            Energy/eV
      -------------------------------------------------------------
         1        2.0000           -1.0951712             -29.8011
       ...           ...                  ...                  ...
        21        2.0000           -0.4695586             -12.7773
        22        2.0000           -0.4592420             -12.4966
        23        2.0000           -0.4554056             -12.3922
        24        2.0000           -0.4508998             -12.2696
        25        2.0000           -0.4498907             -12.2421
        26        2.0000           -0.4263229             -11.6008
        27        2.0000           -0.4132292             -11.2445 (HOMO)
        28                         -0.2554096              -6.9500 (LUMO)
        29                         -0.2411862              -6.5630
        30                         -0.1905671              -5.1856
        31                         -0.1646375              -4.4800
        32                         -0.0584810              -1.5913
       ...                                ...                  ...
        57                          0.5726221              15.5818
      -------------------------------------------------------------
                  HL-Gap            0.1578196 Eh            4.2945 eV
             Fermi-level           -0.3343194 Eh           -9.0973 eV

 SCC (total)                   0 d,  0 h,  0 min,  0.088 sec
 SCC setup                      ...        0 min,  0.009 sec ( 10.084%)
 Dispersion                     ...        0 min,  0.003 sec (  3.405%)
 classical contributions        ...        0 min,  0.008 sec (  9.405%)
 integral evaluation            ...        0 min,  0.005 sec (  6.201%)
 iterations                     ...        0 min,  0.007 sec (  7.589%)
 molecular gradient             ...        0 min,  0.055 sec ( 63.055%)
 printout                       ...        0 min,  0.000 sec (  0.221%)

         :::::::::::::::::::::::::::::::::::::::::::::::::::::
         ::                     SUMMARY                     ::
         :::::::::::::::::::::::::::::::::::::::::::::::::::::
         :: total energy             -32.279436532886 Eh    ::
         :: total w/o Gsasa/hb       -32.278205648085 Eh    ::
         :: gradient norm              0.000711361037 Eh/a0 ::
         :: HOMO-LUMO gap              4.294489914680 eV    ::
         ::.................................................::
         :: SCC energy               -32.489262026722 Eh    ::
         :: -> isotropic ES            0.059657739584 Eh    ::
         :: -> anisotropic ES         -0.006032742322 Eh    ::
         :: -> anisotropic XC          0.002698530793 Eh    ::
         :: -> dispersion             -0.015269965515 Eh    ::
         :: -> Gsolv                  -0.013584866008 Eh    ::
         ::    -> Gborn               -0.012353981207 Eh    ::
         ::    -> Gsasa               -0.001277761716 Eh    ::
         ::    -> Ghb                 -0.001810566212 Eh    ::
         ::    -> Gshift               0.001857443127 Eh    ::
         :: repulsion energy           0.209765304946 Eh    ::
         :: add. restraining           0.000000000000 Eh    ::
         :::::::::::::::::::::::::::::::::::::::::::::::::::::

           ------------------------------------------------- 
          |                Numerical Hessian                |
           ------------------------------------------------- 
step length          :   0.00500
SCC accuracy         :   0.30000
Hessian scale factor :   1.00000
frozen atoms in %    :   0.00000    0
RMS gradient         :   0.00071
estimated CPU  time      0.50 min
estimated wall time      0.04 min

writing file <hessian>.

 projected vibrational frequencies (cm-1)
eigval :       -0.00    -0.00    -0.00     0.00     0.00     0.00
eigval :       69.70    81.73   137.31   143.67   156.16   197.11
eigval :      234.87   244.03   246.08   281.92   286.45   382.01
eigval :      414.01   461.31   582.06   642.35   711.90   719.73
eigval :      828.23   965.65  1043.69  1078.11  1113.15  1118.01
eigval :     1243.36  1389.77  1392.80  1420.55  1444.24  1451.40
eigval :     1459.86  1469.31  1695.03  2986.90  3002.43  3014.55
eigval :     3022.41  3056.66  3088.98
           -------------------------------------------------
          |                Property Printout                |
           -------------------------------------------------

    * Orbital Energies and Occupations

         #    Occupation            Energy/Eh            Energy/eV
      -------------------------------------------------------------
         1        2.0000           -1.0951712             -29.8011
       ...           ...                  ...                  ...
        15        2.0000           -0.5252211             -14.2920
        16        2.0000           -0.5165008             -14.0547
        17        2.0000           -0.4942824             -13.4501
        18        2.0000           -0.4881205             -13.2824
        19        2.0000           -0.4777068             -12.9991
        20        2.0000           -0.4708652             -12.8129
        21        2.0000           -0.4695586             -12.7773
        22        2.0000           -0.4592420             -12.4966
        23        2.0000           -0.4554055             -12.3922
        24        2.0000           -0.4508998             -12.2696
        25        2.0000           -0.4498907             -12.2421
        26        2.0000           -0.4263229             -11.6008
        27        2.0000           -0.4132292             -11.2445 (HOMO)
        28                         -0.2554096              -6.9500 (LUMO)
        29                         -0.2411863              -6.5630
        30                         -0.1905671              -5.1856
        31                         -0.1646375              -4.4800
        32                         -0.0584810              -1.5913
        33                         -0.0241945              -0.6584
        34                         -0.0231711              -0.6305
        35                         -0.0226551              -0.6165
        36                         -0.0213460              -0.5809
        37                         -0.0210833              -0.5737
        38                         -0.0208200              -0.5665
       ...                                ...                  ...
        57                          0.5726221              15.5818
      -------------------------------------------------------------
                  HL-Gap            0.1578196 Eh            4.2945 eV
             Fermi-level           -0.3343194 Eh           -9.0973 eV

     #   Z        covCN         q      C6AA      α(0)
     1   7 N      2.729    -0.032    21.872     6.946
     2   6 C      3.698    -0.095    22.490     6.783
     3   1 H      0.925     0.089     1.889     2.149
     4   1 H      0.924     0.096     1.824     2.112
     5   1 H      0.925     0.106     1.731     2.058
     6   6 C      3.713    -0.079    22.140     6.723
     7   1 H      0.925     0.089     1.889     2.149
     8   1 H      0.925     0.091     1.873     2.140
     9   1 H      0.925     0.095     1.829     2.115
    10   6 C      3.639     0.202    17.734     6.057
    11  17 Cl     1.222    -0.112   102.680    15.503
    12  17 Cl     1.226    -0.102   102.369    15.479
    13  17 Cl     1.276    -0.131   103.270    15.547
    14   6 C      2.839     0.262    22.592     7.789
    15   8 O      0.861    -0.478    23.298     6.472

 Mol. C6AA /au·bohr⁶  :       4404.524869
 Mol. C8AA /au·bohr⁸  :     134643.861616
 Mol. α(0) /au        :        100.022950


Wiberg/Mayer (AO) data.
largest (>0.10) Wiberg bond orders for each atom
          total WBO             WBO to atom ...
     1  N   3.586        C   14 1.359    C    2 0.986    C    6 0.979    O   15 0.223
     2  C   3.938        N    1 0.986    H    3 0.970    H    5 0.970    H    4 0.964
     3  H   0.992        C    2 0.970
     4  H   0.991        C    2 0.964
     5  H   0.989        C    2 0.970
     6  C   3.941        N    1 0.979    H    7 0.975    H    9 0.970    H    8 0.969
     7  H   0.992        C    6 0.975
     8  H   0.992        C    6 0.969
     9  H   0.990        C    6 0.970
    10  C   3.888        Cl  13 0.971    Cl  12 0.971    Cl  11 0.958    C   14 0.899
    11  Cl  1.098        C   10 0.958
    12  Cl  1.102        C   10 0.971
    13  Cl  1.080        C   10 0.971
    14  C   3.967        O   15 1.600    N    1 1.359    C   10 0.899
    15  O   1.976        C   14 1.600    N    1 0.223
Topologies differ in total number of bonds
Writing topology from bond orders to xtbtopo.mol

molecular dipole:
                 x           y           z       tot (Debye)
 q only:        2.496      -1.355      -0.243
   full:        1.920      -1.068      -0.198       5.607
molecular quadrupole (traceless):
                xx          xy          yy          xz          yz          zz
 q only:       -1.727      -1.507       1.151      -4.156       2.755       0.576
  q+dip:        2.485      -1.515      -2.915      -3.855       4.086       0.430
   full:        1.966      -1.758      -2.653      -3.423       4.279       0.687

           -------------------------------------------------
          |                Geometry Summary                 |
           -------------------------------------------------

      molecular mass/u    :      190.4555090
   center of mass at/Å    :       -1.2186780      -0.7870023      -0.0454950
  moments of inertia/u·Å² :        0.3878654E+03   0.6135312E+03   0.6949215E+03
rotational constants/cm⁻¹ :        0.4346258E-01   0.2747641E-01   0.2425833E-01

 * 13 selected distances

     #   Z        #   Z                                     value/Å
     1   7 N      2   6 C                                 1.4469283
     2   6 C      3   1 H                                 1.0840052 (min)
     2   6 C      4   1 H                                 1.0917369
     2   6 C      5   1 H                                 1.0892612
     1   7 N      6   6 C                                 1.4520834
     6   6 C      7   1 H                                 1.0870921
     6   6 C      8   1 H                                 1.0898920
     6   6 C      9   1 H                                 1.0892580
    10   6 C     11  17 Cl                                1.7784605
    10   6 C     12  17 Cl                                1.7662174
    10   6 C     13  17 Cl                                1.7825429 (max)
     1   7 N     14   6 C                                 1.3247536
    14   6 C     15   8 O                                 1.2238030

 * 4 distinct bonds (by element types)

   Z      Z             #   av. dist./Å        max./Å        min./Å
   1 H    6 C           6     1.0885409     1.0917369     1.0840052
   6 C    7 N           3     1.4079218     1.4520834     1.3247536
   6 C    8 O           1     1.2238030     1.2238030     1.2238030
   6 C   17 Cl          3     1.7757403     1.7825429     1.7662174

           -------------------------------------------------
          |               Frequency Printout                |
           -------------------------------------------------
 projected vibrational frequencies (cm-1)
eigval :       -0.00    -0.00    -0.00     0.00     0.00     0.00
eigval :       69.70    81.73   137.31   143.67   156.16   197.11
eigval :      234.87   244.03   246.08   281.92   286.45   382.01
eigval :      414.01   461.31   582.06   642.35   711.90   719.73
eigval :      828.23   965.65  1043.69  1078.11  1113.15  1118.01
eigval :     1243.36  1389.77  1392.80  1420.55  1444.24  1451.40
eigval :     1459.86  1469.31  1695.03  2986.90  3002.43  3014.55
eigval :     3022.41  3056.66  3088.98
 reduced masses (amu)
   1: 30.85   2: 25.17   3: 24.27   4: 20.45   5: 22.86   6: 25.37   7: 18.81   8: 17.69
   9:  7.91  10: 27.56  11:  3.27  12: 18.86  13: 27.29  14: 28.97  15: 24.22  16: 19.19
  17: 15.41  18: 16.79  19: 28.02  20: 12.61  21: 15.80  22: 13.30  23: 13.28  24: 13.13
  25: 12.44  26: 10.57  27:  4.10  28:  3.11  29:  5.01  30:  5.46  31: 11.99  32:  9.02
  33:  2.62  34:  4.13  35:  1.57  36:  2.13  37:  1.65  38:  3.10  39: 13.04  40:  1.80
  41:  1.91  42:  1.53  43:  1.64  44:  1.74  45:  1.70
 IR intensities (amu)
   1:  0.19   2:  0.10   3:  0.16   4:  0.11   5:  0.13   6:  0.19   7:  0.30   8:  0.03
   9:  0.12  10:  0.26  11:  0.08  12:  0.12  13:  0.23  14:  0.26  15:  0.08  16:  0.43
  17:  0.35  18:  0.25  19:  0.56  20:  0.39  21:  0.35  22:  0.65  23:  0.39  24:  0.29
  25:  0.11  26:  0.55  27:  0.21  28:  0.09  29:  0.59  30:  0.77  31:  0.61  32:  0.68
  33:  0.21  34:  0.49  35:  0.09  36:  0.24  37:  0.21  38:  0.43  39:  2.96  40:  0.11
  41:  0.13  42:  0.11  43:  0.07  44:  0.08  45:  0.09
 Raman intensities (amu)
   1:  0.00   2:  0.00   3:  0.00   4:  0.00   5:  0.00   6:  0.00   7:  0.00   8:  0.00
   9:  0.00  10:  0.00  11:  0.00  12:  0.00  13:  0.00  14:  0.00  15:  0.00  16:  0.00
  17:  0.00  18:  0.00  19:  0.00  20:  0.00  21:  0.00  22:  0.00  23:  0.00  24:  0.00
  25:  0.00  26:  0.00  27:  0.00  28:  0.00  29:  0.00  30:  0.00  31:  0.00  32:  0.00
  33:  0.00  34:  0.00  35:  0.00  36:  0.00  37:  0.00  38:  0.00  39:  0.00  40:  0.00
  41:  0.00  42:  0.00  43:  0.00  44:  0.00  45:  0.00
 output can be read by thermo (or use thermo option).
 writing <g98.out> molden fake output.
 recommended (thermochemical) frequency scaling factor: 1.0
           -------------------------------------------------
          |             Thermodynamic Functions             |
           -------------------------------------------------

Molecule has no symmetry elements
It seems to be the C1 point group
c1  symmetry found (for desy threshold:  0.10E+00) used in thermo

          ...................................................
          :                      SETUP                      :
          :.................................................:
          :  # frequencies                          39      :
          :  # imaginary freq.                       0      :
          :  linear?                             false      :
          :  only rotor calc.                    false      :
          :  symmetry                               c1      :
          :  rotational number                       1      :
          :  scaling factor                  1.0000000      :
          :  rotor cutoff                   50.0000000 cm⁻¹ :
          :  imag. cutoff                  -20.0000000 cm⁻¹ :
          :.................................................:

    mode    ω/cm⁻¹     T·S(HO)/kcal·mol⁻¹    T·S(FR)/kcal·mol⁻¹   T·S(vib)
   ------------------------------------------------------------------------
       1     69.70    -1.24085 ( 79.06%)    -0.95802 ( 20.94%)    -1.18163
       2     81.73    -1.14757 ( 87.71%)    -0.91088 ( 12.29%)    -1.11848
       3    137.31    -0.84705 ( 98.27%)    -0.75722 (  1.73%)    -0.84550
       4    143.67    -0.82121 ( 98.55%)    -0.74380 (  1.45%)    -0.82009
       5    156.16    -0.77394 ( 98.96%)    -0.71912 (  1.04%)    -0.77337
       6    197.11    -0.64398 ( 99.59%)    -0.65014 (  0.41%)    -0.64401
       7    234.87    -0.54903 ( 99.80%)    -0.59823 (  0.20%)    -0.54913
       8    244.03    -0.52871 ( 99.82%)    -0.58689 (  0.18%)    -0.52882
       9    246.08    -0.52429 ( 99.83%)    -0.58441 (  0.17%)    -0.52439
      10    281.92    -0.45378 ( 99.90%)    -0.54414 (  0.10%)    -0.45387
      11    286.45    -0.44568 ( 99.91%)    -0.53941 (  0.09%)    -0.44577
   ------------------------------------------------------------------------

   temp. (K)  partition function   enthalpy   heat capacity  entropy
                                   cal/mol     cal/K/mol   cal/K/mol   J/K/mol
 298.15  VIB  0.146E+04             5106.095     31.197     31.300
         ROT  0.982E+06              888.752      2.981     30.401
         INT  0.143E+10             5994.848     34.178     61.701
         TR   0.254E+28             1481.254      4.968     41.619
         TOT                        7476.1015    39.1460   103.3204   432.2925

       T/K    H(0)-H(T)+PV         H(T)/Eh          T*S/Eh         G(T)/Eh
   ------------------------------------------------------------------------
    298.15    0.119139E-01    0.110507E+00    0.490908E-01    0.614165E-01
   ------------------------------------------------------------------------

         :::::::::::::::::::::::::::::::::::::::::::::::::::::
         ::                  THERMODYNAMIC                  ::
         :::::::::::::::::::::::::::::::::::::::::::::::::::::
         :: total free energy         -32.218020034358 Eh   ::
         ::.................................................::
         :: total energy              -32.279436533639 Eh   ::
         :: zero point energy           0.098593422511 Eh   ::
         :: G(RRHO) w/o ZPVE           -0.037176923230 Eh   ::
         :: G(RRHO) contrib.            0.061416499281 Eh   ::
         :::::::::::::::::::::::::::::::::::::::::::::::::::::

optimized geometry written to: xtbopt.xyz


           -------------------------------------------------
          | TOTAL ENERGY              -32.279436533639 Eh   |
          | TOTAL ENTHALPY            -32.168929185026 Eh   |
          | TOTAL FREE ENERGY         -32.218020034358 Eh   |
          | GRADIENT NORM               0.000711273784 Eh/α |
          | HOMO-LUMO GAP               4.294489613318 eV   |
           -------------------------------------------------

------------------------------------------------------------------------
 * finished run on 2020/07/06 at 12:35:36.052     
------------------------------------------------------------------------
 total:
 * wall-time:     0 d,  0 h,  0 min,  1.278 sec
 *  cpu-time:     0 d,  0 h,  0 min, 14.838 sec
 * ratio c/w:    11.612 speedup
 SCF:
 * wall-time:     0 d,  0 h,  0 min,  0.087 sec
 *  cpu-time:     0 d,  0 h,  0 min,  1.021 sec
 * ratio c/w:    11.696 speedup
 ANC optimizer:
 * wall-time:     0 d,  0 h,  0 min,  0.206 sec
 *  cpu-time:     0 d,  0 h,  0 min,  2.368 sec
 * ratio c/w:    11.495 speedup
 numerical hessian:
 * wall-time:     0 d,  0 h,  0 min,  0.904 sec
 *  cpu-time:     0 d,  0 h,  0 min, 10.562 sec
 * ratio c/w:    11.688 speedup

