
                                 *****************
                                 * O   R   C   A *
                                 *****************

           --- An Ab Initio, DFT and Semiempirical electronic structure package ---

                  #######################################################
                  #                        -***-                        #
                  #          Department of theory and spectroscopy      #
                  #               Directorship: Frank Neese             #
                  #        Max Planck Institute fuer Kohlenforschung    #
                  #                Kaiser Wilhelm Platz 1               #
                  #                 D-45470 Muelheim/Ruhr               #
                  #                      Germany                        #
                  #                                                     #
                  #                  All rights reserved                #
                  #                        -***-                        #
                  #######################################################


                         Program Version 4.2.1 -  RELEASE  -


 With contributions from (in alphabetic order):
   Daniel Aravena         : Magnetic Suceptibility
   Michael Atanasov       : Ab Initio Ligand Field Theory (pilot matlab implementation)
   Alexander A. Auer      : GIAO ZORA, VPT2
   Ute Becker             : Parallelization
   Giovanni Bistoni       : ED, misc. LED, open-shell LED, HFLD
   Martin Brehm           : Molecular dynamics
   Dmytro Bykov           : SCF Hessian
   Vijay G. Chilkuri      : MRCI spin determinant printing, contributions to CSF-ICE
   Dipayan Datta          : RHF DLPNO-CCSD density
   Achintya Kumar Dutta   : EOM-CC, STEOM-CC
   Dmitry Ganyushin       : Spin-Orbit,Spin-Spin,Magnetic field MRCI
   Miquel Garcia          : C-PCM Hessian, Gaussian charge scheme
   Yang Guo               : DLPNO-NEVPT2, CIM, IAO-localization
   Andreas Hansen         : Spin unrestricted coupled pair/coupled cluster methods
   Benjamin Helmich-Paris : CASSCF linear response (MC-RPA)
   Lee Huntington         : MR-EOM, pCC
   Robert Izsak           : Overlap fitted RIJCOSX, COSX-SCS-MP3, EOM
   Christian Kollmar      : KDIIS, OOCD, Brueckner-CCSD(T), CCSD density
   Simone Kossmann        : Meta GGA functionals, TD-DFT gradient, OOMP2, MP2 Hessian
   Martin Krupicka        : AUTO-CI
   Lucas Lang             : DCDCAS
   Dagmar Lenk            : GEPOL surface, SMD
   Dimitrios Liakos       : Extrapolation schemes; Compound Job, initial MDCI parallelization
   Dimitrios Manganas     : Further ROCIS development; embedding schemes
   Dimitrios Pantazis     : SARC Basis sets
   Taras Petrenko         : DFT Hessian,TD-DFT gradient, ASA, ECA, R-Raman, ABS, FL, XAS/XES, NRVS
   Peter Pinski           : DLPNO-MP2, DLPNO-MP2 Gradient
   Christoph Reimann      : Effective Core Potentials
   Marius Retegan         : Local ZFS, SOC
   Christoph Riplinger    : Optimizer, TS searches, QM/MM, DLPNO-CCSD(T), (RO)-DLPNO pert. Triples
   Tobias Risthaus        : Range-separated hybrids, TD-DFT gradient, RPA, STAB
   Michael Roemelt        : Original ROCIS implementation
   Masaaki Saitow         : Open-shell DLPNO-CCSD energy and density
   Barbara Sandhoefer     : DKH picture change effects
   Avijit Sen             : IP-ROCIS
   Kantharuban Sivalingam : CASSCF convergence, NEVPT2, FIC-MRCI
   Bernardo de Souza      : ESD, SOC TD-DFT
   Georgi Stoychev        : AutoAux, RI-MP2 NMR
   Willem Van den Heuvel  : Paramagnetic NMR
   Boris Wezisla          : Elementary symmetry handling
   Frank Wennmohs         : Technical directorship


 We gratefully acknowledge several colleagues who have allowed us to
 interface, adapt or use parts of their codes:
   Stefan Grimme, W. Hujo, H. Kruse,             : VdW corrections, initial TS optimization,
                  C. Bannwarth                     DFT functionals, gCP, sTDA/sTD-DF
   Ed Valeev, F. Pavosevic, A. Kumar             : LibInt (2-el integral package), F12 methods
   Garnet Chan, S. Sharma, J. Yang, R. Olivares  : DMRG
   Ulf Ekstrom                                   : XCFun DFT Library
   Mihaly Kallay                                 : mrcc  (arbitrary order and MRCC methods)
   Andreas Klamt, Michael Diedenhofen            : otool_cosmo (COSMO solvation model)
   Jiri Pittner, Ondrej Demel                    : Mk-CCSD
   Frank Weinhold                                : gennbo (NPA and NBO analysis)
   Christopher J. Cramer and Donald G. Truhlar   : smd solvation model
   Lars Goerigk                                  : TD-DFT with DH, B97 family of functionals
   V. Asgeirsson, H. Jonsson                     : NEB implementation
   FAccTs GmbH                                   : IRC, NEB, NEB-TS, Multilevel, MM, QM/MM, CI optimization
   S Lehtola, MJT Oliveira, MAL Marques          : LibXC Library


 Your calculation uses the libint2 library for the computation of 2-el integrals
 For citations please refer to: http://libint.valeyev.net

 Your ORCA version has been built with support for libXC version: 4.2.3
 For citations please refer to: https://tddft.org/programs/libxc/

 This ORCA versions uses:
   CBLAS   interface :  Fast vector & matrix operations
   LAPACKE interface :  Fast linear algebra routines
   SCALAPACK package :  Parallel linear algebra routines




***************************************
The coordinates will be read from file: init.xyz
***************************************


Your calculation utilizes the SMD solvation module
Please cite in your paper:
A.V. Marenich, C.J. Cramer, D.G. Truhlar J. Phys. Chem. B, 113, (2009), 6378 

Your calculation utilizes the semiempirical GFN2-xTB method
Please cite in your paper:
C. Bannwarth, Ehlert S., S. Grimme,  J. Chem. Theory Comput., 15, (2019), 1652.
   

Your calculation utilizes a Nudged-Elastic-Band implementation
 by V.Asgeirsson, C. Riplinger & H. Jonsson
Please cite in your paper:
 V. Asgeirsson et al., in prep. (2019)
   

----- Orbital basis set information -----
Your calculation utilizes the basis: def2-SVP
   F. Weigend and R. Ahlrichs, Phys. Chem. Chem. Phys. 7, 3297 (2005).

================================================================================
                                        WARNINGS
                       Please study these warnings very carefully!
================================================================================


WARNING: The environment variable RSH_COMMAND is not set!
  ===> : All Displacements for the Numerical Hessian calculation
         will be started on localhost

WARNING: Geometry Optimization
  ===> : Switching off AutoStart
         For restart on a previous wavefunction, please use MOREAD

WARNING: Found dipole moment calculation with XTB calculation
  ===> : Switching off dipole moment calculation


INFO   : the flag for use of LIBINT has been found!

================================================================================
                                       INPUT FILE
================================================================================
NAME = dmtca.inp
|  1> ! XTB2 NEB-TS NumFreq IRC
|  2> 
|  3> %neb
|  4>  # neb_ts_xyzfile "guess.xyz"
|  5>  neb_end_xyzfile "final.xyz"
|  6> 
|  7>  interpolation XTB2TS
|  8>  # interpolation XTB2
|  9>  preopt_ends true
| 10>  reparam 35
| 11>  nimages 19
| 12> end
| 13> 
| 14> %geom
| 15>  maxiter 1000
| 16> end
| 17> 
| 18> %irc
| 19>  maxiter 1000
| 20>  de_init_displ 0.25
| 21>  TolMAXG 1.65e-3
| 22>  TolRMSG 6.72e-4
| 23> end
| 24> 
| 25> %pal
| 26>  nprocs 8
| 27> end
| 28> 
| 29> %cpcm
| 30>  smd true
| 31>  smdsolvent "water"
| 32> end
| 33> 
| 34> *xyzfile 0 1 init.xyz
| 35> 
| 36> 
| 37>                          ****END OF INPUT****
================================================================================


------------------------------------------------------------------------------- 
                         Nudged Elastic Band Calculation                       
------------------------------------------------------------------------------- 

Number of images (incl. end points)     ....  21
Number of intermediate images           ....  19
Number of optimized images              ....  19
Optimization of end points before NEB   ....  YES
Use existing gbw files for MO input     ....  NO
Number of atoms                         ....  15
Number of (active) degrees of freedom   ....  45
Constrained atoms                       ....  None


Before the actual NEB run reactant and product are preoptimized.

---------------------------------------------------------------
                        REACTANT OPTIMIZATION            
---------------------------------------------------------------

Geometry optimization settings:
Update method            Update   .... BFGS
Choice of coordinates    CoordSys .... Z-matrix Internals
Initial Hessian          InHess   .... Almoef's Model

Convergence Tolerances:
Energy Change            TolE     ....  5.0000e-06 Eh
Max. Gradient            TolMAXG  ....  3.0000e-04 Eh/bohr
RMS Gradient             TolRMSG  ....  1.0000e-04 Eh/bohr
Max. Displacement        TolMAXD  ....  4.0000e-03 bohr
RMS Displacement         TolRMSD  ....  2.0000e-03 bohr
Strict Convergence                ....  False
------------------------------------------------------------------------------
                        ORCA OPTIMIZATION COORDINATE SETUP
------------------------------------------------------------------------------

The optimization will be done in new redundant internal coordinates
Making redundant internal coordinates   ...  (new redundants) done
Evaluating the initial hessian          ...  (Almloef) done
Evaluating the coordinates              ...  done
Calculating the B-matrix                .... done
Calculating the G-matrix                .... done
Diagonalizing the G-matrix              .... done
Small eigenvalue found = 2.369e-02
The first mode is                       ....   21
The number of degrees of freedom        ....   39

    -----------------------------------------------------------------
                    Redundant Internal Coordinates


    -----------------------------------------------------------------
         Definition                    Initial Value    Approx d2E/dq
    -----------------------------------------------------------------
      1. B(C   1,N   0)                  1.4469         0.453994   
      2. B(H   2,C   1)                  1.0840         0.368118   
      3. B(H   3,C   1)                  1.0917         0.357810   
      4. B(H   4,C   1)                  1.0893         0.361079   
      5. B(C   5,N   0)                  1.4521         0.445477   
      6. B(H   6,C   5)                  1.0871         0.363967   
      7. B(H   7,C   5)                  1.0899         0.360243   
      8. B(H   8,C   5)                  1.0893         0.361083   
      9. B(Cl 10,C   9)                  1.7785         0.336489   
     10. B(Cl 11,C   9)                  1.7662         0.351968   
     11. B(Cl 12,C   9)                  1.7825         0.331480   
     12. B(C  13,C   9)                  1.5549         0.340909   
     13. B(C  13,N   0)                  1.3248         0.711168   
     14. B(O  14,C  13)                  1.2238         1.030462   
     15. A(C   5,N   0,C  13)          118.2292         0.413875   
     16. A(C   1,N   0,C  13)          128.0326         0.415270   
     17. A(C   1,N   0,C   5)          113.6713         0.382493   
     18. A(H   2,C   1,H   3)          109.1549         0.291555   
     19. A(N   0,C   1,H   2)          112.1937         0.334131   
     20. A(H   2,C   1,H   4)          108.6318         0.291973   
     21. A(H   3,C   1,H   4)          108.8949         0.290672   
     22. A(N   0,C   1,H   3)          110.0697         0.332560   
     23. A(N   0,C   1,H   4)          107.8260         0.333062   
     24. A(H   7,C   5,H   8)          109.5365         0.290982   
     25. A(H   6,C   5,H   8)          109.7324         0.291453   
     26. A(N   0,C   5,H   8)          109.2336         0.332018   
     27. A(H   6,C   5,H   7)          109.3363         0.291346   
     28. A(N   0,C   5,H   7)          109.7393         0.331890   
     29. A(N   0,C   5,H   6)          109.2494         0.332456   
     30. A(Cl 10,C   9,Cl 12)          107.4097         0.380737   
     31. A(Cl 10,C   9,Cl 11)          110.3106         0.384724   
     32. A(Cl 12,C   9,C  13)          108.4051         0.365642   
     33. A(Cl 11,C   9,C  13)          112.0436         0.369423   
     34. A(Cl 10,C   9,C  13)          110.8180         0.366583   
     35. A(Cl 11,C   9,Cl 12)          107.6723         0.383722   
     36. A(C   9,C  13,O  14)          117.1490         0.424321   
     37. A(N   0,C  13,O  14)          124.6544         0.481780   
     38. A(N   0,C  13,C   9)          118.1964         0.397324   
     39. D(H   3,C   1,N   0,C   5)     80.5245         0.017587   
     40. D(H   4,C   1,N   0,C   5)    -38.1373         0.017587   
     41. D(H   4,C   1,N   0,C  13)    144.9231         0.017587   
     42. D(H   2,C   1,N   0,C   5)   -157.7172         0.017587   
     43. D(H   2,C   1,N   0,C  13)     25.3432         0.017587   
     44. D(H   3,C   1,N   0,C  13)    -96.4151         0.017587   
     45. D(H   6,C   5,N   0,C   1)   -172.8770         0.016925   
     46. D(H   8,C   5,N   0,C  13)    124.4270         0.016925   
     47. D(H   7,C   5,N   0,C  13)   -115.4750         0.016925   
     48. D(H   7,C   5,N   0,C   1)     67.2607         0.016925   
     49. D(H   8,C   5,N   0,C   1)    -52.8373         0.016925   
     50. D(H   6,C   5,N   0,C  13)      4.3874         0.016925   
     51. D(O  14,C  13,N   0,C   1)    179.7974         0.041988   
     52. D(C   9,C  13,N   0,C   5)   -177.1526         0.041988   
     53. D(C   9,C  13,N   0,C   1)     -0.3340         0.041988   
     54. D(O  14,C  13,C   9,Cl 12)     -5.0184         0.008826   
     55. D(O  14,C  13,C   9,Cl 11)   -123.6978         0.008826   
     56. D(O  14,C  13,C   9,Cl 10)    112.6192         0.008826   
     57. D(N   0,C  13,C   9,Cl 12)    175.1031         0.008826   
     58. D(N   0,C  13,C   9,Cl 11)     56.4237         0.008826   
     59. D(N   0,C  13,C   9,Cl 10)    -67.2593         0.008826   
     60. D(O  14,C  13,N   0,C   5)      2.9788         0.041988   
    -----------------------------------------------------------------

Number of atoms                         .... 15
Number of degrees of freedom            .... 60

         *************************************************************
         *                GEOMETRY OPTIMIZATION CYCLE   1            *
         *************************************************************
      -----------------------------------------------------------      
     |                   =====================                   |     
     |                           x T B                           |     
     |                   =====================                   |     
     |                         S. Grimme                         |     
     |          Mulliken Center for Theoretical Chemistry        |     
     |                    University of Bonn                     |     
      -----------------------------------------------------------      

   * xtb version 6.3.1 (461a024) compiled by 'schneider@apollo14' on 2020-06-26

   xtb is free software: you can redistribute it and/or modify it under
   the terms of the GNU Lesser General Public License as published by
   the Free Software Foundation, either version 3 of the License, or
   (at your option) any later version.
   
   xtb is distributed in the hope that it will be useful,
   but WITHOUT ANY WARRANTY; without even the implied warranty of
   MERCHANTABILITY or FITNESS FOR A PARTICULAR PURPOSE.  See the
   GNU Lesser General Public License for more details.
   
   Cite this work as:
   * S. Grimme, C. Bannwarth, P. Shushkov, J. Chem. Theory Comput., 2017,
     13, 1989-2009. DOI: 10.1021/acs.jctc.7b00118
   * C. Bannwarth, S. Ehlert and S. Grimme., J. Chem. Theory Comput., 2019,
     15, 1652-1671. DOI: 10.1021/acs.jctc.8b01176
   * P. Pracht, E. Caldeweyher, S. Ehlert, S. Grimme, ChemRxiv, 2019, preprint.
     DOI: 10.26434/chemrxiv.8326202.v1
   
   for GFN-FF:
   * S. Spicher and S. Grimme, Angew. Chem. Int. Ed., 2020,
     DOI: 10.1002/anie.202004239
   
   for DFT-D4:
   * E. Caldeweyher, C. Bannwarth and S. Grimme, J. Chem. Phys., 2017,
     147, 034112. DOI: 10.1063/1.4993215
   * E. Caldeweyher, S. Ehlert, A. Hansen, H. Neugebauer, S. Spicher,
     C. Bannwarth and S. Grimme, J. Chem. Phys., 2019, 150, 154122.
     DOI: 10.1063/1.5090222
   
   for sTDA-xTB:
   * S. Grimme and C. Bannwarth, J. Chem. Phys., 2016, 145, 054103.
     DOI: 10.1063/1.4959605
   
   in the mass-spec context:
   * V. Asgeirsson, C. Bauer and S. Grimme, Chem. Sci., 2017, 8, 4879.
     DOI: 10.1039/c7sc00601b
   * J. Koopman and S. Grimme, ACS Omega 2019, 4, 12, 15120-15133.
     DOI: 10.1021/acsomega.9b02011
   
   for metadynamics refer to:
   * S. Grimme, J. Chem. Theory Comput., 2019, 155, 2847-2862
     DOI: 10.1021/acs.jctc.9b00143
   
   with help from (in alphabetical order)
   C. Bannwarth, F. Bohle, G. Brandenburg, E. Caldeweyher, M. Checinski,
   S. Dohm, S. Ehlert, S. Ehrlich, F. März, H. Neugebauer, J. Pisarek,
   P. Pracht, P. Shushkov, and S. Spicher.
   
 * started run on 2020/07/06 at 12:38:31.647     

           -------------------------------------------------
          |                Calculation Setup                |
           -------------------------------------------------

          program call               : /opt/orca/otool_xtb dmtca_reactant_XTB.xyz --grad -c 0 -u 0 -P 8 --namespace dmtca_reactant --gbsa H2O
          calculation namespace      : dmtca_reactant
          coordinate file            : dmtca_reactant_XTB.xyz
          omp threads                :                     8
          number of atoms            :                    15
          number of electrons        :                    54
          charge                     :                     0
          spin                       :                   0.0
          first test random number   :      0.98723969994795

   ID    Z sym.   atoms
    1    7 N      1
    2    6 C      2, 6, 10, 14
    3    1 H      3-5, 7-9
    4   17 Cl     11-13
    5    8 O      15
########################################################################
[WARNING] Please study the warnings concerning your input carefully
-1- prog_main_parseArguments: Process number higher than OMP_NUM_THREADS, I hope you know what you are doing.
########################################################################

           -------------------------------------------------
          |                 G F N 2 - x T B                 |
           -------------------------------------------------

        Reference                      10.1021/acs.jctc.8b01176
      * Hamiltonian:
        H0-scaling (s, p, d)           1.850000    2.230000    2.230000
        zeta-weighting                 0.500000
      * Dispersion:
        s8                             2.700000
        a1                             0.520000
        a2                             5.000000
        s9                             5.000000
      * Repulsion:
        kExp                           1.500000    1.000000
        rExp                           1.000000
      * Coulomb:
        alpha                          2.000000
        third order                    shell-resolved
        anisotropic                    true
        a3                             3.000000
        a5                             4.000000
        cn-shift                       1.200000
        cn-exp                         4.000000
        max-rad                        5.000000

      * Solvation model:               GBSA
        Solvent                        H2O
        Parameter file                 internal GFN2-xTB/GBSA
        Dielectric constant                8.0200E+01
        Reference state                gsolv [1 M gas/solution]
        Free energy shift                  1.8574E-03 Eh       1.1656E+00 kcal/mol
        Temperature                        2.9815E+02 K
        Density                            1.0000E+00 kg/L
        Solvent mass                       1.8000E+01 g/mol
        Interaction kernel             Still
        Born radius scaling (c1)           1.5524E+00
        Born radii integrator          GBOBC
        Born offset                        2.4628E-02 a0       4.6540E-02 AA
        H-bond correction              true
        Ion screening                  false
        Surface tension                    1.0000E-05 Eh       1.5569E+01 dyn/cm
        Grid points                               230 per atom
q/qsh data taken from xtbrestart
CAMM data taken from xtbrestart

          ...................................................
          :                      SETUP                      :
          :.................................................:
          :  # basis functions                  60          :
          :  # atomic orbitals                  57          :
          :  # shells                           27          :
          :  # electrons                        54          :
          :  max. iterations                   250          :
          :  Hamiltonian                  GFN2-xTB          :
          :  restarted?                       true          :
          :  GBSA solvation                   true          :
          :  PC potential                    false          :
          :  electronic temp.          300.0000000     K    :
          :  accuracy                    1.0000000          :
          :  -> integral cutoff          0.2500000E+02      :
          :  -> integral neglect         0.1000000E-07      :
          :  -> SCF convergence          0.1000000E-05 Eh   :
          :  -> wf. convergence          0.1000000E-03 e    :
          :  Broyden damping             0.4000000          :
          ...................................................

 iter      E             dE          RMSdq      gap      omega  full diag
   1    -32.4892620 -0.324893E+02  0.211E-06    4.29       0.0  T
   2    -32.4892620 -0.781597E-13  0.187E-06    4.29   13816.5  T
   3    -32.4892620  0.142109E-13  0.140E-06    4.29   18420.4  T

   *** convergence criteria satisfied after 3 iterations ***

         #    Occupation            Energy/Eh            Energy/eV
      -------------------------------------------------------------
         1        2.0000           -1.0951712             -29.8011
       ...           ...                  ...                  ...
        21        2.0000           -0.4695586             -12.7773
        22        2.0000           -0.4592420             -12.4966
        23        2.0000           -0.4554055             -12.3922
        24        2.0000           -0.4508998             -12.2696
        25        2.0000           -0.4498907             -12.2421
        26        2.0000           -0.4263229             -11.6008
        27        2.0000           -0.4132292             -11.2445 (HOMO)
        28                         -0.2554096              -6.9500 (LUMO)
        29                         -0.2411863              -6.5630
        30                         -0.1905671              -5.1856
        31                         -0.1646375              -4.4800
        32                         -0.0584810              -1.5913
       ...                                ...                  ...
        57                          0.5726221              15.5818
      -------------------------------------------------------------
                  HL-Gap            0.1578196 Eh            4.2945 eV
             Fermi-level           -0.3343194 Eh           -9.0973 eV

 SCC (total)                   0 d,  0 h,  0 min,  0.051 sec
 SCC setup                      ...        0 min,  0.002 sec (  3.721%)
 Dispersion                     ...        0 min,  0.002 sec (  2.972%)
 classical contributions        ...        0 min,  0.001 sec (  2.283%)
 integral evaluation            ...        0 min,  0.008 sec ( 14.952%)
 iterations                     ...        0 min,  0.005 sec ( 10.746%)
 molecular gradient             ...        0 min,  0.033 sec ( 64.166%)
 printout                       ...        0 min,  0.001 sec (  1.126%)

         :::::::::::::::::::::::::::::::::::::::::::::::::::::
         ::                     SUMMARY                     ::
         :::::::::::::::::::::::::::::::::::::::::::::::::::::
         :: total energy             -32.279436533639 Eh    ::
         :: total w/o Gsasa/hb       -32.278205647136 Eh    ::
         :: gradient norm              0.000711267170 Eh/a0 ::
         :: HOMO-LUMO gap              4.294489350976 eV    ::
         ::.................................................::
         :: SCC energy               -32.489262027475 Eh    ::
         :: -> isotropic ES            0.059657719859 Eh    ::
         :: -> anisotropic ES         -0.006032782750 Eh    ::
         :: -> anisotropic XC          0.002698482608 Eh    ::
         :: -> dispersion             -0.015269965480 Eh    ::
         :: -> Gsolv                  -0.013584878685 Eh    ::
         ::    -> Gborn               -0.012353992181 Eh    ::
         ::    -> Gsasa               -0.001277762548 Eh    ::
         ::    -> Ghb                 -0.001810567082 Eh    ::
         ::    -> Gshift               0.001857443127 Eh    ::
         :: repulsion energy           0.209765304946 Eh    ::
         :: add. restraining           0.000000000000 Eh    ::
         :::::::::::::::::::::::::::::::::::::::::::::::::::::

           -------------------------------------------------
          |                Property Printout                |
           -------------------------------------------------

    * Orbital Energies and Occupations

         #    Occupation            Energy/Eh            Energy/eV
      -------------------------------------------------------------
         1        2.0000           -1.0951712             -29.8011
       ...           ...                  ...                  ...
        15        2.0000           -0.5252211             -14.2920
        16        2.0000           -0.5165008             -14.0547
        17        2.0000           -0.4942824             -13.4501
        18        2.0000           -0.4881205             -13.2824
        19        2.0000           -0.4777068             -12.9991
        20        2.0000           -0.4708652             -12.8129
        21        2.0000           -0.4695586             -12.7773
        22        2.0000           -0.4592420             -12.4966
        23        2.0000           -0.4554055             -12.3922
        24        2.0000           -0.4508998             -12.2696
        25        2.0000           -0.4498907             -12.2421
        26        2.0000           -0.4263229             -11.6008
        27        2.0000           -0.4132292             -11.2445 (HOMO)
        28                         -0.2554096              -6.9500 (LUMO)
        29                         -0.2411863              -6.5630
        30                         -0.1905671              -5.1856
        31                         -0.1646375              -4.4800
        32                         -0.0584810              -1.5913
        33                         -0.0241945              -0.6584
        34                         -0.0231711              -0.6305
        35                         -0.0226551              -0.6165
        36                         -0.0213460              -0.5809
        37                         -0.0210833              -0.5737
        38                         -0.0208200              -0.5665
       ...                                ...                  ...
        57                          0.5726221              15.5818
      -------------------------------------------------------------
                  HL-Gap            0.1578196 Eh            4.2945 eV
             Fermi-level           -0.3343194 Eh           -9.0973 eV

     #   Z        covCN         q      C6AA      α(0)
     1   7 N      2.729    -0.032    21.872     6.946
     2   6 C      3.698    -0.095    22.490     6.783
     3   1 H      0.925     0.089     1.889     2.149
     4   1 H      0.924     0.096     1.824     2.112
     5   1 H      0.925     0.106     1.731     2.058
     6   6 C      3.713    -0.079    22.140     6.723
     7   1 H      0.925     0.089     1.889     2.149
     8   1 H      0.925     0.091     1.873     2.140
     9   1 H      0.925     0.095     1.829     2.115
    10   6 C      3.639     0.202    17.734     6.057
    11  17 Cl     1.222    -0.112   102.680    15.503
    12  17 Cl     1.226    -0.102   102.369    15.479
    13  17 Cl     1.276    -0.131   103.270    15.547
    14   6 C      2.839     0.262    22.592     7.789
    15   8 O      0.861    -0.478    23.298     6.472

 Mol. C6AA /au·bohr⁶  :       4404.524855
 Mol. C8AA /au·bohr⁸  :     134643.861515
 Mol. α(0) /au        :        100.022949


Wiberg/Mayer (AO) data.
largest (>0.10) Wiberg bond orders for each atom
          total WBO             WBO to atom ...
     1  N   3.586        C   14 1.359    C    2 0.986    C    6 0.979    O   15 0.223
     2  C   3.938        N    1 0.986    H    3 0.970    H    5 0.970    H    4 0.964
     3  H   0.992        C    2 0.970
     4  H   0.991        C    2 0.964
     5  H   0.989        C    2 0.970
     6  C   3.941        N    1 0.979    H    7 0.975    H    9 0.970    H    8 0.969
     7  H   0.992        C    6 0.975
     8  H   0.992        C    6 0.969
     9  H   0.990        C    6 0.970
    10  C   3.888        Cl  13 0.971    Cl  12 0.971    Cl  11 0.958    C   14 0.899
    11  Cl  1.098        C   10 0.958
    12  Cl  1.102        C   10 0.971
    13  Cl  1.080        C   10 0.971
    14  C   3.967        O   15 1.600    N    1 1.359    C   10 0.899
    15  O   1.976        C   14 1.600    N    1 0.223
Topologies differ in total number of bonds
Writing topology from bond orders to xtbtopo.mol

molecular dipole:
                 x           y           z       tot (Debye)
 q only:        2.496      -1.355      -0.243
   full:        1.920      -1.068      -0.198       5.607
molecular quadrupole (traceless):
                xx          xy          yy          xz          yz          zz
 q only:       -1.727      -1.507       1.151      -4.156       2.755       0.576
  q+dip:        2.485      -1.515      -2.915      -3.855       4.086       0.430
   full:        1.966      -1.758      -2.653      -3.423       4.279       0.687


           -------------------------------------------------
          | TOTAL ENERGY              -32.279436533639 Eh   |
          | GRADIENT NORM               0.000711267170 Eh/α |
          | HOMO-LUMO GAP               4.294489350976 eV   |
           -------------------------------------------------

------------------------------------------------------------------------
 * finished run on 2020/07/06 at 12:38:31.750     
------------------------------------------------------------------------
 total:
 * wall-time:     0 d,  0 h,  0 min,  0.103 sec
 *  cpu-time:     0 d,  0 h,  0 min,  1.145 sec
 * ratio c/w:    11.129 speedup
 SCF:
 * wall-time:     0 d,  0 h,  0 min,  0.056 sec
 *  cpu-time:     0 d,  0 h,  0 min,  0.648 sec
 * ratio c/w:    11.567 speedup


-------------------------   --------------------
FINAL SINGLE POINT ENERGY       -32.279436533640
-------------------------   --------------------

------------------------------------------------------------------------------
                         ORCA GEOMETRY RELAXATION STEP
------------------------------------------------------------------------------

Reading the OPT-File                    .... done
Getting information on internals        .... done
Copying old internal coords+grads       .... done
Making the new internal coordinates     .... (new redundants).... done
Validating the new internal coordinates .... (new redundants).... done
Calculating the B-matrix                .... done
Calculating the G,G- and P matrices     .... done
Transforming gradient to internals      .... done
Projecting the internal gradient        .... done
Number of atoms                         ....  15
Number of internal coordinates          ....  60
Current Energy                          ....   -32.279436534 Eh
Current gradient norm                   ....     0.000711267 Eh/bohr
Maximum allowed component of the step   ....  0.300
Current trust radius                    ....  0.300
Evaluating the initial hessian          ....  (Almloef) done
Projecting the Hessian                  .... done
Forming the augmented Hessian           .... done
Diagonalizing the augmented Hessian     .... done
Last element of RFO vector              ....  0.999991244
Lowest eigenvalues of augmented Hessian:
 -0.000000969  0.008826130  0.016925406  0.017586941  0.023358737
Length of the computed step             ....  0.004184698
The final length of the internal step   ....  0.004184698
Converting the step to cartesian space:
 Initial RMS(Int)=    0.0005402422
Transforming coordinates:
 Iter   0:  RMS(Cart)=    0.0010314433 RMS(Int)=    0.0005402271
 Iter   1:  RMS(Cart)=    0.0000004771 RMS(Int)=    0.0000003756
 Iter   2:  RMS(Cart)=    0.0000000004 RMS(Int)=    0.0000000002
done
Storing new coordinates                 .... done

                                .--------------------.
          ----------------------|Geometry convergence|-------------------------
          Item                value                   Tolerance       Converged
          ---------------------------------------------------------------------
          RMS gradient        0.0000645398            0.0001000000      YES
          MAX gradient        0.0002478618            0.0003000000      YES
          RMS step            0.0005402422            0.0020000000      YES
          MAX step            0.0014153780            0.0040000000      YES
          ........................................................
          Max(Bonds)      0.0004      Max(Angles)    0.01
          Max(Dihed)        0.08      Max(Improp)    0.00
          ---------------------------------------------------------------------

                    ***********************HURRAY********************
                    ***        THE OPTIMIZATION HAS CONVERGED     ***
                    *************************************************


    ---------------------------------------------------------------------------
                         Redundant Internal Coordinates

                          --- Optimized Parameters ---  
                            (Angstroem and degrees)

        Definition                    OldVal   dE/dq     Step     FinalVal
    ----------------------------------------------------------------------------
     1. B(C   1,N   0)                1.4469 -0.000050  0.0001    1.4470   
     2. B(H   2,C   1)                1.0840  0.000162 -0.0002    1.0838   
     3. B(H   3,C   1)                1.0917  0.000229 -0.0003    1.0914   
     4. B(H   4,C   1)                1.0893  0.000154 -0.0002    1.0890   
     5. B(C   5,N   0)                1.4521 -0.000001  0.0000    1.4521   
     6. B(H   6,C   5)                1.0871 -0.000011  0.0000    1.0871   
     7. B(H   7,C   5)                1.0899  0.000016 -0.0000    1.0899   
     8. B(H   8,C   5)                1.0893  0.000028 -0.0000    1.0892   
     9. B(Cl 10,C   9)                1.7785  0.000229 -0.0004    1.7781   
    10. B(Cl 11,C   9)                1.7662 -0.000248  0.0004    1.7666   
    11. B(Cl 12,C   9)                1.7825 -0.000045  0.0001    1.7826   
    12. B(C  13,C   9)                1.5549 -0.000042  0.0001    1.5550   
    13. B(C  13,N   0)                1.3248 -0.000010  0.0000    1.3248   
    14. B(O  14,C  13)                1.2238 -0.000045  0.0000    1.2238   
    15. A(C   5,N   0,C  13)          118.23  0.000027   -0.00    118.22   
    16. A(C   1,N   0,C  13)          128.03  0.000019   -0.00    128.03   
    17. A(C   1,N   0,C   5)          113.67 -0.000045    0.01    113.68   
    18. A(H   2,C   1,H   3)          109.15 -0.000038    0.01    109.16   
    19. A(N   0,C   1,H   2)          112.19  0.000004    0.00    112.19   
    20. A(H   2,C   1,H   4)          108.63  0.000009   -0.00    108.63   
    21. A(H   3,C   1,H   4)          108.89  0.000016   -0.01    108.89   
    22. A(N   0,C   1,H   3)          110.07  0.000048   -0.01    110.06   
    23. A(N   0,C   1,H   4)          107.83 -0.000039    0.01    107.83   
    24. A(H   7,C   5,H   8)          109.54  0.000002    0.00    109.54   
    25. A(H   6,C   5,H   8)          109.73 -0.000004    0.00    109.73   
    26. A(N   0,C   5,H   8)          109.23  0.000000    0.00    109.23   
    27. A(H   6,C   5,H   7)          109.34  0.000006   -0.00    109.33   
    28. A(N   0,C   5,H   7)          109.74 -0.000013    0.00    109.74   
    29. A(N   0,C   5,H   6)          109.25  0.000008   -0.00    109.25   
    30. A(Cl 10,C   9,Cl 12)          107.41  0.000010   -0.00    107.41   
    31. A(Cl 10,C   9,Cl 11)          110.31  0.000016    0.00    110.31   
    32. A(Cl 12,C   9,C  13)          108.41  0.000004   -0.00    108.40   
    33. A(Cl 11,C   9,C  13)          112.04 -0.000046    0.01    112.05   
    34. A(Cl 10,C   9,C  13)          110.82 -0.000019    0.00    110.82   
    35. A(Cl 11,C   9,Cl 12)          107.67  0.000039   -0.01    107.66   
    36. A(C   9,C  13,O  14)          117.15  0.000023   -0.00    117.15   
    37. A(N   0,C  13,O  14)          124.65  0.000026   -0.00    124.65   
    38. A(N   0,C  13,C   9)          118.20 -0.000049    0.01    118.20   
    39. D(H   3,C   1,N   0,C   5)     80.52  0.000005    0.03     80.55   
    40. D(H   4,C   1,N   0,C   5)    -38.14 -0.000018    0.04    -38.10   
    41. D(H   4,C   1,N   0,C  13)    144.92 -0.000038    0.08    145.00   
    42. D(H   2,C   1,N   0,C   5)   -157.72 -0.000006    0.03   -157.69   
    43. D(H   2,C   1,N   0,C  13)     25.34 -0.000027    0.08     25.42   
    44. D(H   3,C   1,N   0,C  13)    -96.42 -0.000015    0.07    -96.34   
    45. D(H   6,C   5,N   0,C   1)   -172.88  0.000005   -0.02   -172.90   
    46. D(H   8,C   5,N   0,C  13)    124.43  0.000023   -0.06    124.36   
    47. D(H   7,C   5,N   0,C  13)   -115.48  0.000018   -0.06   -115.54   
    48. D(H   7,C   5,N   0,C   1)     67.26  0.000000   -0.02     67.24   
    49. D(H   8,C   5,N   0,C   1)    -52.84  0.000005   -0.02    -52.86   
    50. D(H   6,C   5,N   0,C  13)      4.39  0.000023   -0.06      4.32   
    51. D(O  14,C  13,N   0,C   1)    179.80  0.000020   -0.03    179.77   
    52. D(C   9,C  13,N   0,C   5)   -177.15  0.000012   -0.01   -177.16   
    53. D(C   9,C  13,N   0,C   1)     -0.33  0.000031   -0.06     -0.39   
    54. D(O  14,C  13,C   9,Cl 12)     -5.02  0.000018   -0.06     -5.08   
    55. D(O  14,C  13,C   9,Cl 11)   -123.70 -0.000005   -0.05   -123.75   
    56. D(O  14,C  13,C   9,Cl 10)    112.62  0.000022   -0.06    112.56   
    57. D(N   0,C  13,C   9,Cl 12)    175.10  0.000008   -0.03    175.07   
    58. D(N   0,C  13,C   9,Cl 11)     56.42 -0.000015   -0.03     56.40   
    59. D(N   0,C  13,C   9,Cl 10)    -67.26  0.000012   -0.04    -67.29   
    60. D(O  14,C  13,N   0,C   5)      2.98  0.000001    0.02      2.99   
    ----------------------------------------------------------------------------
                 *******************************************************
                 *** FINAL ENERGY EVALUATION AT THE STATIONARY POINT ***
                 ***               (AFTER    1 CYCLES)               ***
                 *******************************************************
      -----------------------------------------------------------      
     |                   =====================                   |     
     |                           x T B                           |     
     |                   =====================                   |     
     |                         S. Grimme                         |     
     |          Mulliken Center for Theoretical Chemistry        |     
     |                    University of Bonn                     |     
      -----------------------------------------------------------      

   * xtb version 6.3.1 (461a024) compiled by 'schneider@apollo14' on 2020-06-26

   xtb is free software: you can redistribute it and/or modify it under
   the terms of the GNU Lesser General Public License as published by
   the Free Software Foundation, either version 3 of the License, or
   (at your option) any later version.
   
   xtb is distributed in the hope that it will be useful,
   but WITHOUT ANY WARRANTY; without even the implied warranty of
   MERCHANTABILITY or FITNESS FOR A PARTICULAR PURPOSE.  See the
   GNU Lesser General Public License for more details.
   
   Cite this work as:
   * S. Grimme, C. Bannwarth, P. Shushkov, J. Chem. Theory Comput., 2017,
     13, 1989-2009. DOI: 10.1021/acs.jctc.7b00118
   * C. Bannwarth, S. Ehlert and S. Grimme., J. Chem. Theory Comput., 2019,
     15, 1652-1671. DOI: 10.1021/acs.jctc.8b01176
   * P. Pracht, E. Caldeweyher, S. Ehlert, S. Grimme, ChemRxiv, 2019, preprint.
     DOI: 10.26434/chemrxiv.8326202.v1
   
   for GFN-FF:
   * S. Spicher and S. Grimme, Angew. Chem. Int. Ed., 2020,
     DOI: 10.1002/anie.202004239
   
   for DFT-D4:
   * E. Caldeweyher, C. Bannwarth and S. Grimme, J. Chem. Phys., 2017,
     147, 034112. DOI: 10.1063/1.4993215
   * E. Caldeweyher, S. Ehlert, A. Hansen, H. Neugebauer, S. Spicher,
     C. Bannwarth and S. Grimme, J. Chem. Phys., 2019, 150, 154122.
     DOI: 10.1063/1.5090222
   
   for sTDA-xTB:
   * S. Grimme and C. Bannwarth, J. Chem. Phys., 2016, 145, 054103.
     DOI: 10.1063/1.4959605
   
   in the mass-spec context:
   * V. Asgeirsson, C. Bauer and S. Grimme, Chem. Sci., 2017, 8, 4879.
     DOI: 10.1039/c7sc00601b
   * J. Koopman and S. Grimme, ACS Omega 2019, 4, 12, 15120-15133.
     DOI: 10.1021/acsomega.9b02011
   
   for metadynamics refer to:
   * S. Grimme, J. Chem. Theory Comput., 2019, 155, 2847-2862
     DOI: 10.1021/acs.jctc.9b00143
   
   with help from (in alphabetical order)
   C. Bannwarth, F. Bohle, G. Brandenburg, E. Caldeweyher, M. Checinski,
   S. Dohm, S. Ehlert, S. Ehrlich, F. März, H. Neugebauer, J. Pisarek,
   P. Pracht, P. Shushkov, and S. Spicher.
   
 * started run on 2020/07/06 at 12:38:31.850     

           -------------------------------------------------
          |                Calculation Setup                |
           -------------------------------------------------

          program call               : /opt/orca/otool_xtb dmtca_reactant_XTB.xyz --grad -c 0 -u 0 -P 8 --namespace dmtca_reactant --gbsa H2O
          calculation namespace      : dmtca_reactant
          coordinate file            : dmtca_reactant_XTB.xyz
          omp threads                :                     8
          number of atoms            :                    15
          number of electrons        :                    54
          charge                     :                     0
          spin                       :                   0.0
          first test random number   :      0.70957964363313

   ID    Z sym.   atoms
    1    7 N      1
    2    6 C      2, 6, 10, 14
    3    1 H      3-5, 7-9
    4   17 Cl     11-13
    5    8 O      15
########################################################################
[WARNING] Please study the warnings concerning your input carefully
-1- prog_main_parseArguments: Process number higher than OMP_NUM_THREADS, I hope you know what you are doing.
########################################################################

           -------------------------------------------------
          |                 G F N 2 - x T B                 |
           -------------------------------------------------

        Reference                      10.1021/acs.jctc.8b01176
      * Hamiltonian:
        H0-scaling (s, p, d)           1.850000    2.230000    2.230000
        zeta-weighting                 0.500000
      * Dispersion:
        s8                             2.700000
        a1                             0.520000
        a2                             5.000000
        s9                             5.000000
      * Repulsion:
        kExp                           1.500000    1.000000
        rExp                           1.000000
      * Coulomb:
        alpha                          2.000000
        third order                    shell-resolved
        anisotropic                    true
        a3                             3.000000
        a5                             4.000000
        cn-shift                       1.200000
        cn-exp                         4.000000
        max-rad                        5.000000

      * Solvation model:               GBSA
        Solvent                        H2O
        Parameter file                 internal GFN2-xTB/GBSA
        Dielectric constant                8.0200E+01
        Reference state                gsolv [1 M gas/solution]
        Free energy shift                  1.8574E-03 Eh       1.1656E+00 kcal/mol
        Temperature                        2.9815E+02 K
        Density                            1.0000E+00 kg/L
        Solvent mass                       1.8000E+01 g/mol
        Interaction kernel             Still
        Born radius scaling (c1)           1.5524E+00
        Born radii integrator          GBOBC
        Born offset                        2.4628E-02 a0       4.6540E-02 AA
        H-bond correction              true
        Ion screening                  false
        Surface tension                    1.0000E-05 Eh       1.5569E+01 dyn/cm
        Grid points                               230 per atom
q/qsh data taken from xtbrestart
CAMM data taken from xtbrestart

          ...................................................
          :                      SETUP                      :
          :.................................................:
          :  # basis functions                  60          :
          :  # atomic orbitals                  57          :
          :  # shells                           27          :
          :  # electrons                        54          :
          :  max. iterations                   250          :
          :  Hamiltonian                  GFN2-xTB          :
          :  restarted?                       true          :
          :  GBSA solvation                   true          :
          :  PC potential                    false          :
          :  electronic temp.          300.0000000     K    :
          :  accuracy                    1.0000000          :
          :  -> integral cutoff          0.2500000E+02      :
          :  -> integral neglect         0.1000000E-07      :
          :  -> SCF convergence          0.1000000E-05 Eh   :
          :  -> wf. convergence          0.1000000E-03 e    :
          :  Broyden damping             0.4000000          :
          ...................................................

 iter      E             dE          RMSdq      gap      omega  full diag
   1    -32.4893525 -0.324894E+02  0.465E-03    4.29       0.0  T
   2    -32.4893525 -0.319874E-08  0.278E-03    4.29       9.3  T
   3    -32.4893525 -0.497295E-09  0.557E-04    4.29      46.3  T
   4    -32.4893525 -0.186136E-08  0.391E-04    4.29      66.0  T

   *** convergence criteria satisfied after 4 iterations ***

         #    Occupation            Energy/Eh            Energy/eV
      -------------------------------------------------------------
         1        2.0000           -1.0951721             -29.8011
       ...           ...                  ...                  ...
        21        2.0000           -0.4695596             -12.7774
        22        2.0000           -0.4592473             -12.4968
        23        2.0000           -0.4553983             -12.3920
        24        2.0000           -0.4509004             -12.2696
        25        2.0000           -0.4498798             -12.2419
        26        2.0000           -0.4263264             -11.6009
        27        2.0000           -0.4132324             -11.2446 (HOMO)
        28                         -0.2554051              -6.9499 (LUMO)
        29                         -0.2411841              -6.5630
        30                         -0.1905982              -5.1864
        31                         -0.1646357              -4.4800
        32                         -0.0585024              -1.5919
       ...                                ...                  ...
        57                          0.5725247              15.5792
      -------------------------------------------------------------
                  HL-Gap            0.1578273 Eh            4.2947 eV
             Fermi-level           -0.3343187 Eh           -9.0973 eV

 SCC (total)                   0 d,  0 h,  0 min,  0.068 sec
 SCC setup                      ...        0 min,  0.004 sec (  6.043%)
 Dispersion                     ...        0 min,  0.004 sec (  6.115%)
 classical contributions        ...        0 min,  0.004 sec (  5.995%)
 integral evaluation            ...        0 min,  0.010 sec ( 14.185%)
 iterations                     ...        0 min,  0.009 sec ( 13.364%)
 molecular gradient             ...        0 min,  0.037 sec ( 53.926%)
 printout                       ...        0 min,  0.000 sec (  0.339%)

         :::::::::::::::::::::::::::::::::::::::::::::::::::::
         ::                     SUMMARY                     ::
         :::::::::::::::::::::::::::::::::::::::::::::::::::::
         :: total energy             -32.279437209608 Eh    ::
         :: total w/o Gsasa/hb       -32.278205842897 Eh    ::
         :: gradient norm              0.000414366382 Eh/a0 ::
         :: HOMO-LUMO gap              4.294699694439 eV    ::
         ::.................................................::
         :: SCC energy               -32.489352504635 Eh    ::
         :: -> isotropic ES            0.059662297873 Eh    ::
         :: -> anisotropic ES         -0.006033873071 Eh    ::
         :: -> anisotropic XC          0.002696076552 Eh    ::
         :: -> dispersion             -0.015269296564 Eh    ::
         :: -> Gsolv                  -0.013587908158 Eh    ::
         ::    -> Gborn               -0.012356541447 Eh    ::
         ::    -> Gsasa               -0.001277967806 Eh    ::
         ::    -> Ghb                 -0.001810842031 Eh    ::
         ::    -> Gshift               0.001857443127 Eh    ::
         :: repulsion energy           0.209855098723 Eh    ::
         :: add. restraining           0.000000000000 Eh    ::
         :::::::::::::::::::::::::::::::::::::::::::::::::::::

           -------------------------------------------------
          |                Property Printout                |
           -------------------------------------------------

    * Orbital Energies and Occupations

         #    Occupation            Energy/Eh            Energy/eV
      -------------------------------------------------------------
         1        2.0000           -1.0951721             -29.8011
       ...           ...                  ...                  ...
        15        2.0000           -0.5252286             -14.2922
        16        2.0000           -0.5165041             -14.0548
        17        2.0000           -0.4942821             -13.4501
        18        2.0000           -0.4881405             -13.2830
        19        2.0000           -0.4777082             -12.9991
        20        2.0000           -0.4708634             -12.8128
        21        2.0000           -0.4695596             -12.7774
        22        2.0000           -0.4592473             -12.4968
        23        2.0000           -0.4553983             -12.3920
        24        2.0000           -0.4509004             -12.2696
        25        2.0000           -0.4498798             -12.2419
        26        2.0000           -0.4263264             -11.6009
        27        2.0000           -0.4132324             -11.2446 (HOMO)
        28                         -0.2554051              -6.9499 (LUMO)
        29                         -0.2411841              -6.5630
        30                         -0.1905982              -5.1864
        31                         -0.1646357              -4.4800
        32                         -0.0585024              -1.5919
        33                         -0.0241953              -0.6584
        34                         -0.0231627              -0.6303
        35                         -0.0226581              -0.6166
        36                         -0.0213423              -0.5808
        37                         -0.0210721              -0.5734
        38                         -0.0208054              -0.5661
       ...                                ...                  ...
        57                          0.5725247              15.5792
      -------------------------------------------------------------
                  HL-Gap            0.1578273 Eh            4.2947 eV
             Fermi-level           -0.3343187 Eh           -9.0973 eV

     #   Z        covCN         q      C6AA      α(0)
     1   7 N      2.729    -0.032    21.872     6.946
     2   6 C      3.698    -0.095    22.490     6.783
     3   1 H      0.925     0.089     1.888     2.149
     4   1 H      0.924     0.096     1.824     2.112
     5   1 H      0.925     0.106     1.731     2.058
     6   6 C      3.713    -0.079    22.140     6.723
     7   1 H      0.925     0.089     1.889     2.149
     8   1 H      0.925     0.091     1.873     2.140
     9   1 H      0.925     0.095     1.829     2.115
    10   6 C      3.639     0.202    17.735     6.057
    11  17 Cl     1.222    -0.112   102.677    15.503
    12  17 Cl     1.226    -0.102   102.373    15.480
    13  17 Cl     1.276    -0.131   103.271    15.547
    14   6 C      2.839     0.262    22.592     7.789
    15   8 O      0.861    -0.478    23.298     6.472

 Mol. C6AA /au·bohr⁶  :       4404.501105
 Mol. C8AA /au·bohr⁸  :     134643.666870
 Mol. α(0) /au        :        100.022628


Wiberg/Mayer (AO) data.
largest (>0.10) Wiberg bond orders for each atom
          total WBO             WBO to atom ...
     1  N   3.586        C   14 1.359    C    2 0.986    C    6 0.979    O   15 0.223
     2  C   3.938        N    1 0.986    H    3 0.970    H    5 0.970    H    4 0.964
     3  H   0.992        C    2 0.970
     4  H   0.991        C    2 0.964
     5  H   0.989        C    2 0.970
     6  C   3.941        N    1 0.979    H    7 0.975    H    9 0.970    H    8 0.969
     7  H   0.992        C    6 0.975
     8  H   0.992        C    6 0.969
     9  H   0.990        C    6 0.970
    10  C   3.888        Cl  13 0.971    Cl  12 0.971    Cl  11 0.958    C   14 0.899
    11  Cl  1.099        C   10 0.958
    12  Cl  1.101        C   10 0.971
    13  Cl  1.080        C   10 0.971
    14  C   3.967        O   15 1.600    N    1 1.359    C   10 0.899
    15  O   1.976        C   14 1.600    N    1 0.223
Topologies differ in total number of bonds
Writing topology from bond orders to xtbtopo.mol

molecular dipole:
                 x           y           z       tot (Debye)
 q only:        2.496      -1.356      -0.244
   full:        1.920      -1.068      -0.198       5.608
molecular quadrupole (traceless):
                xx          xy          yy          xz          yz          zz
 q only:       -1.727      -1.507       1.153      -4.153       2.757       0.573
  q+dip:        2.486      -1.516      -2.913      -3.853       4.086       0.427
   full:        1.966      -1.759      -2.651      -3.421       4.279       0.685


           -------------------------------------------------
          | TOTAL ENERGY              -32.279437209608 Eh   |
          | GRADIENT NORM               0.000414366382 Eh/α |
          | HOMO-LUMO GAP               4.294699694439 eV   |
           -------------------------------------------------

------------------------------------------------------------------------
 * finished run on 2020/07/06 at 12:38:32.004     
------------------------------------------------------------------------
 total:
 * wall-time:     0 d,  0 h,  0 min,  0.154 sec
 *  cpu-time:     0 d,  0 h,  0 min,  1.769 sec
 * ratio c/w:    11.500 speedup
 SCF:
 * wall-time:     0 d,  0 h,  0 min,  0.074 sec
 *  cpu-time:     0 d,  0 h,  0 min,  0.843 sec
 * ratio c/w:    11.426 speedup


-------------------------   --------------------
FINAL SINGLE POINT ENERGY       -32.279437209610
-------------------------   --------------------

                                *** OPTIMIZATION RUN DONE ***

---------------------------------------------------------------
                        PRODUCT OPTIMIZATION            
---------------------------------------------------------------

Geometry optimization settings:
Update method            Update   .... BFGS
Choice of coordinates    CoordSys .... Z-matrix Internals
Initial Hessian          InHess   .... Almoef's Model

Convergence Tolerances:
Energy Change            TolE     ....  5.0000e-06 Eh
Max. Gradient            TolMAXG  ....  3.0000e-04 Eh/bohr
RMS Gradient             TolRMSG  ....  1.0000e-04 Eh/bohr
Max. Displacement        TolMAXD  ....  4.0000e-03 bohr
RMS Displacement         TolRMSD  ....  2.0000e-03 bohr
Strict Convergence                ....  False
------------------------------------------------------------------------------
                        ORCA OPTIMIZATION COORDINATE SETUP
------------------------------------------------------------------------------

The optimization will be done in new redundant internal coordinates
Making redundant internal coordinates   ...  (new redundants) done
Evaluating the initial hessian          ...  (Almloef) done
Evaluating the coordinates              ...  done
Calculating the B-matrix                .... done
Calculating the G-matrix                .... done
Diagonalizing the G-matrix              .... done
Small eigenvalue found = 2.297e-02
The first mode is                       ....   21
The number of degrees of freedom        ....   39

    -----------------------------------------------------------------
                    Redundant Internal Coordinates


    -----------------------------------------------------------------
         Definition                    Initial Value    Approx d2E/dq
    -----------------------------------------------------------------
      1. B(C   1,N   0)                  1.4469         0.453994   
      2. B(H   2,C   1)                  1.0840         0.368118   
      3. B(H   3,C   1)                  1.0917         0.357810   
      4. B(H   4,C   1)                  1.0893         0.361079   
      5. B(C   5,N   0)                  1.4521         0.445477   
      6. B(H   6,C   5)                  1.0871         0.363967   
      7. B(H   7,C   5)                  1.0899         0.360243   
      8. B(H   8,C   5)                  1.0893         0.361083   
      9. B(Cl 10,C   9)                  1.7785         0.336489   
     10. B(Cl 11,C   9)                  1.7662         0.351968   
     11. B(Cl 12,C   9)                  1.7825         0.331480   
     12. B(C  13,C   9)                  1.5549         0.340909   
     13. B(C  13,N   0)                  1.3248         0.711168   
     14. B(O  14,C  13)                  1.2238         1.030462   
     15. A(C   5,N   0,C  13)          118.2292         0.413875   
     16. A(C   1,N   0,C  13)          128.0326         0.415270   
     17. A(C   1,N   0,C   5)          113.6713         0.382493   
     18. A(H   2,C   1,H   3)          109.1549         0.291555   
     19. A(N   0,C   1,H   2)          112.1937         0.334131   
     20. A(H   2,C   1,H   4)          108.6318         0.291973   
     21. A(H   3,C   1,H   4)          108.8949         0.290672   
     22. A(N   0,C   1,H   3)          110.0697         0.332560   
     23. A(N   0,C   1,H   4)          107.8260         0.333062   
     24. A(H   7,C   5,H   8)          109.5365         0.290982   
     25. A(H   6,C   5,H   8)          109.7324         0.291453   
     26. A(N   0,C   5,H   8)          109.2336         0.332018   
     27. A(H   6,C   5,H   7)          109.3363         0.291346   
     28. A(N   0,C   5,H   7)          109.7393         0.331890   
     29. A(N   0,C   5,H   6)          109.2494         0.332456   
     30. A(Cl 10,C   9,Cl 12)          107.4097         0.380737   
     31. A(Cl 10,C   9,Cl 11)          110.3106         0.384724   
     32. A(Cl 12,C   9,C  13)          108.4051         0.365642   
     33. A(Cl 11,C   9,C  13)          112.0436         0.369423   
     34. A(Cl 10,C   9,C  13)          110.8180         0.366583   
     35. A(Cl 11,C   9,Cl 12)          107.6723         0.383722   
     36. A(C   9,C  13,O  14)          117.1490         0.424321   
     37. A(N   0,C  13,O  14)          124.6544         0.481780   
     38. A(N   0,C  13,C   9)          118.1964         0.397324   
     39. D(H   3,C   1,N   0,C   5)     80.5245         0.017587   
     40. D(H   4,C   1,N   0,C   5)    -38.1373         0.017587   
     41. D(H   4,C   1,N   0,C  13)    144.9231         0.017587   
     42. D(H   2,C   1,N   0,C   5)   -157.7172         0.017587   
     43. D(H   2,C   1,N   0,C  13)     25.3432         0.017587   
     44. D(H   3,C   1,N   0,C  13)    -96.4151         0.017587   
     45. D(H   6,C   5,N   0,C   1)   -172.8770         0.016925   
     46. D(H   8,C   5,N   0,C  13)    124.4270         0.016925   
     47. D(H   7,C   5,N   0,C  13)   -115.4750         0.016925   
     48. D(H   7,C   5,N   0,C   1)     67.2607         0.016925   
     49. D(H   8,C   5,N   0,C   1)    -52.8373         0.016925   
     50. D(H   6,C   5,N   0,C  13)      4.3874         0.016925   
     51. D(O  14,C  13,N   0,C   1)      0.0000         0.041988   
     52. D(C   9,C  13,N   0,C   5)      3.0499         0.041988   
     53. D(C   9,C  13,N   0,C   1)    179.8686         0.041988   
     54. D(O  14,C  13,C   9,Cl 12)     -5.0184         0.008826   
     55. D(O  14,C  13,C   9,Cl 11)   -123.6978         0.008826   
     56. D(O  14,C  13,C   9,Cl 10)    112.6192         0.008826   
     57. D(N   0,C  13,C   9,Cl 12)    175.1031         0.008826   
     58. D(N   0,C  13,C   9,Cl 11)     56.4237         0.008826   
     59. D(N   0,C  13,C   9,Cl 10)    -67.2593         0.008826   
     60. D(O  14,C  13,N   0,C   5)   -176.8186         0.041988   
    -----------------------------------------------------------------

Number of atoms                         .... 15
Number of degrees of freedom            .... 60

         *************************************************************
         *                GEOMETRY OPTIMIZATION CYCLE   1            *
         *************************************************************
      -----------------------------------------------------------      
     |                   =====================                   |     
     |                           x T B                           |     
     |                   =====================                   |     
     |                         S. Grimme                         |     
     |          Mulliken Center for Theoretical Chemistry        |     
     |                    University of Bonn                     |     
      -----------------------------------------------------------      

   * xtb version 6.3.1 (461a024) compiled by 'schneider@apollo14' on 2020-06-26

   xtb is free software: you can redistribute it and/or modify it under
   the terms of the GNU Lesser General Public License as published by
   the Free Software Foundation, either version 3 of the License, or
   (at your option) any later version.
   
   xtb is distributed in the hope that it will be useful,
   but WITHOUT ANY WARRANTY; without even the implied warranty of
   MERCHANTABILITY or FITNESS FOR A PARTICULAR PURPOSE.  See the
   GNU Lesser General Public License for more details.
   
   Cite this work as:
   * S. Grimme, C. Bannwarth, P. Shushkov, J. Chem. Theory Comput., 2017,
     13, 1989-2009. DOI: 10.1021/acs.jctc.7b00118
   * C. Bannwarth, S. Ehlert and S. Grimme., J. Chem. Theory Comput., 2019,
     15, 1652-1671. DOI: 10.1021/acs.jctc.8b01176
   * P. Pracht, E. Caldeweyher, S. Ehlert, S. Grimme, ChemRxiv, 2019, preprint.
     DOI: 10.26434/chemrxiv.8326202.v1
   
   for GFN-FF:
   * S. Spicher and S. Grimme, Angew. Chem. Int. Ed., 2020,
     DOI: 10.1002/anie.202004239
   
   for DFT-D4:
   * E. Caldeweyher, C. Bannwarth and S. Grimme, J. Chem. Phys., 2017,
     147, 034112. DOI: 10.1063/1.4993215
   * E. Caldeweyher, S. Ehlert, A. Hansen, H. Neugebauer, S. Spicher,
     C. Bannwarth and S. Grimme, J. Chem. Phys., 2019, 150, 154122.
     DOI: 10.1063/1.5090222
   
   for sTDA-xTB:
   * S. Grimme and C. Bannwarth, J. Chem. Phys., 2016, 145, 054103.
     DOI: 10.1063/1.4959605
   
   in the mass-spec context:
   * V. Asgeirsson, C. Bauer and S. Grimme, Chem. Sci., 2017, 8, 4879.
     DOI: 10.1039/c7sc00601b
   * J. Koopman and S. Grimme, ACS Omega 2019, 4, 12, 15120-15133.
     DOI: 10.1021/acsomega.9b02011
   
   for metadynamics refer to:
   * S. Grimme, J. Chem. Theory Comput., 2019, 155, 2847-2862
     DOI: 10.1021/acs.jctc.9b00143
   
   with help from (in alphabetical order)
   C. Bannwarth, F. Bohle, G. Brandenburg, E. Caldeweyher, M. Checinski,
   S. Dohm, S. Ehlert, S. Ehrlich, F. März, H. Neugebauer, J. Pisarek,
   P. Pracht, P. Shushkov, and S. Spicher.
   
 * started run on 2020/07/06 at 12:38:32.246     

           -------------------------------------------------
          |                Calculation Setup                |
           -------------------------------------------------

          program call               : /opt/orca/otool_xtb dmtca_product_XTB.xyz --grad -c 0 -u 0 -P 8 --namespace dmtca_product --gbsa H2O
          calculation namespace      : dmtca_product
          coordinate file            : dmtca_product_XTB.xyz
          omp threads                :                     8
          number of atoms            :                    15
          number of electrons        :                    54
          charge                     :                     0
          spin                       :                   0.0
          first test random number   :      0.42430177823591

   ID    Z sym.   atoms
    1    7 N      1
    2    6 C      2, 6, 10, 14
    3    1 H      3-5, 7-9
    4   17 Cl     11-13
    5    8 O      15
########################################################################
[WARNING] Please study the warnings concerning your input carefully
-1- prog_main_parseArguments: Process number higher than OMP_NUM_THREADS, I hope you know what you are doing.
########################################################################

           -------------------------------------------------
          |                 G F N 2 - x T B                 |
           -------------------------------------------------

        Reference                      10.1021/acs.jctc.8b01176
      * Hamiltonian:
        H0-scaling (s, p, d)           1.850000    2.230000    2.230000
        zeta-weighting                 0.500000
      * Dispersion:
        s8                             2.700000
        a1                             0.520000
        a2                             5.000000
        s9                             5.000000
      * Repulsion:
        kExp                           1.500000    1.000000
        rExp                           1.000000
      * Coulomb:
        alpha                          2.000000
        third order                    shell-resolved
        anisotropic                    true
        a3                             3.000000
        a5                             4.000000
        cn-shift                       1.200000
        cn-exp                         4.000000
        max-rad                        5.000000

      * Solvation model:               GBSA
        Solvent                        H2O
        Parameter file                 internal GFN2-xTB/GBSA
        Dielectric constant                8.0200E+01
        Reference state                gsolv [1 M gas/solution]
        Free energy shift                  1.8574E-03 Eh       1.1656E+00 kcal/mol
        Temperature                        2.9815E+02 K
        Density                            1.0000E+00 kg/L
        Solvent mass                       1.8000E+01 g/mol
        Interaction kernel             Still
        Born radius scaling (c1)           1.5524E+00
        Born radii integrator          GBOBC
        Born offset                        2.4628E-02 a0       4.6540E-02 AA
        H-bond correction              true
        Ion screening                  false
        Surface tension                    1.0000E-05 Eh       1.5569E+01 dyn/cm
        Grid points                               230 per atom
q/qsh data taken from xtbrestart
CAMM data taken from xtbrestart

          ...................................................
          :                      SETUP                      :
          :.................................................:
          :  # basis functions                  60          :
          :  # atomic orbitals                  57          :
          :  # shells                           27          :
          :  # electrons                        54          :
          :  max. iterations                   250          :
          :  Hamiltonian                  GFN2-xTB          :
          :  restarted?                       true          :
          :  GBSA solvation                   true          :
          :  PC potential                    false          :
          :  electronic temp.          300.0000000     K    :
          :  accuracy                    1.0000000          :
          :  -> integral cutoff          0.2500000E+02      :
          :  -> integral neglect         0.1000000E-07      :
          :  -> SCF convergence          0.1000000E-05 Eh   :
          :  -> wf. convergence          0.1000000E-03 e    :
          :  Broyden damping             0.4000000          :
          ...................................................

 iter      E             dE          RMSdq      gap      omega  full diag
   1    -32.4719572 -0.324720E+02  0.542E+00    4.48       0.0  T
   2    -32.4745423 -0.258513E-02  0.321E+00    4.33       1.0  T
   3    -32.4747957 -0.253396E-03  0.330E-01    4.34       1.0  T
   4    -32.4754904 -0.694738E-03  0.207E-01    4.26       1.0  T
   5    -32.4755835 -0.930845E-04  0.144E-01    4.29       1.0  T
   6    -32.4756662 -0.826916E-04  0.752E-02    4.29       1.0  T
   7    -32.4756881 -0.218597E-04  0.524E-02    4.28       1.0  T
   8    -32.4757053 -0.172323E-04  0.225E-02    4.28       1.1  T
   9    -32.4757077 -0.245254E-05  0.161E-02    4.28       1.6  T
  10    -32.4757095 -0.170951E-05  0.104E-02    4.28       2.5  T
  11    -32.4757104 -0.942949E-06  0.501E-03    4.28       5.2  T
  12    -32.4757106 -0.168247E-06  0.278E-03    4.28       9.3  T
  13    -32.4757106 -0.419792E-07  0.136E-03    4.28      18.9  T
  14    -32.4757106 -0.108683E-07  0.611E-04    4.28      42.2  T
  15    -32.4757106 -0.199771E-08  0.253E-04    4.28     101.9  T

   *** convergence criteria satisfied after 15 iterations ***

         #    Occupation            Energy/Eh            Energy/eV
      -------------------------------------------------------------
         1        2.0000           -1.0962497             -29.8305
       ...           ...                  ...                  ...
        21        2.0000           -0.4706387             -12.8067
        22        2.0000           -0.4567803             -12.4296
        23        2.0000           -0.4552766             -12.3887
        24        2.0000           -0.4514950             -12.2858
        25        2.0000           -0.4451289             -12.1126
        26        2.0000           -0.4257487             -11.5852
        27        2.0000           -0.4124979             -11.2246 (HOMO)
        28                         -0.2552645              -6.9461 (LUMO)
        29                         -0.2423508              -6.5947
        30                         -0.1915651              -5.2128
        31                         -0.1657860              -4.5113
        32                         -0.0645203              -1.7557
       ...                                ...                  ...
        57                          0.5798753              15.7792
      -------------------------------------------------------------
                  HL-Gap            0.1572333 Eh            4.2785 eV
             Fermi-level           -0.3338812 Eh           -9.0854 eV

 SCC (total)                   0 d,  0 h,  0 min,  0.079 sec
 SCC setup                      ...        0 min,  0.004 sec (  4.582%)
 Dispersion                     ...        0 min,  0.003 sec (  4.090%)
 classical contributions        ...        0 min,  0.002 sec (  2.579%)
 integral evaluation            ...        0 min,  0.010 sec ( 13.108%)
 iterations                     ...        0 min,  0.024 sec ( 30.597%)
 molecular gradient             ...        0 min,  0.034 sec ( 43.148%)
 printout                       ...        0 min,  0.001 sec (  1.863%)

         :::::::::::::::::::::::::::::::::::::::::::::::::::::
         ::                     SUMMARY                     ::
         :::::::::::::::::::::::::::::::::::::::::::::::::::::
         :: total energy             -32.265886517470 Eh    ::
         :: total w/o Gsasa/hb       -32.264702238472 Eh    ::
         :: gradient norm              0.041853819441 Eh/a0 ::
         :: HOMO-LUMO gap              4.278537193367 eV    ::
         ::.................................................::
         :: SCC energy               -32.475710622370 Eh    ::
         :: -> isotropic ES            0.061031193788 Eh    ::
         :: -> anisotropic ES         -0.005697870399 Eh    ::
         :: -> anisotropic XC          0.003086334659 Eh    ::
         :: -> dispersion             -0.015427188835 Eh    ::
         :: -> Gsolv                  -0.013871801691 Eh    ::
         ::    -> Gborn               -0.012687522692 Eh    ::
         ::    -> Gsasa               -0.001179125663 Eh    ::
         ::    -> Ghb                 -0.001862596462 Eh    ::
         ::    -> Gshift               0.001857443127 Eh    ::
         :: repulsion energy           0.209769270394 Eh    ::
         :: add. restraining           0.000000000000 Eh    ::
         :::::::::::::::::::::::::::::::::::::::::::::::::::::

           -------------------------------------------------
          |                Property Printout                |
           -------------------------------------------------

    * Orbital Energies and Occupations

         #    Occupation            Energy/Eh            Energy/eV
      -------------------------------------------------------------
         1        2.0000           -1.0962497             -29.8305
       ...           ...                  ...                  ...
        15        2.0000           -0.5259392             -14.3115
        16        2.0000           -0.5163639             -14.0510
        17        2.0000           -0.4976286             -13.5412
        18        2.0000           -0.4891236             -13.3097
        19        2.0000           -0.4792557             -13.0412
        20        2.0000           -0.4717314             -12.8365
        21        2.0000           -0.4706387             -12.8067
        22        2.0000           -0.4567803             -12.4296
        23        2.0000           -0.4552766             -12.3887
        24        2.0000           -0.4514950             -12.2858
        25        2.0000           -0.4451289             -12.1126
        26        2.0000           -0.4257487             -11.5852
        27        2.0000           -0.4124979             -11.2246 (HOMO)
        28                         -0.2552645              -6.9461 (LUMO)
        29                         -0.2423508              -6.5947
        30                         -0.1915651              -5.2128
        31                         -0.1657860              -4.5113
        32                         -0.0645203              -1.7557
        33                         -0.0297553              -0.8097
        34                         -0.0261002              -0.7102
        35                         -0.0249723              -0.6795
        36                         -0.0239714              -0.6523
        37                         -0.0235120              -0.6398
        38                         -0.0230393              -0.6269
       ...                                ...                  ...
        57                          0.5798753              15.7792
      -------------------------------------------------------------
                  HL-Gap            0.1572333 Eh            4.2785 eV
             Fermi-level           -0.3338812 Eh           -9.0854 eV

     #   Z        covCN         q      C6AA      α(0)
     1   7 N      2.729    -0.031    21.843     6.941
     2   6 C      3.698    -0.074    22.088     6.722
     3   1 H      0.925     0.084     1.934     2.175
     4   1 H      0.924     0.090     1.884     2.146
     5   1 H      0.925     0.102     1.767     2.079
     6   6 C      3.718    -0.114    22.802     6.821
     7   1 H      0.929     0.098     1.801     2.098
     8   1 H      0.925     0.096     1.821     2.110
     9   1 H      0.925     0.100     1.785     2.089
    10   6 C      3.639     0.202    17.734     6.057
    11  17 Cl     1.225    -0.105   102.465    15.487
    12  17 Cl     1.232    -0.098   102.233    15.469
    13  17 Cl     1.276    -0.128   103.174    15.540
    14   6 C      2.839     0.261    22.607     7.792
    15   8 O      0.861    -0.484    23.427     6.489

 Mol. C6AA /au·bohr⁶  :       4404.559157
 Mol. C8AA /au·bohr⁸  :     134643.397931
 Mol. α(0) /au        :        100.016128


Wiberg/Mayer (AO) data.
largest (>0.10) Wiberg bond orders for each atom
          total WBO             WBO to atom ...
     1  N   3.586        C   14 1.361    C    6 0.983    C    2 0.982    O   15 0.223
     2  C   3.941        N    1 0.982    H    3 0.977    H    5 0.970    H    4 0.966
     3  H   0.993        C    2 0.977
     4  H   0.992        C    2 0.966
     5  H   0.989        C    2 0.970
     6  C   3.936        N    1 0.983    H    9 0.968    H    8 0.968    H    7 0.952
     7  H   0.990        C    6 0.952
     8  H   0.991        C    6 0.968
     9  H   0.990        C    6 0.968
    10  C   3.889        Cl  13 0.973    Cl  12 0.966    Cl  11 0.956    C   14 0.898
    11  Cl  1.110        C   10 0.956
    12  Cl  1.115        C   10 0.966
    13  Cl  1.082        C   10 0.973
    14  C   3.967        O   15 1.600    N    1 1.361    C   10 0.898
    15  O   1.970        C   14 1.600    N    1 0.223
Topologies differ in total number of bonds
[...]
     40      -0.069599   0.021837  -0.001991  -0.000518  -0.001356   0.002789
     41      -0.014599   0.016039  -0.000361  -0.010650  -0.000327   0.000484
     42       0.005508  -0.009660  -0.000072   0.002022   0.000084  -0.000163
     43       0.012047   0.014068  -0.000225  -0.003073   0.000259  -0.000803
     44       0.007103  -0.049904  -0.000143   0.011062   0.000074  -0.000001
                 36         37         38         39         40         41    
      0       0.020898  -0.012292  -0.060220  -0.000667  -0.003956   0.001250
      1      -0.002973   0.006512   0.022932  -0.004207  -0.000375   0.000592
      2      -0.011234  -0.014393  -0.033435  -0.001361   0.003979   0.000640
      3       0.029844  -0.022695  -0.002801   0.008454  -0.005102   0.006905
      4       0.026667   0.006396   0.014343   0.013128  -0.009568  -0.023814
      5      -0.013239  -0.037314   0.005877  -0.056766   0.045990   0.014776
      6       0.201248   0.201970   0.011188  -0.024020   0.007958   0.226939
      7      -0.197596  -0.113003   0.006269  -0.016086   0.001694   0.212966
      8      -0.062516   0.455983   0.029866  -0.025311   0.023116  -0.038213
      9      -0.250446  -0.112437   0.012800   0.020533  -0.025899  -0.312431
     10      -0.185816  -0.292209  -0.077611   0.005588  -0.001088   0.095010
     11       0.367845  -0.004018  -0.077657  -0.021348   0.014755  -0.155459
     12      -0.416246   0.237383   0.057737  -0.112796   0.092175   0.000780
     13       0.055138   0.281975  -0.024791  -0.111872   0.085773  -0.011152
     14      -0.056046   0.067084   0.019376   0.753359  -0.618045   0.017799
     15       0.017445  -0.019898  -0.009362  -0.006261  -0.006280  -0.008846
     16      -0.030792   0.021177  -0.012552  -0.007057  -0.010522   0.047415
     17      -0.023620  -0.033046   0.000003   0.047488   0.056606   0.035446
     18       0.263129   0.175868   0.004519   0.010720   0.006422   0.280699
     19       0.107361  -0.189714  -0.022744  -0.031058  -0.021574  -0.687778
     20      -0.029736   0.436802   0.024700   0.009378   0.021314  -0.411708
     21      -0.395752   0.087454   0.059650   0.102619   0.128475  -0.014015
     22       0.194988  -0.362592  -0.015724   0.137836   0.174690   0.013501
     23      -0.024123  -0.078433   0.021467  -0.606400  -0.738826   0.049137
     24      -0.178463   0.037175   0.055076  -0.012640  -0.026689  -0.173139
     25       0.090052   0.279761   0.088785   0.003457   0.007132   0.085764
     26       0.428325   0.114483  -0.039951   0.020169   0.021097  -0.067504
     27      -0.000481   0.000021  -0.000163  -0.000032   0.000134   0.000017
     28       0.000146   0.000116   0.000443  -0.000069  -0.000037   0.000019
     29      -0.000071  -0.000460  -0.002596  -0.000017  -0.000010  -0.000017
     30      -0.000082   0.000032   0.000594  -0.000003   0.000005  -0.000005
     31      -0.000083  -0.000105   0.000917  -0.000003   0.000015   0.000033
     32       0.000087  -0.000021  -0.000694   0.000001  -0.000003   0.000006
     33      -0.000051   0.000080   0.000247   0.000003  -0.000001  -0.000040
     34       0.000059   0.000070  -0.000684   0.000001  -0.000013  -0.000036
     35       0.000112   0.000042  -0.001319   0.000002  -0.000012   0.000001
     36       0.000021   0.000042  -0.003350   0.000001  -0.000007   0.000013
     37      -0.000010   0.000001   0.000775  -0.000002   0.000000  -0.000005
     38      -0.000006  -0.000034   0.000541  -0.000001   0.000005   0.000005
     39      -0.003861   0.000604   0.227508  -0.000158   0.000865  -0.000098
     40      -0.000266   0.000968  -0.229052  -0.000233  -0.000424   0.000176
     41       0.005699  -0.004754   0.738240  -0.000137   0.000717  -0.000089
     42      -0.001364   0.002397  -0.115922   0.000059  -0.000230  -0.000063
     43       0.001826  -0.002205   0.150857   0.000123   0.000213   0.000013
     44      -0.006445   0.006871  -0.522753   0.000087  -0.000584  -0.000034
                  42         43         44    
      0       0.000037  -0.000416   0.003236
      1       0.002476   0.001930  -0.000223
      2       0.000322   0.000377   0.000237
      3       0.046745  -0.051254   0.046514
      4       0.045605   0.019416   0.009893
      5      -0.007359  -0.026906   0.009799
      6      -0.616639  -0.051799  -0.241754
      7      -0.609191  -0.023180  -0.253305
      8       0.127529  -0.007594   0.058514
      9       0.026302   0.701432  -0.352867
     10       0.015903  -0.234372   0.131606
     11      -0.004025   0.362049  -0.190272
     12       0.030884  -0.020907   0.024063
     13       0.023655   0.007941   0.003997
     14      -0.040941  -0.037453   0.013975
     15      -0.027720   0.025278   0.056522
     16       0.031184   0.002586  -0.034543
     17       0.003998   0.024409   0.016206
     18       0.118575   0.094722  -0.054423
     19      -0.306921  -0.210013   0.176555
     20      -0.193245  -0.115099   0.124760
     21      -0.018070   0.005975   0.024034
     22       0.010737  -0.004931  -0.025511
     23       0.018910   0.026712   0.028315
     24       0.229229  -0.415691  -0.668913
     25      -0.085470   0.172797   0.261495
     26       0.126061  -0.205115  -0.347228
     27       0.000009   0.000019  -0.000058
     28       0.000060   0.000001   0.000022
     29       0.000022  -0.000007   0.000023
     30       0.000034  -0.000000   0.000017
     31      -0.000039   0.000014  -0.000034
     32      -0.000027  -0.000007  -0.000010
     33      -0.000017  -0.000010   0.000022
     34      -0.000000  -0.000007   0.000021
     35       0.000010   0.000007   0.000010
     36      -0.000005  -0.000000  -0.000001
     37       0.000002  -0.000003   0.000000
     38      -0.000002   0.000001  -0.000008
     39       0.000131   0.000127  -0.000143
     40       0.000257   0.000320   0.000112
     41       0.000120   0.000038   0.000158
     42       0.000026   0.000014  -0.000113
     43      -0.000036  -0.000075   0.000053
     44       0.000016   0.000037  -0.000193


-----------
IR SPECTRUM  
-----------

 Mode    freq (cm**-1)   T**2         TX         TY         TZ
-------------------------------------------------------------------
   7:        13.29    0.000000  (  0.000000   0.000000   0.000000)
   8:       115.83    0.000000  (  0.000000   0.000000   0.000000)
   9:       116.76    0.000000  (  0.000000   0.000000   0.000000)
  10:       177.77    0.000000  (  0.000000   0.000000   0.000000)
  11:       190.35    0.000000  (  0.000000   0.000000   0.000000)
  12:       206.18    0.000000  (  0.000000   0.000000   0.000000)
  13:       209.19    0.000000  (  0.000000   0.000000   0.000000)
  14:       241.18    0.000000  (  0.000000   0.000000   0.000000)
  15:       244.15    0.000000  (  0.000000   0.000000   0.000000)
  16:       275.22    0.000000  (  0.000000   0.000000   0.000000)
  17:       321.90    0.000000  (  0.000000   0.000000   0.000000)
  18:       415.89    0.000000  (  0.000000   0.000000   0.000000)
  19:       423.78    0.000000  (  0.000000   0.000000   0.000000)
  20:       598.90    0.000000  (  0.000000   0.000000   0.000000)
  21:       663.13    0.000000  (  0.000000   0.000000   0.000000)
  22:       715.59    0.000000  (  0.000000   0.000000   0.000000)
  23:       763.71    0.000000  (  0.000000   0.000000   0.000000)
  24:       852.81    0.000000  (  0.000000   0.000000   0.000000)
  25:       954.80    0.000000  (  0.000000   0.000000   0.000000)
  26:      1033.10    0.000000  (  0.000000   0.000000   0.000000)
  27:      1036.50    0.000000  (  0.000000   0.000000   0.000000)
  28:      1058.35    0.000000  (  0.000000   0.000000   0.000000)
  29:      1151.53    0.000000  (  0.000000   0.000000   0.000000)
  30:      1154.34    0.000000  (  0.000000   0.000000   0.000000)
  31:      1233.89    0.000000  (  0.000000   0.000000   0.000000)
  32:      1388.64    0.000000  (  0.000000   0.000000   0.000000)
  33:      1403.67    0.000000  (  0.000000   0.000000   0.000000)
  34:      1455.59    0.000000  (  0.000000   0.000000   0.000000)
  35:      1463.48    0.000000  (  0.000000   0.000000   0.000000)
  36:      1466.97    0.000000  (  0.000000   0.000000   0.000000)
  37:      1473.69    0.000000  (  0.000000   0.000000   0.000000)
  38:      1746.96    0.000000  (  0.000000   0.000000   0.000000)
  39:      2924.50    0.000000  (  0.000000   0.000000   0.000000)
  40:      2926.53    0.000000  (  0.000000   0.000000   0.000000)
  41:      3034.47    0.000000  (  0.000000   0.000000   0.000000)
  42:      3036.06    0.000000  (  0.000000   0.000000   0.000000)
  43:      3038.62    0.000000  (  0.000000   0.000000   0.000000)
  44:      3040.75    0.000000  (  0.000000   0.000000   0.000000)

The first frequency considered to be a vibration is 7
The total number of vibrations considered is 38


--------------------------
THERMOCHEMISTRY AT 298.15K
--------------------------

Temperature         ... 298.15 K
Pressure            ... 1.00 atm
Total Mass          ... 190.46 AMU

Throughout the following assumptions are being made:
  (1) The electronic state is orbitally nondegenerate
  (2) There are no thermally accessible electronically excited states
  (3) Hindered rotations indicated by low frequency modes are not
      treated as such but are treated as vibrations and this may
      cause some error
  (4) All equations used are the standard statistical mechanics
      equations for an ideal gas
  (5) All vibrations are strictly harmonic

freq.      13.29  E(vib)   ...       0.57 
freq.     115.83  E(vib)   ...       0.44 
freq.     116.76  E(vib)   ...       0.44 
freq.     177.77  E(vib)   ...       0.37 
freq.     190.35  E(vib)   ...       0.36 
freq.     206.18  E(vib)   ...       0.35 
freq.     209.19  E(vib)   ...       0.34 
freq.     241.18  E(vib)   ...       0.31 
freq.     244.15  E(vib)   ...       0.31 
freq.     275.22  E(vib)   ...       0.28 
freq.     321.90  E(vib)   ...       0.25 
freq.     415.89  E(vib)   ...       0.18 
freq.     423.78  E(vib)   ...       0.18 
freq.     598.90  E(vib)   ...       0.10 
freq.     663.13  E(vib)   ...       0.08 
freq.     715.59  E(vib)   ...       0.07 
freq.     763.71  E(vib)   ...       0.06 
freq.     852.81  E(vib)   ...       0.04 
freq.     954.80  E(vib)   ...       0.03 
freq.    1033.10  E(vib)   ...       0.02 
freq.    1036.50  E(vib)   ...       0.02 
freq.    1058.35  E(vib)   ...       0.02 
freq.    1151.53  E(vib)   ...       0.01 
freq.    1154.34  E(vib)   ...       0.01 
freq.    1233.89  E(vib)   ...       0.01 
freq.    1388.64  E(vib)   ...       0.00 
freq.    1403.67  E(vib)   ...       0.00 
freq.    1455.59  E(vib)   ...       0.00 
freq.    1463.48  E(vib)   ...       0.00 
freq.    1466.97  E(vib)   ...       0.00 
freq.    1473.69  E(vib)   ...       0.00 
freq.    1746.96  E(vib)   ...       0.00 
freq.    2924.50  E(vib)   ...       0.00 
freq.    2926.53  E(vib)   ...       0.00 
freq.    3034.47  E(vib)   ...       0.00 
freq.    3036.06  E(vib)   ...       0.00 
freq.    3038.62  E(vib)   ...       0.00 
freq.    3040.75  E(vib)   ...       0.00 

------------
INNER ENERGY
------------

The inner energy is: U= E(el) + E(ZPE) + E(vib) + E(rot) + E(trans)
    E(el)   - is the total energy from the electronic structure calculation
              = E(kin-el) + E(nuc-el) + E(el-el) + E(nuc-nuc)
    E(ZPE)  - the the zero temperature vibrational energy from the frequency calculation
    E(vib)  - the the finite temperature correction to E(ZPE) due to population
              of excited vibrational states
    E(rot)  - is the rotational thermal energy
    E(trans)- is the translational thermal energy

Summary of contributions to the inner energy U:
Electronic energy                ...    -32.24368955 Eh
Zero point energy                ...      0.09697719 Eh      60.85 kcal/mol
Thermal vibrational correction   ...      0.00779457 Eh       4.89 kcal/mol
Thermal rotational correction    ...      0.00141627 Eh       0.89 kcal/mol
Thermal translational correction ...      0.00141627 Eh       0.89 kcal/mol
-----------------------------------------------------------------------
Total thermal energy                    -32.13608524 Eh


Summary of corrections to the electronic energy:
(perhaps to be used in another calculation)
Total thermal correction                  0.01062712 Eh       6.67 kcal/mol
Non-thermal (ZPE) correction              0.09697719 Eh      60.85 kcal/mol
-----------------------------------------------------------------------
Total correction                          0.10760430 Eh      67.52 kcal/mol


--------
ENTHALPY
--------

The enthalpy is H = U + kB*T
                kB is Boltzmann's constant
Total free energy                 ...    -32.13608524 Eh 
Thermal Enthalpy correction       ...      0.00094421 Eh       0.59 kcal/mol
-----------------------------------------------------------------------
Total Enthalpy                    ...    -32.13514103 Eh


Note: Only C1 symmetry has been detected, increase convergence thresholds 
      if your molecule has a higher symmetry. Symmetry factor of 1.0 is   
      used for the rotational entropy correction. 
 

Note: Rotational entropy computed according to Herzberg 
Infrared and Raman Spectra, Chapter V,1, Van Nostrand Reinhold, 1945 
Point Group:  C1, Symmetry Number:   1  
Rotational constants in cm-1:     0.043538     0.026180     0.025854 

Vibrational entropy computed according to the QRRHO of S. Grimme
Chem.Eur.J. 2012 18 9955


-------
ENTROPY
-------

The entropy contributions are T*S = T*(S(el)+S(vib)+S(rot)+S(trans))
     S(el)   - electronic entropy
     S(vib)  - vibrational entropy
     S(rot)  - rotational entropy
     S(trans)- translational entropy
The entropies will be listed as mutliplied by the temperature to get
units of energy

Electronic entropy                ...      0.00000000 Eh      0.00 kcal/mol
Vibrational entropy               ...      0.01419953 Eh      8.91 kcal/mol
Rotational entropy                ...      0.01443574 Eh      9.06 kcal/mol
Translational entropy             ...      0.01978368 Eh     12.41 kcal/mol
-----------------------------------------------------------------------
Final entropy term                ...      0.04841895 Eh     30.38 kcal/mol

In case the symmetry of your molecule has not been determined correctly
or in case you have a reason to use a different symmetry number we print 
out the resulting rotational entropy values for sn=1,12 :
 --------------------------------------------------------
|  sn= 1 | S(rot)=       0.01443574 Eh      9.06 kcal/mol|
|  sn= 2 | S(rot)=       0.01378128 Eh      8.65 kcal/mol|
|  sn= 3 | S(rot)=       0.01339845 Eh      8.41 kcal/mol|
|  sn= 4 | S(rot)=       0.01312682 Eh      8.24 kcal/mol|
|  sn= 5 | S(rot)=       0.01291614 Eh      8.10 kcal/mol|
|  sn= 6 | S(rot)=       0.01274399 Eh      8.00 kcal/mol|
|  sn= 7 | S(rot)=       0.01259845 Eh      7.91 kcal/mol|
|  sn= 8 | S(rot)=       0.01247237 Eh      7.83 kcal/mol|
|  sn= 9 | S(rot)=       0.01236116 Eh      7.76 kcal/mol|
|  sn=10 | S(rot)=       0.01226168 Eh      7.69 kcal/mol|
|  sn=11 | S(rot)=       0.01217169 Eh      7.64 kcal/mol|
|  sn=12 | S(rot)=       0.01208954 Eh      7.59 kcal/mol|
 --------------------------------------------------------


-------------------
GIBBS FREE ENERGY
-------------------

The Gibbs free energy is G = H - T*S

Total enthalpy                    ...    -32.13514103 Eh 
Total entropy correction          ...     -0.04841895 Eh    -30.38 kcal/mol
-----------------------------------------------------------------------
Final Gibbs free energy         ...    -32.18355998 Eh

For completeness - the Gibbs free energy minus the electronic energy
G-E(el)                           ...      0.06012956 Eh     37.73 kcal/mol


Total Time for Numerical Frequencies  :        32.663 sec



------------------------------------------------------------------------------- 
                    Intrinsic Reaction Coordinate Calculation                  
------------------------------------------------------------------------------- 

System:
Nr. of atoms                        .... 15
Algorithm: SD (steepest descent step) plus correction
Settings:
Max. no of cycles        MaxIter    .... 1000
Direction                           .... Forward and backward
Initial displacement Hessian type   .... Read
Hessian Filename                    .... dmtca_TSOpt.hess
Following Hessian mode              .... 0
Initial displacement type           .... Energy
  Initial displacement energy change.... 0.250 mEh
Coordinate system following type    .... Cartesian
Length of steepest descent step     .... 0.150 bohr
Do parabolic fit 
  if SD step is uphill              .... YES
Do Correction to SD step            .... YES
Scaling for length of correction
  compared to SD step               .... 0.333
Do parabolic fit to SD correction   .... YES
Only interpolate for parabolic fit  .... YES
Do update to length of
  SD step and correction            .... YES
Convergence Tolerances:
  Max. Gradient            TolMAXG  ....  1.6500e-03 Eh/bohr
  RMS Gradient             TolRMSG  ....  6.7200e-04 Eh/bohr
Storing full IRC trajectory in      .... dmtca_TSOpt_IRC_Full_trj.xyz
Storing forward trajectory in       .... dmtca_TSOpt_IRC_F_trj.xyz
Storing backward trajectory in      .... dmtca_TSOpt_IRC_B_trj.xyz


 ...good, the file dmtca_TSOpt.hess exists
Reading the hessian file           ...... done
Determining length of initial displacement:
  Requested energy change (quadratic behavior): 0.250 mEh
  Resulting scaling factor for initial displacement along normalized TS mode: 0.3936

         *************************************************************
         *                          FORWARD IRC                      *
         *************************************************************

Iteration    E(Eh)      dE(kcal/mol)  max(|G|)   RMS(G) 
Convergence thresholds                0.001650  0.000672            
    0       -32.243936   -0.154908    0.001716  0.000512
    1       -32.243953   -0.165032    0.001513  0.000337

                      ***********************HURRAY********************
                      ***            THE IRC HAS CONVERGED          ***
                      *************************************************


         *************************************************************
         *                          BACKWARD IRC                     *
         *************************************************************

Iteration    E(Eh)      dE(kcal/mol)  max(|G|)   RMS(G) 
Convergence thresholds                0.001650  0.000672            
    0       -32.243921   -0.145140    0.002039  0.000506
    1       -32.243937   -0.155067    0.001194  0.000333

                      ***********************HURRAY********************
                      ***            THE IRC HAS CONVERGED          ***
                      *************************************************


---------------------------------------------------------------
                       IRC PATH SUMMARY              
---------------------------------------------------------------
All gradients are in Eh/Bohr.

Step        E(Eh)      dE(kcal/mol)  max(|G|)   RMS(G) 
   1       -32.243937   -0.155067    0.001194  0.000333
   2       -32.243921   -0.145140    0.002039  0.000506
   3       -32.243690    0.000000    0.000063  0.000025 <= TS
   4       -32.243936   -0.154908    0.001716  0.000512
   5       -32.243953   -0.165032    0.001513  0.000337

Timings for individual modules:

Sum of individual times         ...       74.490 sec (=   1.241 min)
Geometry relaxation             ...        3.639 sec (=   0.061 min)   4.9 %
XTB module                      ...       11.731 sec (=   0.196 min)  15.7 %
                             ****ORCA TERMINATED NORMALLY****
TOTAL RUN TIME: 0 days 0 hours 17 minutes 8 seconds 852 msec
