(SLURM) JOB ID:         43

                                 *****************
                                 * O   R   C   A *
                                 *****************

           --- An Ab Initio, DFT and Semiempirical electronic structure package ---

                  #######################################################
                  #                        -***-                        #
                  #          Department of theory and spectroscopy      #
                  #               Directorship: Frank Neese             #
                  #        Max Planck Institute fuer Kohlenforschung    #
                  #                Kaiser Wilhelm Platz 1               #
                  #                 D-45470 Muelheim/Ruhr               #
                  #                      Germany                        #
                  #                                                     #
                  #                  All rights reserved                #
                  #                        -***-                        #
                  #######################################################


                         Program Version 4.2.1 -  RELEASE  -


 With contributions from (in alphabetic order):
   Daniel Aravena         : Magnetic Suceptibility
   Michael Atanasov       : Ab Initio Ligand Field Theory (pilot matlab implementation)
   Alexander A. Auer      : GIAO ZORA, VPT2
   Ute Becker             : Parallelization
   Giovanni Bistoni       : ED, misc. LED, open-shell LED, HFLD
   Martin Brehm           : Molecular dynamics
   Dmytro Bykov           : SCF Hessian
   Vijay G. Chilkuri      : MRCI spin determinant printing, contributions to CSF-ICE
   Dipayan Datta          : RHF DLPNO-CCSD density
   Achintya Kumar Dutta   : EOM-CC, STEOM-CC
   Dmitry Ganyushin       : Spin-Orbit,Spin-Spin,Magnetic field MRCI
   Miquel Garcia          : C-PCM Hessian, Gaussian charge scheme
   Yang Guo               : DLPNO-NEVPT2, CIM, IAO-localization
   Andreas Hansen         : Spin unrestricted coupled pair/coupled cluster methods
   Benjamin Helmich-Paris : CASSCF linear response (MC-RPA)
   Lee Huntington         : MR-EOM, pCC
   Robert Izsak           : Overlap fitted RIJCOSX, COSX-SCS-MP3, EOM
   Christian Kollmar      : KDIIS, OOCD, Brueckner-CCSD(T), CCSD density
   Simone Kossmann        : Meta GGA functionals, TD-DFT gradient, OOMP2, MP2 Hessian
   Martin Krupicka        : AUTO-CI
   Lucas Lang             : DCDCAS
   Dagmar Lenk            : GEPOL surface, SMD
   Dimitrios Liakos       : Extrapolation schemes; Compound Job, initial MDCI parallelization
   Dimitrios Manganas     : Further ROCIS development; embedding schemes
   Dimitrios Pantazis     : SARC Basis sets
   Taras Petrenko         : DFT Hessian,TD-DFT gradient, ASA, ECA, R-Raman, ABS, FL, XAS/XES, NRVS
   Peter Pinski           : DLPNO-MP2, DLPNO-MP2 Gradient
   Christoph Reimann      : Effective Core Potentials
   Marius Retegan         : Local ZFS, SOC
   Christoph Riplinger    : Optimizer, TS searches, QM/MM, DLPNO-CCSD(T), (RO)-DLPNO pert. Triples
   Tobias Risthaus        : Range-separated hybrids, TD-DFT gradient, RPA, STAB
   Michael Roemelt        : Original ROCIS implementation
   Masaaki Saitow         : Open-shell DLPNO-CCSD energy and density
   Barbara Sandhoefer     : DKH picture change effects
   Avijit Sen             : IP-ROCIS
   Kantharuban Sivalingam : CASSCF convergence, NEVPT2, FIC-MRCI
   Bernardo de Souza      : ESD, SOC TD-DFT
   Georgi Stoychev        : AutoAux, RI-MP2 NMR
   Willem Van den Heuvel  : Paramagnetic NMR
   Boris Wezisla          : Elementary symmetry handling
   Frank Wennmohs         : Technical directorship


 We gratefully acknowledge several colleagues who have allowed us to
 interface, adapt or use parts of their codes:
   Stefan Grimme, W. Hujo, H. Kruse,             : VdW corrections, initial TS optimization,
                  C. Bannwarth                     DFT functionals, gCP, sTDA/sTD-DF
   Ed Valeev, F. Pavosevic, A. Kumar             : LibInt (2-el integral package), F12 methods
   Garnet Chan, S. Sharma, J. Yang, R. Olivares  : DMRG
   Ulf Ekstrom                                   : XCFun DFT Library
   Mihaly Kallay                                 : mrcc  (arbitrary order and MRCC methods)
   Andreas Klamt, Michael Diedenhofen            : otool_cosmo (COSMO solvation model)
   Jiri Pittner, Ondrej Demel                    : Mk-CCSD
   Frank Weinhold                                : gennbo (NPA and NBO analysis)
   Christopher J. Cramer and Donald G. Truhlar   : smd solvation model
   Lars Goerigk                                  : TD-DFT with DH, B97 family of functionals
   V. Asgeirsson, H. Jonsson                     : NEB implementation
   FAccTs GmbH                                   : IRC, NEB, NEB-TS, Multilevel, MM, QM/MM, CI optimization
   S Lehtola, MJT Oliveira, MAL Marques          : LibXC Library


 Your calculation uses the libint2 library for the computation of 2-el integrals
 For citations please refer to: http://libint.valeyev.net

 Your ORCA version has been built with support for libXC version: 4.2.3
 For citations please refer to: https://tddft.org/programs/libxc/

 This ORCA versions uses:
   CBLAS   interface :  Fast vector & matrix operations
   LAPACKE interface :  Fast linear algebra routines
   SCALAPACK package :  Parallel linear algebra routines




***************************************
The coordinates will be read from file: init.xyz
***************************************


Your calculation utilizes the atom-pairwise dispersion correction
with the Becke-Johnson damping scheme (D3BJ)
Cite in your paper:
S.Grimme, S.Ehrlich, L.Goerigk, J Comput Chem, (2011), 32, 1456–1465 
S.Grimme, J.Antony, S.Ehrlich and H.Krieg, J.Chem.Phys., 132, (2010), 154104 
   

Your calculation utilizes the SMD solvation module
Please cite in your paper:
A.V. Marenich, C.J. Cramer, D.G. Truhlar J. Phys. Chem. B, 113, (2009), 6378 

----- Orbital basis set information -----
Your calculation utilizes the basis: cc-pVTZ 
       H, B-Ne : Obtained from the ccRepo (grant-hill.group.shef.ac.uk/ccrepo) Feb. 2017
                 T. H. Dunning, Jr., J. Chem. Phys. 90, 1007 (1989)
            He : Obtained from the ccRepo (grant-hill.group.shef.ac.uk/ccrepo) Feb. 2017
                 D. E. Woon, T. H. Dunning, Jr., J. Chem. Phys. 100, 2975 (1994)
  Li-Be, Na-Mg : Obtained from the ccRepo (grant-hill.group.shef.ac.uk/ccrepo) Feb. 2017
                 B. P. Prascher, D. E. Woon, K. A. Peterson, T. H. Dunning, Jr., A. K. Wilson, Theor. Chem. Acc. 128, 69 (2011)
         Al-Ar : Obtained from the ccRepo (grant-hill.group.shef.ac.uk/ccrepo) Feb. 2017
                 D. E. Woon, T. H. Dunning, Jr., J. Chem. Phys. 98, 1358 (1993)
            Ca : Obtained from the Peterson Research Group Website (tyr0.chem.wsu.edu/~kipeters) Feb. 2017
                 J. Koput, K. A. Peterson, J. Phys. Chem. 106, 9595 (2002)
         Sc-Zn : Obtained from the ccRepo (grant-hill.group.shef.ac.uk/ccrepo) Feb. 2017
                 N. B. Balabanov, K. A. Peterson, J. Chem. Phys. 123, 064107 (2005)
                 N. B. Balabanov, K. A. Peterson, J. Chem. Phys. 125, 074110 (2006)
         Ga-Kr : Obtained from the ccRepo (grant-hill.group.shef.ac.uk/ccrepo) Feb. 2017
                 A. K. Wilson, D. E. Woon, K. A. Peterson, T. H. Dunning, Jr., J. Chem. Phys. 110, 7667 (1999)
             Y : Obtained from the ccRepo (grant-hill.group.shef.ac.uk/ccrepo) Feb. 2017
                 K. A. Peterson, D. Figgen, M. Dolg, H. Stoll, J. Chem. Phys. 126, 124101 (2007)
        Ag, Au : Obtained from the Peterson Research Group Website (tyr0.chem.wsu.edu/~kipeters) Feb. 2017
                 K. A. Peterson, C. Puzzarini, Theor. Chem. Acc. 114, 283 (2005)

----- AuxJ basis set information -----
Your calculation utilizes the AutoAux generation procedure.
  G. L. Stoychev, A. A. Auer, F. Neese, J. Chem. Theory Comput. 13, 554 (2017)

----- AuxC basis set information -----
Your calculation utilizes the AutoAux generation procedure.
  G. L. Stoychev, A. A. Auer, F. Neese, J. Chem. Theory Comput. 13, 554 (2017)

----- AuxJK basis set information -----
Your calculation utilizes the AutoAux generation procedure.
  G. L. Stoychev, A. A. Auer, F. Neese, J. Chem. Theory Comput. 13, 554 (2017)

================================================================================
                                        WARNINGS
                       Please study these warnings very carefully!
================================================================================


WARNING: Geometry Optimization
  ===> : Switching off AutoStart
         For restart on a previous wavefunction, please use MOREAD

INFO   : the flag for use of LIBINT has been found!

================================================================================
                                       INPUT FILE
================================================================================
NAME = /tmp/slurm-scratch/opt+freq.43/opt+freq.inp
|  1> ! B3LYP D3BJ cc-pVTZ RIJCOSX AutoAux Opt Freq TightSCF Grid4 FinalGrid5 GridX4 PrintBasis PrintMOs
|  2> %maxcore 1450
|  3> 
|  4> * xyzfile 0 1 init.xyz
|  5> 
|  6> %cpcm
|  7>  smd true
|  8>  smdsolvent "dichloromethane"
|  9> end
| 10> 
| 11> %geom
| 12>  maxiter 30
| 13>  trust 0.2
| 14>  inhess read
| 15>  inhessname "freq.hess"
| 16> end
| 17> %pal nprocs 8 end
| 18> 
| 19>                          ****END OF INPUT****
================================================================================

                       *****************************
                       * Geometry Optimization Run *
                       *****************************

Geometry optimization settings:
Update method            Update   .... BFGS
Choice of coordinates    CoordSys .... Z-matrix Internals
Initial Hessian          InHess   .... Read

Convergence Tolerances:
Energy Change            TolE     ....  5.0000e-06 Eh
Max. Gradient            TolMAXG  ....  3.0000e-04 Eh/bohr
RMS Gradient             TolRMSG  ....  1.0000e-04 Eh/bohr
Max. Displacement        TolMAXD  ....  4.0000e-03 bohr
RMS Displacement         TolRMSD  ....  2.0000e-03 bohr
Strict Convergence                ....  False
------------------------------------------------------------------------------
                        ORCA OPTIMIZATION COORDINATE SETUP
------------------------------------------------------------------------------

The optimization will be done in new redundant internal coordinates
Making redundant internal coordinates   ...  (new redundants) done
Evaluating the initial hessian          ... (Reading Exact Hessian)...  
InHessName: freq.hess	The file <freq.hess> is opened as a .hess file
done
done
Diagonalizing the Hessian               .... done
Dimension of the hessian                .... 3
Lowest eigenvalues of the non projected Hessian:
  0.139474645  0.452046072  0.474330616
done
Evaluating the coordinates              ...  done
Calculating the B-matrix                .... done
Calculating the G-matrix                .... done
Diagonalizing the G-matrix              .... done
The first mode is                       ....    0
The number of degrees of freedom        ....    3

    -----------------------------------------------------------------
                    Redundant Internal Coordinates


    -----------------------------------------------------------------
         Definition                    Initial Value    d2E/dq (diagonal element)
    -----------------------------------------------------------------
      1. B(H   1,O   0)                  0.9644         0.460753   
      2. B(H   2,O   0)                  0.9644         0.460878   
      3. A(H   1,O   0,H   2)          104.0253         0.144221   
    -----------------------------------------------------------------

Number of atoms                         .... 3
Number of degrees of freedom            .... 3

         *************************************************************
         *                GEOMETRY OPTIMIZATION CYCLE   1            *
         *************************************************************
---------------------------------
CARTESIAN COORDINATES (ANGSTROEM)
---------------------------------
  O      0.809645    0.131230    0.000000
  H      1.772977    0.177312    0.000000
  H      0.531478    1.054658    0.000000

----------------------------
CARTESIAN COORDINATES (A.U.)
----------------------------
  NO LB      ZA    FRAG     MASS         X           Y           Z
   0 O     8.0000    0    15.999    1.530007    0.247989    0.000000
   1 H     1.0000    0     1.008    3.350441    0.335071    0.000000
   2 H     1.0000    0     1.008    1.004348    1.993015    0.000000

--------------------------------
INTERNAL COORDINATES (ANGSTROEM)
--------------------------------
 O      0   0   0     0.000000000000     0.00000000     0.00000000
 H      1   0   0     0.964433560671     0.00000000     0.00000000
 H      1   2   0     0.964414926820   104.02531935     0.00000000

---------------------------
INTERNAL COORDINATES (A.U.)
---------------------------
 O      0   0   0     0.000000000000     0.00000000     0.00000000
 H      1   0   0     1.822515304030     0.00000000     0.00000000
 H      1   2   0     1.822480091155   104.02531935     0.00000000

---------------------
BASIS SET INFORMATION
---------------------
There are 2 groups of distinct atoms

 Group   1 Type O   : 18s5p2d1f contracted to 4s3p2d1f pattern {8811/311/11/1}
 Group   2 Type H   : 5s2p1d contracted to 3s2p1d pattern {311/11/1}

Atom   0O    basis set group =>   1
Atom   1H    basis set group =>   2
Atom   2H    basis set group =>   2

-------------------------
BASIS SET IN INPUT FORMAT
-------------------------

 # Basis set for element : H 
 NewGTO H 
 S 3 
   1      33.8700000000      0.0254948632
   2       5.0950000000      0.1903627659
   3       1.1590000000      0.8521620222
 S 1 
   1       0.3258000000      1.0000000000
 S 1 
   1       0.1027000000      1.0000000000
 P 1 
   1       1.4070000000      1.0000000000
 P 1 
   1       0.3880000000      1.0000000000
 D 1 
   1       1.0570000000      1.0000000000
  end;

 # Basis set for element : O 
 NewGTO O 
 S 8 
   1   15330.0000000000      0.0005201983
   2    2299.0000000000      0.0040233448
   3     522.4000000000      0.0207290833
   4     147.3000000000      0.0810823271
   5      47.5500000000      0.2362263521
   6      16.7600000000      0.4435182094
   7       6.2070000000      0.3586705887
   8       0.6882000000     -0.0083497972
 S 8 
   1   15330.0000000000     -0.0001972360
   2    2299.0000000000     -0.0015350107
   3     522.4000000000     -0.0079511839
   4     147.3000000000     -0.0321134529
   5      47.5500000000     -0.1002696430
   6      16.7600000000     -0.2340471118
   7       6.2070000000     -0.3014109278
   8       0.6882000000      1.0349196495
 S 1 
   1       1.7520000000      1.0000000000
 S 1 
   1       0.2384000000      1.0000000000
 P 3 
   1      34.4600000000      0.0411634896
   2       7.7490000000      0.2577628359
   3       2.2800000000      0.8024192744
 P 1 
   1       0.7156000000      1.0000000000
 P 1 
   1       0.2140000000      1.0000000000
 D 1 
   1       2.3140000000      1.0000000000
 D 1 
   1       0.6450000000      1.0000000000
 F 1 
   1       1.4280000000      1.0000000000
  end;

---------------------------------
AUXILIARY/J BASIS SET INFORMATION
---------------------------------
There are 2 groups of distinct atoms

 Group   1 Type O   : 14s11p10d5f3g contracted to 14s11p10d5f3g pattern {11111111111111/11111111111/1111111111/11111/111}
 Group   2 Type H   : 11s4p3d2f contracted to 11s4p3d2f pattern {11111111111/1111/111/11}

Atom   0O    basis set group =>   1
Atom   1H    basis set group =>   2
Atom   2H    basis set group =>   2

-------------------------------------
AUXILIARY/J BASIS SET IN INPUT FORMAT
-------------------------------------

 # Auxiliary/J basis set for element : H 
 NewAuxJGTO H 
 S 1 
   1      73.3373968349      1.0000000000
 S 1 
   1      40.7429982416      1.0000000000
 S 1 
   1      22.6349990231      1.0000000000
 S 1 
   1      12.5749994573      1.0000000000
 S 1 
   1       6.9861108096      1.0000000000
 S 1 
   1       3.8811726720      1.0000000000
 S 1 
   1       2.1562070400      1.0000000000
 S 1 
   1       1.1978928000      1.0000000000
 S 1 
   1       0.6654960000      1.0000000000
 S 1 
   1       0.3697200000      1.0000000000
 S 1 
   1       0.2054000000      1.0000000000
 P 1 
   1       3.9256000000      1.0000000000
 P 1 
   1       1.9628000000      1.0000000000
 P 1 
   1       0.9814000000      1.0000000000
 P 1 
   1       0.4907000000      1.0000000000
 D 1 
   1       3.7558400000      1.0000000000
 D 1 
   1       1.7072000000      1.0000000000
 D 1 
   1       0.7760000000      1.0000000000
 F 1 
   1       3.1790000000      1.0000000000
 F 1 
   1       1.4450000000      1.0000000000
  end;

 # Auxiliary/J basis set for element : O 
 NewAuxJGTO O 
 S 1 
   1     891.2228962507      1.0000000000
 S 1 
   1     495.1238312504      1.0000000000
 S 1 
   1     275.0687951391      1.0000000000
 S 1 
   1     152.8159972995      1.0000000000
 S 1 
   1      84.8977762775      1.0000000000
 S 1 
   1      47.1654312653      1.0000000000
 S 1 
   1      26.2030173696      1.0000000000
 S 1 
   1      14.5572318720      1.0000000000
 S 1 
   1       8.0873510400      1.0000000000
 S 1 
   1       4.4929728000      1.0000000000
 S 1 
   1       2.4960960000      1.0000000000
 S 1 
   1       1.3867200000      1.0000000000
 S 1 
   1       0.7704000000      1.0000000000
 S 1 
   1       0.4280000000      1.0000000000
 P 1 
   1     152.8159972995      1.0000000000
 P 1 
   1      84.8977762775      1.0000000000
 P 1 
   1      47.1654312653      1.0000000000
 P 1 
   1      26.2030173696      1.0000000000
 P 1 
   1      14.5572318720      1.0000000000
 P 1 
   1       8.0873510400      1.0000000000
 P 1 
   1       4.4929728000      1.0000000000
 P 1 
   1       2.4960960000      1.0000000000
 P 1 
   1       1.3867200000      1.0000000000
 P 1 
   1       0.7704000000      1.0000000000
 P 1 
   1       0.4280000000      1.0000000000
 D 1 
   1      84.8977762775      1.0000000000
 D 1 
   1      47.1654312653      1.0000000000
 D 1 
   1      26.2030173696      1.0000000000
 D 1 
   1      14.5572318720      1.0000000000
 D 1 
   1       8.0873510400      1.0000000000
 D 1 
   1       4.4929728000      1.0000000000
 D 1 
   1       2.4960960000      1.0000000000
 D 1 
   1       1.3867200000      1.0000000000
 D 1 
   1       0.7704000000      1.0000000000
 D 1 
   1       0.4280000000      1.0000000000
 F 1 
   1      20.1225904000      1.0000000000
 F 1 
   1       9.1466320000      1.0000000000
 F 1 
   1       4.1575600000      1.0000000000
 F 1 
   1       1.8898000000      1.0000000000
 F 1 
   1       0.8590000000      1.0000000000
 G 1 
   1       6.2436000000      1.0000000000
 G 1 
   1       2.8380000000      1.0000000000
 G 1 
   1       1.2900000000      1.0000000000
  end;

---------------------------------
AUXILIARY/C BASIS SET INFORMATION
---------------------------------
There are 2 groups of distinct atoms

 Group   1 Type O   : 14s11p10d5f3g contracted to 14s11p10d5f3g pattern {11111111111111/11111111111/1111111111/11111/111}
 Group   2 Type H   : 11s4p3d2f contracted to 11s4p3d2f pattern {11111111111/1111/111/11}

Atom   0O    basis set group =>   1
Atom   1H    basis set group =>   2
Atom   2H    basis set group =>   2

-------------------------------------
AUXILIARY/C BASIS SET IN INPUT FORMAT
-------------------------------------

 # Auxiliary/C basis set for element : H 
 NewAuxCGTO H 
 S 1 
   1      73.3373968349      1.0000000000
 S 1 
   1      40.7429982416      1.0000000000
 S 1 
   1      22.6349990231      1.0000000000
 S 1 
   1      12.5749994573      1.0000000000
 S 1 
   1       6.9861108096      1.0000000000
 S 1 
   1       3.8811726720      1.0000000000
 S 1 
   1       2.1562070400      1.0000000000
 S 1 
   1       1.1978928000      1.0000000000
 S 1 
   1       0.6654960000      1.0000000000
 S 1 
   1       0.3697200000      1.0000000000
 S 1 
   1       0.2054000000      1.0000000000
 P 1 
   1       3.9256000000      1.0000000000
 P 1 
   1       1.9628000000      1.0000000000
 P 1 
   1       0.9814000000      1.0000000000
 P 1 
   1       0.4907000000      1.0000000000
 D 1 
   1       3.7558400000      1.0000000000
 D 1 
   1       1.7072000000      1.0000000000
 D 1 
   1       0.7760000000      1.0000000000
 F 1 
   1       3.1790000000      1.0000000000
 F 1 
   1       1.4450000000      1.0000000000
  end;

 # Auxiliary/C basis set for element : O 
 NewAuxCGTO O 
 S 1 
   1     891.2228962507      1.0000000000
 S 1 
   1     495.1238312504      1.0000000000
 S 1 
   1     275.0687951391      1.0000000000
 S 1 
   1     152.8159972995      1.0000000000
 S 1 
   1      84.8977762775      1.0000000000
 S 1 
   1      47.1654312653      1.0000000000
 S 1 
   1      26.2030173696      1.0000000000
 S 1 
   1      14.5572318720      1.0000000000
 S 1 
   1       8.0873510400      1.0000000000
 S 1 
   1       4.4929728000      1.0000000000
 S 1 
   1       2.4960960000      1.0000000000
 S 1 
   1       1.3867200000      1.0000000000
 S 1 
   1       0.7704000000      1.0000000000
 S 1 
   1       0.4280000000      1.0000000000
 P 1 
   1     152.8159972995      1.0000000000
 P 1 
   1      84.8977762775      1.0000000000
 P 1 
   1      47.1654312653      1.0000000000
 P 1 
   1      26.2030173696      1.0000000000
 P 1 
   1      14.5572318720      1.0000000000
 P 1 
   1       8.0873510400      1.0000000000
 P 1 
   1       4.4929728000      1.0000000000
 P 1 
   1       2.4960960000      1.0000000000
 P 1 
   1       1.3867200000      1.0000000000
 P 1 
   1       0.7704000000      1.0000000000
 P 1 
   1       0.4280000000      1.0000000000
 D 1 
   1      84.8977762775      1.0000000000
 D 1 
   1      47.1654312653      1.0000000000
 D 1 
   1      26.2030173696      1.0000000000
 D 1 
   1      14.5572318720      1.0000000000
 D 1 
   1       8.0873510400      1.0000000000
 D 1 
   1       4.4929728000      1.0000000000
 D 1 
   1       2.4960960000      1.0000000000
 D 1 
   1       1.3867200000      1.0000000000
 D 1 
   1       0.7704000000      1.0000000000
 D 1 
   1       0.4280000000      1.0000000000
 F 1 
   1      20.1225904000      1.0000000000
 F 1 
   1       9.1466320000      1.0000000000
 F 1 
   1       4.1575600000      1.0000000000
 F 1 
   1       1.8898000000      1.0000000000
 F 1 
   1       0.8590000000      1.0000000000
 G 1 
   1       6.2436000000      1.0000000000
 G 1 
   1       2.8380000000      1.0000000000
 G 1 
   1       1.2900000000      1.0000000000
  end;

----------------------------------
AUXILIARY/JK BASIS SET INFORMATION
----------------------------------
There are 2 groups of distinct atoms

 Group   1 Type O   : 14s11p10d5f3g contracted to 14s11p10d5f3g pattern {11111111111111/11111111111/1111111111/11111/111}
 Group   2 Type H   : 11s4p3d2f contracted to 11s4p3d2f pattern {11111111111/1111/111/11}

Atom   0O    basis set group =>   1
Atom   1H    basis set group =>   2
Atom   2H    basis set group =>   2

--------------------------------------
AUXILIARY/JK BASIS SET IN INPUT FORMAT
--------------------------------------

 # Auxiliary/JK basis set for element : H 
 NewAuxJKGTO H 
 S 1 
   1      73.3373968349      1.0000000000
 S 1 
   1      40.7429982416      1.0000000000
 S 1 
   1      22.6349990231      1.0000000000
 S 1 
   1      12.5749994573      1.0000000000
 S 1 
   1       6.9861108096      1.0000000000
 S 1 
   1       3.8811726720      1.0000000000
 S 1 
   1       2.1562070400      1.0000000000
 S 1 
   1       1.1978928000      1.0000000000
 S 1 
   1       0.6654960000      1.0000000000
 S 1 
   1       0.3697200000      1.0000000000
 S 1 
   1       0.2054000000      1.0000000000
 P 1 
   1       3.9256000000      1.0000000000
 P 1 
   1       1.9628000000      1.0000000000
 P 1 
   1       0.9814000000      1.0000000000
 P 1 
   1       0.4907000000      1.0000000000
 D 1 
   1       3.7558400000      1.0000000000
 D 1 
   1       1.7072000000      1.0000000000
 D 1 
   1       0.7760000000      1.0000000000
 F 1 
   1       3.1790000000      1.0000000000
 F 1 
   1       1.4450000000      1.0000000000
  end;

 # Auxiliary/JK basis set for element : O 
 NewAuxJKGTO O 
 S 1 
   1     891.2228962507      1.0000000000
 S 1 
   1     495.1238312504      1.0000000000
 S 1 
   1     275.0687951391      1.0000000000
 S 1 
   1     152.8159972995      1.0000000000
 S 1 
   1      84.8977762775      1.0000000000
 S 1 
   1      47.1654312653      1.0000000000
 S 1 
   1      26.2030173696      1.0000000000
 S 1 
   1      14.5572318720      1.0000000000
 S 1 
   1       8.0873510400      1.0000000000
 S 1 
   1       4.4929728000      1.0000000000
 S 1 
   1       2.4960960000      1.0000000000
 S 1 
   1       1.3867200000      1.0000000000
 S 1 
   1       0.7704000000      1.0000000000
 S 1 
   1       0.4280000000      1.0000000000
 P 1 
   1     152.8159972995      1.0000000000
 P 1 
   1      84.8977762775      1.0000000000
 P 1 
   1      47.1654312653      1.0000000000
 P 1 
   1      26.2030173696      1.0000000000
 P 1 
   1      14.5572318720      1.0000000000
 P 1 
   1       8.0873510400      1.0000000000
 P 1 
   1       4.4929728000      1.0000000000
 P 1 
   1       2.4960960000      1.0000000000
 P 1 
   1       1.3867200000      1.0000000000
 P 1 
   1       0.7704000000      1.0000000000
 P 1 
   1       0.4280000000      1.0000000000
 D 1 
   1      84.8977762775      1.0000000000
 D 1 
   1      47.1654312653      1.0000000000
 D 1 
   1      26.2030173696      1.0000000000
 D 1 
   1      14.5572318720      1.0000000000
 D 1 
   1       8.0873510400      1.0000000000
 D 1 
   1       4.4929728000      1.0000000000
 D 1 
   1       2.4960960000      1.0000000000
 D 1 
   1       1.3867200000      1.0000000000
 D 1 
   1       0.7704000000      1.0000000000
 D 1 
   1       0.4280000000      1.0000000000
 F 1 
   1      20.1225904000      1.0000000000
 F 1 
   1       9.1466320000      1.0000000000
 F 1 
   1       4.1575600000      1.0000000000
 F 1 
   1       1.8898000000      1.0000000000
 F 1 
   1       0.8590000000      1.0000000000
 G 1 
   1       6.2436000000      1.0000000000
 G 1 
   1       2.8380000000      1.0000000000
 G 1 
   1       1.2900000000      1.0000000000
  end;



           ************************************************************
           *        Program running with 8 parallel MPI-processes     *
           *              working on a common directory               *
           ************************************************************
------------------------------------------------------------------------------
                           ORCA GTO INTEGRAL CALCULATION
                           -- RI-GTO INTEGRALS CHOSEN --
------------------------------------------------------------------------------

                         BASIS SET STATISTICS AND STARTUP INFO

Gaussian basis set:
 # of primitive gaussian shells          ...   42
 # of primitive gaussian functions       ...   82
 # of contracted shells                  ...   22
 # of contracted basis functions         ...   58
 Highest angular momentum                ...    3
 Maximum contraction depth               ...    8
Auxiliary gaussian basis set:
 # of primitive gaussian shells          ...   83
 # of primitive gaussian functions       ...  263
 # of contracted shells                  ...   83
 # of contracted aux-basis functions     ...  263
 Highest angular momentum                ...    4
 Maximum contraction depth               ...    1
Ratio of auxiliary to basis functions    ...  4.53
Integral package used                  ... LIBINT
 One Electron integrals                  ... done
 Ordering auxiliary basis shells         ... done
 Integral threshhold             Thresh  ...  2.500e-11
 Primitive cut-off               TCut    ...  2.500e-12
 Pre-screening matrix                    ... done
 Shell pair data                         ... 
 Ordering of the shell pairs             ... done (   0.000 sec) 253 of 253 pairs
 Determination of significant pairs      ... done (   0.000 sec)
 Creation of shell pair data             ... done (   0.000 sec)
 Storage of shell pair data              ... done (   0.001 sec)
 Shell pair data done in (   0.002 sec)
 Computing two index integrals           ... done
 Cholesky decomposition of the V-matrix  ... done


Timings:
 Total evaluation time                   ...   0.201 sec (  0.003 min)
 One electron matrix time                ...   0.005 sec (  0.000 min) =  2.5%
 Schwartz matrix evaluation time         ...   0.089 sec (  0.001 min) = 44.2%
 Two index repulsion integral time       ...   0.001 sec (  0.000 min) =  0.6%
 Cholesky decomposition of V             ...   0.088 sec (  0.001 min) = 43.8%
 Three index repulsion integral time     ...   0.000 sec (  0.000 min) =  0.0%



           ************************************************************
           *        Program running with 8 parallel MPI-processes     *
           *              working on a common directory               *
           ************************************************************
-------------------------------------------------------------------------------
                                 ORCA SCF
-------------------------------------------------------------------------------

------------
SCF SETTINGS
------------
Hamiltonian:
 Density Functional     Method          .... DFT(GTOs)
 Exchange Functional    Exchange        .... B88
   X-Alpha parameter    XAlpha          ....  0.666667
   Becke's b parameter  XBeta           ....  0.004200
 Correlation Functional Correlation     .... LYP
 LDA part of GGA corr.  LDAOpt          .... VWN-5
 Gradients option       PostSCFGGA      .... off
 Hybrid DFT is turned on
   Fraction HF Exchange ScalHFX         ....  0.200000
   Scaling of DF-GGA-X  ScalDFX         ....  0.720000
   Scaling of DF-GGA-C  ScalDFC         ....  0.810000
   Scaling of DF-LDA-C  ScalLDAC        ....  1.000000
   Perturbative correction              ....  0.000000
   Density functional embedding theory  .... OFF
   NL short-range parameter             ....  4.800000
 RI-approximation to the Coulomb term is turned on
   Number of auxiliary basis functions  .... 263
   RIJ-COSX (HFX calculated with COS-X)).... on


General Settings:
 Integral files         IntName         .... /tmp/slurm-scratch/opt+freq.43/opt+freq
 Hartree-Fock type      HFTyp           .... RHF
 Total Charge           Charge          ....    0
 Multiplicity           Mult            ....    1
 Number of Electrons    NEL             ....   10
 Basis Dimension        Dim             ....   58
 Nuclear Repulsion      ENuc            ....      9.1272541149 Eh

Convergence Acceleration:
 DIIS                   CNVDIIS         .... on
   Start iteration      DIISMaxIt       ....    12
   Startup error        DIISStart       ....  0.200000
   # of expansion vecs  DIISMaxEq       ....     5
   Bias factor          DIISBfac        ....   1.050
   Max. coefficient     DIISMaxC        ....  10.000
 Newton-Raphson         CNVNR           .... off
 SOSCF                  CNVSOSCF        .... on
   Start iteration      SOSCFMaxIt      ....   150
   Startup grad/error   SOSCFStart      ....  0.003300
 Level Shifting         CNVShift        .... on
   Level shift para.    LevelShift      ....    0.2500
   Turn off err/grad.   ShiftErr        ....    0.0010
 Zerner damping         CNVZerner       .... off
 Static damping         CNVDamp         .... on
   Fraction old density DampFac         ....    0.7000
   Max. Damping (<1)    DampMax         ....    0.9800
   Min. Damping (>=0)   DampMin         ....    0.0000
   Turn off err/grad.   DampErr         ....    0.1000
 Fernandez-Rico         CNVRico         .... off

SCF Procedure:
 Maximum # iterations   MaxIter         ....   125
 SCF integral mode      SCFMode         .... Direct
   Integral package                     .... LIBINT
 Reset frequency        DirectResetFreq ....    20
 Integral Threshold     Thresh          ....  2.500e-11 Eh
 Primitive CutOff       TCut            ....  2.500e-12 Eh

Convergence Tolerance:
 Convergence Check Mode ConvCheckMode   .... Total+1el-Energy
 Convergence forced     ConvForced      .... 0
 Energy Change          TolE            ....  1.000e-08 Eh
 1-El. energy change                    ....  1.000e-05 Eh
 Orbital Gradient       TolG            ....  1.000e-05
 Orbital Rotation angle TolX            ....  1.000e-05
 DIIS Error             TolErr          ....  5.000e-07


Diagonalization of the overlap matrix:
Smallest eigenvalue                        ... 2.563e-03
Time for diagonalization                   ...    0.001 sec
Threshold for overlap eigenvalues          ... 1.000e-08
Number of eigenvalues below threshold      ... 0
Time for construction of square roots      ...    0.000 sec
Total time needed                          ...    0.002 sec

-------------------
DFT GRID GENERATION
-------------------

General Integration Accuracy     IntAcc      ...  4.670
Radial Grid Type                 RadialGrid  ... Gauss-Chebyshev
Angular Grid (max. acc.)         AngularGrid ... Lebedev-302
Angular grid pruning method      GridPruning ... 3 (G Style)
Weight generation scheme         WeightScheme... Becke
Basis function cutoff            BFCut       ...    1.0000e-11
Integration weight cutoff        WCut        ...    1.0000e-14
Grids for H and He will be reduced by one unit

# of grid points (after initial pruning)     ...  13000 (   0.0 sec)
# of grid points (after weights+screening)   ...  12881 (   0.0 sec)
nearest neighbour list constructed           ...    0.0 sec
Grid point re-assignment to atoms done       ...    0.0 sec
Grid point division into batches done        ...    0.0 sec
Reduced shell lists constructed in    0.0 sec

Total number of grid points                  ...    12881
Total number of batches                      ...      203
Average number of points per batch           ...       63
Average number of grid points per atom       ...     4294
Average number of shells per batch           ...    16.07 (73.06%)
Average number of basis functions per batch  ...    40.37 (69.60%)
Average number of large shells per batch     ...    13.63 (84.79%)
Average number of large basis fcns per batch ...    34.22 (84.77%)
Maximum spatial batch extension              ...  12.59, 12.72, 16.88 au
Average spatial batch extension              ...   0.71,  0.66,  0.79 au

Time for grid setup =    0.053 sec

------------------------------
INITIAL GUESS: MODEL POTENTIAL
------------------------------
Loading Hartree-Fock densities                     ... done
Calculating cut-offs                               ... done
Setting up the integral package                    ... done
Initializing the effective Hamiltonian             ... done
Starting the Coulomb interaction                   ... done (   0.0 sec)
Reading the grid                                   ... done
Mapping shells                                     ... done
Starting the XC term evaluation                    ... done (   0.0 sec)
  promolecular density results
     # of electrons  =      9.999025275
     EX              =     -8.780670646
     EC              =     -0.334490235
     EX+EC           =     -9.115160881
Transforming the Hamiltonian                       ... done (   0.0 sec)
Diagonalizing the Hamiltonian                      ... done (   0.0 sec)
Back transforming the eigenvectors                 ... done (   0.0 sec)
Now organizing SCF variables                       ... done
                      ------------------
                      INITIAL GUESS DONE (   0.1 sec)
                      ------------------
--------------------
COSX GRID GENERATION
--------------------

General Integration Accuracy     IntAcc      ...  3.340
Radial Grid Type                 RadialGrid  ... Gauss-Chebyshev
Angular Grid (max. acc.)         AngularGrid ... Lebedev-50
Angular grid pruning method      GridPruning ... 3 (G Style)
Weight generation scheme         WeightScheme... Becke
Basis function cutoff            BFCut       ...    1.0000e-11
Integration weight cutoff        WCut        ...    1.0000e-14
Grids for H and He will be reduced by one unit

# of grid points (after initial pruning)     ...   1220 (   0.0 sec)
# of grid points (after weights+screening)   ...   1201 (   0.0 sec)
nearest neighbour list constructed           ...    0.0 sec
Grid point re-assignment to atoms done       ...    0.0 sec
Grid point division into batches done        ...    0.0 sec
Reduced shell lists constructed in    0.0 sec

Total number of grid points                  ...     1201
Total number of batches                      ...       20
Average number of points per batch           ...       60
Average number of grid points per atom       ...      400
Average number of shells per batch           ...    16.50 (75.00%)
Average number of basis functions per batch  ...    43.50 (75.00%)
Average number of large shells per batch     ...    16.00 (96.97%)
Average number of large basis fcns per batch ...    42.50 (97.70%)
Maximum spatial batch extension              ...  11.17, 12.62, 20.72 au
Average spatial batch extension              ...   1.49,  1.59,  2.41 au

Overlap Fitting                  UseSFitting ... on
Constructing numerical overlap ... done (      0.0 sec)
Inverting numerical overlap    ... done (      0.0 sec)
Obtaining analytic overlap     ... done (      0.0 sec)
Final contraction and storage  ... done (      0.0 sec)


General Integration Accuracy     IntAcc      ...  4.010
Radial Grid Type                 RadialGrid  ... Gauss-Chebyshev
Angular Grid (max. acc.)         AngularGrid ... Lebedev-50
Angular grid pruning method      GridPruning ... 3 (G Style)
Weight generation scheme         WeightScheme... Becke
Basis function cutoff            BFCut       ...    1.0000e-11
Integration weight cutoff        WCut        ...    1.0000e-14
Grids for H and He will be reduced by one unit

# of grid points (after initial pruning)     ...   1922 (   0.0 sec)
# of grid points (after weights+screening)   ...   1892 (   0.0 sec)
nearest neighbour list constructed           ...    0.0 sec
Grid point re-assignment to atoms done       ...    0.0 sec
Grid point division into batches done        ...    0.0 sec
Reduced shell lists constructed in    0.0 sec

Total number of grid points                  ...     1892
Total number of batches                      ...       31
Average number of points per batch           ...       61
Average number of grid points per atom       ...      631
Average number of shells per batch           ...    17.40 (79.09%)
Average number of basis functions per batch  ...    45.80 (78.97%)
Average number of large shells per batch     ...    16.60 (95.40%)
Average number of large basis fcns per batch ...    43.40 (94.76%)
Maximum spatial batch extension              ...  12.14, 14.32, 24.28 au
Average spatial batch extension              ...   1.36,  1.26,  2.14 au

Overlap Fitting                  UseSFitting ... on
Constructing numerical overlap ... done (      0.0 sec)
Inverting numerical overlap    ... done (      0.0 sec)
Obtaining analytic overlap     ... done (      0.0 sec)
Final contraction and storage  ... done (      0.0 sec)


General Integration Accuracy     IntAcc      ...  4.340
Radial Grid Type                 RadialGrid  ... Gauss-Chebyshev
Angular Grid (max. acc.)         AngularGrid ... Lebedev-194
Angular grid pruning method      GridPruning ... 3 (G Style)
Weight generation scheme         WeightScheme... Becke
Basis function cutoff            BFCut       ...    1.0000e-11
Integration weight cutoff        WCut        ...    1.0000e-14
Grids for H and He will be reduced by one unit

# of grid points (after initial pruning)     ...   6418 (   0.0 sec)
# of grid points (after weights+screening)   ...   6374 (   0.0 sec)
nearest neighbour list constructed           ...    0.0 sec
Grid point re-assignment to atoms done       ...    0.0 sec
Grid point division into batches done        ...    0.0 sec
Reduced shell lists constructed in    0.0 sec

Total number of grid points                  ...     6374
Total number of batches                      ...      101
Average number of points per batch           ...       63
Average number of grid points per atom       ...     2125
Average number of shells per batch           ...    17.29 (78.57%)
Average number of basis functions per batch  ...    44.86 (77.34%)
Average number of large shells per batch     ...    15.71 (90.91%)
Average number of large basis fcns per batch ...    39.57 (88.22%)
Maximum spatial batch extension              ...  15.93, 12.41, 17.36 au
Average spatial batch extension              ...   0.83,  0.77,  1.01 au

Overlap Fitting                  UseSFitting ... on
Constructing numerical overlap ... done (      0.0 sec)
Inverting numerical overlap    ... done (      0.0 sec)
Obtaining analytic overlap     ... done (      0.0 sec)
Final contraction and storage  ... done (      0.0 sec)

Time for X-Grid setup             =    0.098 sec

--------------------
CPCM SOLVATION MODEL
--------------------
CPCM parameters:
  Epsilon                                         ...       8.9300
  Refrac                                          ...       1.0000
  Rsolv                                           ...       1.3000
  Surface type                                    ...    GEPOL SES
  Epsilon function type                           ...         CPCM
Solvent:                                     ... DICHLOROMETHANE
SMD-CDS solvent descriptors:
  Soln                                       ...    1.4242
  Soln25                                     ...    1.4212
  Sola                                       ...    0.1000
  Solb                                       ...    0.0500
  Solg                                       ...   39.1500
  Solc                                       ...    0.0000
  Solh                                       ...    0.6670
Radii:
 Radius for O  used is    3.9949 Bohr (=   2.1140 Ang.)
 Radius for H  used is    2.2677 Bohr (=   1.2000 Ang.)
Calculating surface                               ...        done! (  0.0s)
GEPOL surface points                              ...           72
GEPOL Volume                                      ...     267.2985
GEPOL Surface-area                                ...     200.7069
Calculating surface distance matrix               ...        done! (  0.0s)
Performing Cholesky decomposition & store         ...        done! (  0.0s)
Overall time for CPCM initialization              ...                 0.0s
--------------
SCF ITERATIONS
--------------
ITER       Energy         Delta-E        Max-DP      RMS-DP      [F,P]     Damp
               ***  Starting incremental Fock matrix formation  ***
  0    -76.3321064585   0.000000000000 0.06662777  0.00259400  0.3616586 0.7000
  1    -76.3810420150  -0.048935556519 0.03703291  0.00144979  0.1434310 0.7000
                               ***Turning on DIIS***
  2    -76.3965728712  -0.015530856228 0.03207314  0.00152690  0.0302174 0.0000
  3    -76.4249557902  -0.028382918964 0.02317976  0.00084896  0.0842947 0.0000
  4    -76.4299065966  -0.004950806432 0.00471825  0.00019182  0.0144376 0.0000
                      *** Initiating the SOSCF procedure ***
                           *** Shutting down DIIS ***
                      *** Re-Reading the Fockian *** 
                      *** Removing any level shift *** 
ITER      Energy       Delta-E        Grad      Rot      Max-DP    RMS-DP
  5    -76.43008150  -0.0001749024  0.000609  0.000609  0.000703  0.000041
               *** Restarting incremental Fock matrix formation ***
  6    -76.43008311  -0.0000016085  0.000217  0.000515  0.000352  0.000022
  7    -76.43008340  -0.0000002903  0.000217  0.000117  0.000177  0.000009
  8    -76.43008352  -0.0000001191  0.000042  0.000081  0.000068  0.000004
  9    -76.43008353  -0.0000000084  0.000004  0.000010  0.000007  0.000000
                 **** Energy Check signals convergence ****
              ***Rediagonalizing the Fockian in SOSCF/NRSCF***

               *****************************************************
               *                     SUCCESS                       *
               *           SCF CONVERGED AFTER  10 CYCLES          *
               *****************************************************

Setting up the final grid:

General Integration Accuracy     IntAcc      ...  5.010
Radial Grid Type                 RadialGrid  ... Gauss-Chebyshev
Angular Grid (max. acc.)         AngularGrid ... Lebedev-434
Angular grid pruning method      GridPruning ... 3 (G Style)
Weight generation scheme         WeightScheme... Becke
Basis function cutoff            BFCut       ...    1.0000e-11
Integration weight cutoff        WCut        ...    1.0000e-14
Grids for H and He will be reduced by one unit

# of grid points (after initial pruning)     ...  24226 (   0.0 sec)
# of grid points (after weights+screening)   ...  23992 (   0.0 sec)
nearest neighbour list constructed           ...    0.0 sec
Grid point re-assignment to atoms done       ...    0.0 sec
Grid point division into batches done        ...    0.1 sec
Reduced shell lists constructed in    0.1 sec

Total number of grid points                  ...    23992
Total number of batches                      ...      377
Average number of points per batch           ...       63
Average number of grid points per atom       ...     7997
Average number of shells per batch           ...    15.10 (68.65%)
Average number of basis functions per batch  ...    38.41 (66.22%)
Average number of large shells per batch     ...    12.82 (84.86%)
Average number of large basis fcns per batch ...    32.24 (83.95%)
Maximum spatial batch extension              ...  14.78, 13.56, 16.29 au
Average spatial batch extension              ...   0.54,  0.56,  0.62 au

Final grid set up in    0.2 sec
Final integration                            ... done (   0.0 sec)
Change in XC energy                          ...    -0.000011938
Integrated number of electrons               ...     9.999999798
Previous integrated no of electrons          ...     9.999991674
Old exchange energy                            =     -1.787719261 Eh
New exchange energy                            =     -1.787314376 Eh
Exchange energy change after final integration =      0.000404885 Eh
Total energy after final integration           =    -76.429690576 Eh
Final COS-X integration done in                =     0.122 sec

SMD CDS free energy correction energy :                -0.19219     Kcal/mol
Total Energy after SMD CDS correction =               -76.429996848 Eh

----------------
TOTAL SCF ENERGY
----------------

Total Energy       :          -76.42999685 Eh           -2079.76595 eV

Components:
Nuclear Repulsion  :            9.12725411 Eh             248.36521 eV
Electronic Energy  :          -85.55725096 Eh           -2328.13116 eV
One Electron Energy:         -123.08174521 Eh           -3349.22456 eV
Two Electron Energy:           37.52449425 Eh            1021.09340 eV
CPCM Dielectric    :           -0.00763032 Eh              -0.20763 eV
SMD CDS (Gcds)     :           -0.00030627 Eh              -0.00833 eV

Virial components:
Potential Energy   :         -152.47914452 Eh           -4149.16846 eV
Kinetic Energy     :           76.04914767 Eh            2069.40251 eV
Virial Ratio       :            2.00500793


DFT components:
N(Alpha)           :        4.999999899056 electrons
N(Beta)            :        4.999999899056 electrons
N(Total)           :        9.999999798113 electrons
E(X)               :       -7.119291723866 Eh       
E(C)               :       -0.402361095978 Eh       
E(XC)              :       -7.521652819844 Eh       
DFET-embed. en.    :        0.000000000000 Eh       
CPCM Solvation Model Properties:
Surface-charge          :           -0.00245100
Charge-correction       :            0.00002264 Eh               0.00062 eV
Free-energy (cav+disp)  :            0.00271097 Eh               0.07377 eV
Corrected G(solv)       :          -76.42726324 Eh           -2079.69156 eV

---------------
SCF CONVERGENCE
---------------

  Last Energy change         ...    1.6212e-09  Tolerance :   1.0000e-08
  Last MAX-Density change    ...    6.6613e-16  Tolerance :   1.0000e-07
  Last RMS-Density change    ...    1.6602e-17  Tolerance :   5.0000e-09
  Last Orbital Gradient      ...    6.8263e-07  Tolerance :   1.0000e-05
  Last Orbital Rotation      ...    4.8500e-07  Tolerance :   1.0000e-05

             **** THE GBW FILE WAS UPDATED (/tmp/slurm-scratch/opt+freq.43/opt+freq.gbw) ****
             **** DENSITY FILE WAS UPDATED (/tmp/slurm-scratch/opt+freq.43/opt+freq.scfp) ****
             **** ENERGY FILE WAS UPDATED (/tmp/slurm-scratch/opt+freq.43/opt+freq.en.tmp) ****
             **** THE GBW FILE WAS UPDATED (/tmp/slurm-scratch/opt+freq.43/opt+freq.gbw) ****
             **** DENSITY FILE WAS UPDATED (/tmp/slurm-scratch/opt+freq.43/opt+freq.scfp) ****
----------------
ORBITAL ENERGIES
----------------

  NO   OCC          E(Eh)            E(eV) 
   0   2.0000     -19.110612      -520.0262 
   1   2.0000      -0.996424       -27.1141 
   2   2.0000      -0.513272       -13.9668 
   3   2.0000      -0.378782       -10.3072 
   4   2.0000      -0.301975        -8.2172 
   5   0.0000       0.041696         1.1346 
   6   0.0000       0.118329         3.2199 
   7   0.0000       0.375241        10.2108 
   8   0.0000       0.431436        11.7400 
   9   0.0000       0.493254        13.4221 
  10   0.0000       0.583199        15.8697 
  11   0.0000       0.626316        17.0429 
  12   0.0000       0.631747        17.1907 
  13   0.0000       0.694684        18.9033 
  14   0.0000       0.781629        21.2692 
  15   0.0000       0.927672        25.2432 
  16   0.0000       1.024431        27.8762 
  17   0.0000       1.305105        35.5137 
  18   0.0000       1.330512        36.2051 
  19   0.0000       1.771776        48.2125 
  20   0.0000       1.794053        48.8187 
  21   0.0000       1.819307        49.5059 
  22   0.0000       1.900811        51.7237 
  23   0.0000       1.962614        53.4054 
  24   0.0000       2.259081        61.4727 
  25   0.0000       2.619057        71.2682 
  26   0.0000       3.063150        83.3526 
  27   0.0000       3.200878        87.1003 
  28   0.0000       3.283976        89.3615 
  29   0.0000       3.366851        91.6167 
  30   0.0000       3.381503        92.0154 
  31   0.0000       3.535725        96.2120 
  32   0.0000       3.598987        97.9334 
  33   0.0000       3.657490        99.5254 
  34   0.0000       3.702906       100.7612 
  35   0.0000       3.725982       101.3891 
  36   0.0000       3.791979       103.1850 
  37   0.0000       4.002464       108.9126 
  38   0.0000       4.031058       109.6907 
  39   0.0000       4.252327       115.7117 
  40   0.0000       4.287898       116.6796 
  41   0.0000       4.520328       123.0044 
  42   0.0000       4.746924       129.1704 
  43   0.0000       4.829415       131.4151 
  44   0.0000       5.092369       138.5704 
  45   0.0000       5.603738       152.4855 
  46   0.0000       6.104206       166.1039 
  47   0.0000       6.404393       174.2724 
  48   0.0000       6.413787       174.5280 
  49   0.0000       6.501424       176.9127 
  50   0.0000       6.535200       177.8318 
  51   0.0000       6.572086       178.8355 
  52   0.0000       6.666250       181.3979 
  53   0.0000       6.775760       184.3778 
  54   0.0000       6.958102       189.3396 
  55   0.0000       7.291724       198.4179 
  56   0.0000       7.748869       210.8574 
  57   0.0000      12.075900       328.6019 
------------------
MOLECULAR ORBITALS
------------------
                      0         1         2         3         4         5   
                 -19.11061  -0.99642  -0.51327  -0.37878  -0.30197   0.04170
                   2.00000   2.00000   2.00000   2.00000   2.00000   0.00000
                  --------  --------  --------  --------  --------  --------
  0O   1s         0.971629  0.020696  0.000021  0.004611  0.000000  0.015960
  0O   2s        -0.002112 -0.484270  0.000073 -0.184396 -0.000000 -0.167466
  0O   3s         0.051196 -0.141469 -0.000070 -0.057797 -0.000000 -0.060101
  0O   4s         0.005092 -0.272138 -0.000043 -0.258696 -0.000000 -1.282687
  0O   1pz        0.000000 -0.000000  0.000022 -0.000000  0.368854 -0.000000
  0O   1px        0.000945 -0.036953  0.244653  0.186618 -0.000025 -0.062962
  0O   1py        0.001213 -0.052368 -0.172921  0.264109  0.000018 -0.088906
  0O   2pz       -0.000000 -0.000000  0.000006 -0.000000  0.419818 -0.000000
  0O   2px       -0.000220 -0.044824  0.268445  0.209637 -0.000048 -0.111465
  0O   2py        0.000389 -0.062925 -0.189798  0.296900  0.000034 -0.157529
  0O   3pz       -0.000000 -0.000000  0.000012 -0.000001  0.397181 -0.000000
  0O   3px        0.000491 -0.007947  0.136891  0.177430 -0.000047 -0.240361
  0O   3py        0.000738 -0.011582 -0.096848  0.250858  0.000033 -0.340226
  0O   1dz2      -0.000283  0.004218  0.000012 -0.004133  0.000000 -0.001853
  0O   1dxz       0.000000 -0.000001  0.000001  0.000001  0.002943  0.000006
  0O   1dyz      -0.000000  0.000000  0.000001 -0.000001  0.004179 -0.000004
  0O   1dx2y2     0.000047 -0.000279  0.010466 -0.001237 -0.000001  0.000809
  0O   1dxy      -0.000130  0.000753  0.003740  0.003471 -0.000000 -0.002278
  0O   2dz2      -0.000104  0.007939 -0.000038 -0.012450  0.000000  0.034125
  0O   2dxz      -0.000000  0.000004 -0.000007 -0.000011  0.010443 -0.000048
  0O   2dyz       0.000000 -0.000002 -0.000010  0.000008  0.014771  0.000034
  0O   2dx2y2    -0.000030 -0.000307  0.014920 -0.004869 -0.000012 -0.002471
  0O   2dxy      -0.000113  0.000885  0.005149  0.013749 -0.000004  0.006980
  0O   1f0        0.000000  0.000000  0.000002 -0.000000 -0.003867 -0.000000
  0O   1f+1      -0.000012  0.000717 -0.002028 -0.001441  0.000001  0.001706
  0O   1f-1      -0.000075  0.000990  0.001440 -0.002055 -0.000001  0.002415
  0O   1f+2       0.000000  0.000001  0.000000 -0.000002  0.000356 -0.000012
  0O   1f-2       0.000000  0.000001 -0.000000 -0.000001 -0.001008 -0.000004
  0O   1f+3      -0.000104  0.001376  0.000240 -0.000722  0.000000  0.005070
  0O   1f-3      -0.000028 -0.000419  0.000895  0.000200  0.000001 -0.001434
  1H   1s         0.000370 -0.094643  0.148204  0.088131 -0.000015  0.041814
  1H   2s        -0.001394 -0.077004  0.202652  0.111957  0.000036  0.285499
  1H   3s        -0.000323 -0.010751  0.074695  0.024256  0.000064  0.824214
  1H   1pz       -0.000000  0.000000 -0.000001 -0.000001  0.010601 -0.000018
  1H   1px        0.000145  0.013260 -0.014377 -0.006825 -0.000001  0.011359
  1H   1py        0.000011 -0.000319 -0.005291  0.006590 -0.000000 -0.001734
  1H   2pz        0.000000 -0.000017  0.000039  0.000028  0.029062  0.000150
  1H   2px        0.000698  0.013104 -0.025006  0.000778 -0.000027 -0.119709
  1H   2py        0.000099 -0.001636 -0.008848  0.019849  0.000005 -0.003694
  1H   1dz2       0.000347  0.001754 -0.003651 -0.001535  0.000002 -0.005731
  1H   1dxz       0.000000  0.000004 -0.000008 -0.000006 -0.004693 -0.000023
  1H   1dyz       0.000000 -0.000001  0.000000  0.000003  0.000033 -0.000000
  1H   1dx2y2    -0.000751 -0.002887  0.005474  0.001663  0.000002  0.009792
  1H   1dxy      -0.000101  0.000215  0.002305 -0.002840 -0.000000  0.003378
  2H   1s         0.000460 -0.094582 -0.148220  0.088156  0.000015  0.041846
  2H   2s        -0.002162 -0.077435 -0.202493  0.111756 -0.000036  0.285696
  2H   3s        -0.000371 -0.010866 -0.074637  0.024050 -0.000063  0.823361
  2H   1pz       -0.000000 -0.000000 -0.000001  0.000001  0.010598  0.000018
  2H   1px        0.000023 -0.004677  0.000200  0.008515 -0.000000 -0.005386
  2H   1py        0.000206  0.012421  0.015332 -0.004226  0.000001  0.010113
  2H   2pz       -0.000000  0.000017  0.000039 -0.000027  0.029059 -0.000149
  2H   2px       -0.000387 -0.006164  0.000139  0.018245 -0.000013  0.036317
  2H   2py        0.001177  0.012139  0.026489  0.007495  0.000024 -0.114070
  2H   1dz2       0.000481  0.001850  0.003640 -0.001496 -0.000002 -0.005708
  2H   1dxz       0.000000  0.000001  0.000002 -0.000004  0.001585 -0.000006
  2H   1dyz      -0.000000 -0.000003 -0.000008  0.000005 -0.004405  0.000022
  2H   1dx2y2     0.000729  0.002163  0.005707  0.000492  0.000001 -0.009731
  2H   1dxy       0.000331  0.001950  0.001617 -0.003250  0.000002 -0.003557
                      6         7         8         9        10        11   
                   0.11833   0.37524   0.43144   0.49325   0.58320   0.62632
                   0.00000   0.00000   0.00000   0.00000   0.00000   0.00000
                  --------  --------  --------  --------  --------  --------
  0O   1s         0.000050  0.000041  0.017988  0.034015 -0.000000 -0.000054
  0O   2s         0.000199 -0.000015  0.181810  0.120631 -0.000003 -0.000061
  0O   3s        -0.000069 -0.000121  0.044216 -0.025878 -0.000001  0.000254
  0O   4s         0.000581  0.000703  0.038883  4.049750 -0.000019 -0.001226
  0O   1pz       -0.000034 -0.000002 -0.000001 -0.000001 -0.293484 -0.000018
  0O   1px       -0.156264  0.093642  0.087087 -0.149028 -0.000003  0.243012
  0O   1py        0.110452 -0.066310  0.122969 -0.210856  0.000001 -0.171706
  0O   2pz       -0.000115 -0.000005 -0.000002 -0.000001 -0.745082 -0.000046
  0O   2px       -0.208682  0.212200  0.115930 -0.089666 -0.000053  0.047263
  0O   2py        0.147535 -0.150035  0.163469 -0.127195  0.000034 -0.033647
  0O   3pz       -0.000053 -0.000005 -0.000001 -0.000003  1.138812 -0.000091
  0O   3px       -0.584074  0.846755  0.132903  1.475853  0.000118 -2.365796
  0O   3py        0.412904 -0.598092  0.187770  2.088219 -0.000119  1.671932
  0O   1dz2      -0.000007  0.000004  0.009602  0.026424 -0.000000 -0.000000
  0O   1dxz       0.000002  0.000000  0.000003  0.000001 -0.004600  0.000002
  0O   1dyz       0.000003  0.000001 -0.000002 -0.000001 -0.006501  0.000003
  0O   1dx2y2     0.002863 -0.024058 -0.004837  0.000087 -0.000001  0.023480
  0O   1dxy       0.001000 -0.008524  0.013609 -0.000244  0.000000  0.008303
  0O   2dz2       0.000025 -0.000111  0.029759 -0.246602  0.000001  0.000029
  0O   2dxz      -0.000024 -0.000003 -0.000010 -0.000005  0.018141 -0.000006
  0O   2dyz      -0.000035 -0.000005  0.000007  0.000003  0.025591 -0.000008
  0O   2dx2y2    -0.034546  0.088050  0.001263  0.017857 -0.000012 -0.390349
  0O   2dxy      -0.012164  0.031135 -0.003408 -0.050027 -0.000007 -0.138278
  0O   1f0        0.000010 -0.000001 -0.000000 -0.000000 -0.005677  0.000002
  0O   1f+1       0.002009 -0.011780 -0.001515 -0.009781  0.000000  0.021879
  0O   1f-1      -0.001423  0.008320 -0.002132 -0.013826 -0.000000 -0.015451
  0O   1f+2      -0.000001 -0.000000  0.000002 -0.000002  0.000476 -0.000000
  0O   1f-2       0.000003  0.000000  0.000001 -0.000001 -0.001307  0.000000
  0O   1f+3      -0.000110 -0.002110 -0.008214 -0.025977  0.000000  0.005374
  0O   1f-3      -0.000396 -0.007462  0.002303  0.007296  0.000002  0.018946
  1H   1s         0.036230 -0.129173 -0.121345  0.022211 -0.000019 -0.049265
  1H   2s         0.193618 -1.436234 -1.065307 -2.202825  0.000061  1.499352
  1H   3s         1.540169  0.805612  0.704175 -0.329784 -0.000223  1.510018
  1H   1pz       -0.000017 -0.000007 -0.000013 -0.000002 -0.008711 -0.000015
  1H   1px        0.017098  0.044379  0.020091  0.030299 -0.000007 -0.056478
  1H   1py        0.002995 -0.005081  0.000073 -0.001167 -0.000004 -0.001328
  1H   2pz        0.000127  0.000015  0.000071  0.000040  0.023125  0.000143
  1H   2px       -0.101570  0.014512 -0.235615  0.936556 -0.000018 -1.006748
  1H   2py       -0.006459 -0.038403  0.152389  0.004537  0.000045 -0.065514
  1H   1dz2      -0.004684  0.007769  0.005757  0.039422  0.000005 -0.046863
  1H   1dxz      -0.000022  0.000004  0.000006 -0.000003  0.021284 -0.000003
  1H   1dyz       0.000004 -0.000007  0.000002  0.000007  0.000427  0.000005
  1H   1dx2y2     0.007753 -0.025893  0.004432 -0.060779  0.000002  0.086720
  1H   1dxy      -0.001778  0.000619 -0.008861  0.005003 -0.000001  0.004672
  2H   1s        -0.036226  0.129383 -0.121217  0.022171  0.000019  0.049247
  2H   2s        -0.193964  1.436812 -1.063494 -2.202322 -0.000015 -1.498400
  2H   3s        -1.540687 -0.806689  0.702540 -0.329669  0.000211 -1.509763
  2H   1pz       -0.000017 -0.000008  0.000012  0.000002 -0.008738 -0.000014
  2H   1px        0.002878  0.019628 -0.006627 -0.011195 -0.000000 -0.017587
  2H   1py       -0.017123 -0.040130  0.018902  0.028136  0.000007  0.053631
  2H   2pz        0.000128  0.000020 -0.000065 -0.000033  0.023562  0.000138
  2H   2px       -0.027883  0.040490  0.222564 -0.308202 -0.000017 -0.274749
  2H   2py        0.098018 -0.000407 -0.171063  0.883940  0.000008  0.970312
  2H   1dz2       0.004700 -0.007742  0.005717  0.039376 -0.000005  0.046797
  2H   1dxz       0.000010 -0.000007 -0.000001 -0.000007 -0.006696  0.000007
  2H   1dyz      -0.000020  0.000002 -0.000006  0.000001  0.020168 -0.000001
  2H   1dx2y2     0.004931 -0.019723  0.002088  0.044057  0.000002  0.070226
  2H   1dxy       0.006280 -0.016742 -0.009703  0.042079  0.000001  0.050932
                     12        13        14        15        16        17   
                   0.63175   0.69468   0.78163   0.92767   1.02443   1.30510
                   0.00000   0.00000   0.00000   0.00000   0.00000   0.00000
                  --------  --------  --------  --------  --------  --------
  0O   1s         0.020739 -0.000022 -0.000003  0.266700  0.000125  0.000136
  0O   2s         0.130188 -0.000047 -0.000010  0.879132  0.000332  0.000512
  0O   3s         0.027417  0.000015 -0.000002  0.299747 -0.000094  0.000400
  0O   4s         0.755527 -0.001437  0.000013 -6.990347 -0.003226  0.003617
  0O   1pz       -0.000005 -0.000104  0.022300  0.000000  0.000012 -0.000007
  0O   1px        0.030822 -0.000011  0.000024 -0.027025  0.022604  0.156604
  0O   1py        0.043948 -0.000015 -0.000020 -0.038155 -0.016123 -0.110427
  0O   2pz       -0.000013 -0.000126  0.038667  0.000000  0.000019 -0.000028
  0O   2px        0.084077 -0.000134  0.000278 -0.559381  0.157190  0.888173
  0O   2py        0.118403 -0.000196 -0.000199 -0.791698 -0.111652 -0.626602
  0O   3pz        0.000064  0.000194  1.121851  0.000004  0.000155 -0.000079
  0O   3px        0.771652 -0.000421 -0.000289 -1.028818  1.379434  0.718058
  0O   3py        1.090027 -0.000678  0.000170 -1.456274 -0.975770 -0.506769
  0O   1dz2       0.010281 -0.000008 -0.000000 -0.011090 -0.000009  0.000017
  0O   1dxz       0.000006  0.020845 -0.013109  0.000001 -0.000002  0.000001
  0O   1dyz      -0.000006 -0.014733 -0.018549 -0.000001 -0.000002  0.000001
  0O   1dx2y2     0.011433 -0.000002  0.000003  0.001804 -0.002959 -0.006015
  0O   1dxy      -0.032265  0.000006  0.000002 -0.005111 -0.001051 -0.002111
  0O   2dz2      -0.011713  0.000062 -0.000002  0.216821  0.000059  0.000019
  0O   2dxz      -0.000006  0.002205 -0.017518 -0.000042 -0.000029  0.000063
  0O   2dyz       0.000007 -0.001515 -0.024859  0.000029 -0.000030  0.000089
  0O   2dx2y2    -0.038314 -0.000001  0.000077 -0.055201  0.074445 -0.066134
  0O   2dxy       0.108826  0.000011  0.000026  0.156095  0.026195 -0.023611
  0O   1f0       -0.000001 -0.000002 -0.015344 -0.000000 -0.000002  0.000005
  0O   1f+1      -0.005698  0.000002 -0.000002  0.020836 -0.007877  0.002019
  0O   1f-1      -0.008009  0.000004  0.000002  0.029495  0.005571 -0.001418
  0O   1f+2      -0.000005 -0.012921  0.001997 -0.000003  0.000001 -0.000001
  0O   1f-2      -0.000002 -0.004580 -0.005606 -0.000001 -0.000003  0.000002
  0O   1f+3       0.010157  0.000008 -0.000003  0.075007  0.001013  0.001129
  0O   1f-3      -0.002858 -0.000002 -0.000008 -0.021141  0.003575  0.003922
  1H   1s        -0.000286 -0.000033  0.000030 -0.035630  0.009009 -0.153582
  1H   2s        -0.970959  0.000988 -0.000265  2.859442 -0.954938 -1.234881
  1H   3s         0.244396 -0.000136  0.000210  0.655909 -0.109151 -0.873062
  1H   1pz       -0.000017 -0.048408  0.060741 -0.000003  0.000003  0.000003
  1H   1px        0.000979 -0.000010  0.000006 -0.105775  0.020145 -0.075283
  1H   1py        0.035097 -0.000016  0.000021 -0.017089 -0.069961 -0.002091
  1H   2pz        0.000218  0.822754 -0.974889 -0.000053 -0.000168  0.000084
  1H   2px        0.104842 -0.000368  0.000325 -1.340994  0.167638  1.776562
  1H   2py       -0.842103  0.000261 -0.000200  0.067827  1.198996  0.004134
  1H   1dz2       0.006502  0.000005  0.000003 -0.104856  0.013173  0.036565
  1H   1dxz      -0.000009 -0.023528  0.034037 -0.000005  0.000008 -0.000023
  1H   1dyz      -0.000019 -0.013240 -0.019952  0.000002  0.000016  0.000015
  1H   1dx2y2     0.004486  0.000014 -0.000028  0.146587 -0.011260 -0.084377
  1H   1dxy       0.054186 -0.000002  0.000003  0.032103 -0.014257  0.002520
  2H   1s        -0.000413 -0.000032 -0.000031 -0.035684 -0.009012  0.153327
  2H   2s        -0.969372  0.001042  0.000291  2.860187  0.957335  1.231829
  2H   3s         0.245770 -0.000127 -0.000229  0.656572  0.109921  0.872119
  2H   1pz        0.000022  0.048382  0.060733  0.000004  0.000003  0.000003
  2H   1px        0.032740 -0.000006 -0.000019  0.019127  0.072622 -0.023126
  2H   1py        0.012532 -0.000014 -0.000011 -0.105441  0.004354  0.071458
  2H   2pz       -0.000289 -0.822641 -0.974958  0.000046 -0.000139  0.000083
  2H   2px       -0.828252  0.000323  0.000347  0.512762 -1.073491  0.588518
  2H   2py       -0.183604 -0.000288 -0.000218 -1.241963 -0.559978 -1.672583
  2H   1dz2       0.006401  0.000005 -0.000002 -0.104928 -0.013273 -0.036530
  2H   1dxz       0.000012  0.004620 -0.030164 -0.000004  0.000013  0.000019
  2H   1dyz       0.000017  0.026615  0.025408  0.000004  0.000009 -0.000018
  2H   1dx2y2    -0.037728 -0.000010 -0.000015 -0.134149 -0.017810 -0.063951
  2H   1dxy       0.039213 -0.000012 -0.000023 -0.067301  0.003951 -0.055075
                     18        19        20        21        22        23   
                   1.33051   1.77178   1.79405   1.81931   1.90081   1.96261
                   0.00000   0.00000   0.00000   0.00000   0.00000   0.00000
                  --------  --------  --------  --------  --------  --------
  0O   1s         0.291757  0.000003  0.000046  0.000274  0.158564 -0.117824
  0O   2s         0.853250  0.000008  0.000096  0.000576  0.385225 -0.262150
  0O   3s         0.251935  0.000001 -0.000006 -0.000132  0.062620  0.042310
  0O   4s         2.155725  0.000021  0.000983 -0.002646  2.057777 -7.032872
  0O   1pz        0.000000  0.006245  0.000097  0.000010  0.000000  0.000000
  0O   1px        0.107575 -0.000017 -0.000001 -0.040119  0.032716 -0.083776
  0O   1py        0.152354  0.000013 -0.000003  0.028213  0.046524 -0.118724
  0O   2pz        0.000000 -0.043599 -0.000159  0.000064  0.000002  0.000000
  0O   2px        0.343991 -0.001912  0.000100 -1.445656  0.202143 -0.523786
  0O   2py        0.488468  0.001358  0.000099  1.021358  0.284642 -0.742726
  0O   3pz        0.000001 -0.729061 -0.001197  0.001051  0.000020  0.000003
  0O   3px        0.207578 -0.003062  0.000231 -2.317050  0.076312 -1.615563
  0O   3py        0.293556  0.002157  0.000248  1.635762  0.105704 -2.288868
  0O   1dz2       0.010270 -0.000000 -0.000000  0.000006 -0.001801  0.004527
  0O   1dxz       0.000002  0.003171 -0.004018 -0.000003  0.000000 -0.000000
  0O   1dyz      -0.000001  0.004466  0.002851 -0.000005 -0.000000  0.000000
  0O   1dx2y2    -0.002642 -0.000019 -0.000000 -0.014392  0.000605  0.000740
  0O   1dxy       0.007435 -0.000007  0.000002 -0.005085 -0.001640 -0.002069
  0O   2dz2       0.186519  0.000001 -0.000222  0.000779 -0.186226  1.459089
  0O   2dxz       0.000033 -0.672448  0.999630  0.000917 -0.000160  0.000133
  0O   2dyz      -0.000025 -0.948233 -0.708716  0.001265  0.000147 -0.000090
  0O   2dx2y2    -0.041909 -0.002183  0.000101 -1.615326  0.445246  0.034451
  0O   2dxy       0.119203 -0.000806 -0.000220 -0.572909 -1.254454 -0.094357
  0O   1f0       -0.000000  0.007437  0.000033 -0.000006 -0.000000  0.000000
  0O   1f+1       0.012254  0.000122 -0.000006  0.090222 -0.010660  0.027902
  0O   1f-1       0.017353 -0.000086 -0.000006 -0.063734 -0.014934  0.039580
  0O   1f+2      -0.000007  0.003403  0.015656 -0.000005 -0.000001  0.000001
  0O   1f-2      -0.000003 -0.009591  0.005538  0.000014 -0.000000  0.000000
  0O   1f+3       0.039956  0.000032 -0.000023  0.023776 -0.061509  0.069050
  0O   1f-3      -0.011295  0.000117  0.000005  0.084232  0.017264 -0.019522
  1H   1s        -0.116565 -0.000589  0.000107 -0.414719  0.224366 -0.222478
  1H   2s        -0.934029  0.005984 -0.000831  4.479891 -1.461652  4.306242
  1H   3s        -0.335729  0.000226  0.000056  0.288463 -0.013217  0.166427
  1H   1pz        0.000002 -0.036036  0.050662  0.000029 -0.000003 -0.000001
  1H   1px       -0.137292 -0.000294  0.000030 -0.206809  0.046321 -0.079428
  1H   1py       -0.007439 -0.000065 -0.000010 -0.043607 -0.093134 -0.006027
  1H   2pz        0.000048  0.689388 -0.618244 -0.001014  0.000106 -0.000108
  1H   2px        1.379437 -0.002779  0.000277 -2.187008  0.693890 -1.740500
  1H   2py        0.069238 -0.000026  0.000105 -0.015307  0.704373  0.242400
  1H   1dz2      -0.001180 -0.000158 -0.000003 -0.120290  0.028255 -0.052584
  1H   1dxz      -0.000025 -0.021323  0.035266  0.000028 -0.000001  0.000004
  1H   1dyz       0.000001 -0.068530 -0.042150  0.000098  0.000020 -0.000005
  1H   1dx2y2     0.028658  0.000353 -0.000021  0.262998 -0.034220  0.127252
  1H   1dxy       0.006063  0.000021 -0.000018  0.015901 -0.046675 -0.001553
  2H   1s        -0.116951  0.000597  0.000096  0.414766  0.223561 -0.222866
  2H   2s        -0.935044 -0.006019 -0.000705 -4.477221 -1.456909  4.311288
  2H   3s        -0.337281 -0.000225  0.000068 -0.288243 -0.013237  0.166819
  2H   1pz       -0.000002 -0.035858 -0.050767  0.000028  0.000003  0.000001
  2H   1px        0.038884 -0.000042 -0.000020 -0.028017 -0.103146  0.020924
  2H   1py       -0.132093  0.000298  0.000020  0.209350  0.012328 -0.077058
  2H   2pz       -0.000050  0.687451  0.620506 -0.000994 -0.000145  0.000103
  2H   2px       -0.397003 -0.000881  0.000014 -0.714420  0.433223  0.810469
  2H   2py        1.326090  0.002656  0.000234  2.066164  0.887455 -1.562012
  2H   1dz2      -0.001176  0.000159 -0.000008  0.120268  0.028096 -0.052636
  2H   1dxz      -0.000007 -0.057570  0.051403  0.000085 -0.000016  0.000007
  2H   1dyz       0.000024 -0.042937 -0.019307  0.000058 -0.000002 -0.000002
  2H   1dx2y2    -0.026041  0.000288  0.000022  0.214214  0.055792 -0.098093
  2H   1dxy      -0.013228  0.000205 -0.000003  0.153031 -0.014903 -0.081483
                     24        25        26        27        28        29   
                   2.25908   2.61906   3.06315   3.20088   3.28398   3.36685
                   0.00000   0.00000   0.00000   0.00000   0.00000   0.00000
                  --------  --------  --------  --------  --------  --------
  0O   1s         0.211435  0.000107  0.000001  0.012763 -0.000007 -0.000297
  0O   2s         0.417806  0.000116  0.000002  0.036739 -0.000011 -0.000433
  0O   3s         0.027272 -0.000235 -0.000000 -0.007224 -0.000003  0.000438
  0O   4s         0.604249 -0.000269  0.000025  1.082849  0.000114 -0.000325
  0O   1pz       -0.000000  0.000014  0.144644 -0.000008 -0.000516 -0.000097
  0O   1px       -0.118745  0.268734  0.000012 -0.041315  0.000014  0.026243
  0O   1py       -0.168603 -0.189755 -0.000011 -0.058285  0.000019 -0.018335
  0O   2pz        0.000000 -0.000014 -0.105319  0.000006  0.000502  0.000086
  0O   2px        0.213783 -0.407227 -0.000001  0.028828 -0.000018 -0.101050
  0O   2py        0.302805  0.287450  0.000006  0.040420 -0.000018  0.071282
  0O   3pz       -0.000000  0.000019 -0.106751 -0.000001 -0.000086 -0.000048
  0O   3px        0.216759  0.441268  0.000033  0.210401  0.000027 -0.095192
  0O   3py        0.306152 -0.311970 -0.000010  0.297651  0.000036  0.067118
  0O   1dz2      -0.014094 -0.000033 -0.000000  0.010632  0.000003 -0.000005
  0O   1dxz       0.000000  0.000000 -0.016042  0.000003 -0.045474  0.000003
  0O   1dyz      -0.000000  0.000000 -0.022656 -0.000001  0.032185  0.000000
  0O   1dx2y2     0.003351  0.005915  0.000003 -0.015612 -0.000004 -0.063213
  0O   1dxy      -0.009481  0.002041  0.000002  0.044053  0.000002 -0.022402
  0O   2dz2       0.226203 -0.000036  0.000005  0.260394  0.000026  0.000007
  0O   2dxz      -0.000016  0.000008 -0.176844 -0.000012 -0.034091 -0.000037
  0O   2dyz       0.000012  0.000013 -0.250085  0.000010  0.024120 -0.000044
  0O   2dx2y2    -0.132785  0.651333  0.000031  0.106422 -0.000006 -0.316838
  0O   2dxy       0.376083  0.230402  0.000010 -0.300647 -0.000017 -0.112016
  0O   1f0       -0.000000  0.000005  0.012798 -0.000001 -0.000049 -0.000003
  0O   1f+1      -0.034259  0.096844 -0.000006 -0.061617 -0.000007  0.046241
  0O   1f-1      -0.048572 -0.068398  0.000002 -0.087180 -0.000013 -0.032650
  0O   1f+2       0.000005 -0.000001 -0.045467  0.000014 -0.122100  0.000001
  0O   1f-2       0.000002  0.000001  0.128247  0.000002 -0.043267  0.000016
  0O   1f+3      -0.108369  0.015470  0.000001 -0.006814  0.000000 -0.001311
  0O   1f-3       0.030509  0.054623  0.000005  0.001948  0.000001 -0.004129
  1H   1s         0.950650 -0.878639  0.000003  0.297488  0.000050  0.310377
  1H   2s        -1.517414  0.719502 -0.000055 -0.879252 -0.000085 -0.015681
  1H   3s         0.366959 -0.604095 -0.000020  0.042039  0.000001  0.217588
  1H   1pz        0.000011 -0.000012 -0.225962  0.000048 -0.492984  0.000060
  1H   1px        0.118419 -0.154593 -0.000003  0.100305  0.000030  0.237480
  1H   1py        0.010859  0.015227 -0.000003  0.031213 -0.000015 -0.101196
  1H   2pz        0.000014 -0.000021  0.217753  0.000007  0.298695 -0.000017
  1H   2px        0.210811  0.005291  0.000027  0.239828  0.000006 -0.336436
  1H   2py       -0.139751 -0.031139 -0.000022  0.054019  0.000024  0.099100
  1H   1dz2       0.136205  0.151054 -0.000037 -0.582313 -0.000047  0.397490
  1H   1dxz       0.000009 -0.000012  0.020206 -0.000007  0.096697 -0.000039
  1H   1dyz      -0.000004 -0.000002  0.629037  0.000046 -0.546611  0.000065
  1H   1dx2y2     0.050306  0.125682 -0.000028 -0.242148  0.000004  0.509929
  1H   1dxy       0.058331  0.002017 -0.000012 -0.283530 -0.000013 -0.182007
  2H   1s         0.951292  0.878138  0.000014  0.297330  0.000026 -0.310365
  2H   2s        -1.517539 -0.718669  0.000008 -0.878843 -0.000076  0.016133
  2H   3s         0.367469  0.603943  0.000025  0.041978 -0.000012 -0.217553
  2H   1pz       -0.000010 -0.000012 -0.225695 -0.000035  0.493585  0.000012
  2H   1px       -0.029393 -0.066009  0.000001 -0.003916 -0.000002  0.174306
  2H   1py        0.115239  0.140397  0.000006  0.104963  0.000012 -0.189872
  2H   2pz       -0.000014 -0.000022  0.217550 -0.000014 -0.299122  0.000008
  2H   2px       -0.201977  0.031385  0.000023 -0.029183  0.000001 -0.205560
  2H   2py        0.151848  0.005410 -0.000009  0.243903  0.000026  0.283669
  2H   1dz2       0.136225 -0.151197  0.000018 -0.582580 -0.000076 -0.397120
  2H   1dxz       0.000003  0.000003  0.586808 -0.000062  0.547231  0.000039
  2H   1dyz      -0.000008 -0.000012  0.229071 -0.000020  0.091055 -0.000015
  2H   1dx2y2    -0.075903  0.099008 -0.000016  0.366702  0.000029  0.281731
  2H   1dxy       0.013561  0.077446 -0.000006 -0.067783  0.000021  0.462476
                     30        31        32        33        34        35   
                   3.38150   3.53573   3.59899   3.65749   3.70291   3.72598
                   0.00000   0.00000   0.00000   0.00000   0.00000   0.00000
                  --------  --------  --------  --------  --------  --------
  0O   1s        -0.000000 -0.000024  0.092995 -0.000025 -0.000003  0.000603
  0O   2s        -0.000001 -0.000004  0.212855 -0.000065 -0.000006  0.000894
  0O   3s        -0.000000  0.000170  0.078057 -0.000028 -0.000002 -0.000449
  0O   4s        -0.000000  0.000178  0.075453 -0.000320  0.000007  0.004131
  0O   1pz        0.906158  0.000033 -0.000011 -0.000065 -0.422062  0.000256
  0O   1px        0.000040  0.102965  0.008988  0.000045  0.000420  0.565616
  0O   1py       -0.000027 -0.072742  0.012465  0.000066 -0.000300 -0.401189
  0O   2pz       -0.832454 -0.000021  0.000002  0.000165  0.188866 -0.000071
  0O   2px       -0.000052 -0.147449 -0.079968 -0.000090 -0.001066 -1.288815
  0O   2py        0.000035  0.104108 -0.112287 -0.000137  0.000760  0.912807
  0O   3pz        0.371602  0.000030 -0.000019  0.000101 -0.699811  0.000513
  0O   3px        0.000026 -0.683881 -0.193832 -0.000040 -0.000396 -0.458482
  0O   3py       -0.000017  0.483042 -0.274612 -0.000039  0.000292  0.324953
  0O   1dz2       0.000000 -0.000043 -0.009834  0.000006  0.000000 -0.000209
  0O   1dxz      -0.019948 -0.000001  0.000001 -0.014274 -0.005704  0.000006
  0O   1dyz      -0.028124 -0.000001 -0.000001  0.010069 -0.008093  0.000009
  0O   1dx2y2    -0.000011  0.015698 -0.002811  0.000000 -0.000110 -0.161560
  0O   1dxy      -0.000003  0.005460  0.007774  0.000001 -0.000039 -0.057357
  0O   2dz2       0.000002  0.000064  0.010942  0.000024 -0.000002 -0.000128
  0O   2dxz       0.205960  0.000002 -0.000015  0.169655 -0.153403  0.000124
  0O   2dyz       0.291275  0.000015 -0.000000 -0.119883 -0.217134  0.000167
  0O   2dx2y2    -0.000020 -0.376996  0.102246 -0.000020  0.000046  0.175172
  0O   2dxy      -0.000007 -0.133784 -0.288076  0.000027  0.000019  0.061469
  0O   1f0        0.056876 -0.000006  0.000004 -0.000015  0.176968 -0.000132
  0O   1f+1      -0.000002  0.016900  0.040170  0.000004  0.000017  0.016547
  0O   1f-1       0.000001 -0.011942  0.056864  0.000004 -0.000014 -0.011734
  0O   1f+2       0.015775  0.000001  0.000002 -0.166679 -0.003136  0.000001
  0O   1f-2      -0.044800  0.000002  0.000001 -0.058958  0.008704 -0.000006
  0O   1f+3       0.000000 -0.048310 -0.166126 -0.000005  0.000010  0.007083
  0O   1f-3      -0.000000 -0.170841  0.046910 -0.000001  0.000016  0.024044
  1H   1s         0.000052  0.035952 -0.024636  0.000019 -0.000117 -0.194108
  1H   2s        -0.000028  0.668595 -0.000804  0.000175  0.001230  1.440821
  1H   3s         0.000014  0.036039 -0.055456  0.000017  0.000246  0.343659
  1H   1pz       -0.422603  0.000028 -0.000007 -0.688458 -0.699323  0.000527
  1H   1px        0.000052 -0.099068 -0.062323  0.000027  0.000398  0.590502
  1H   1py       -0.000026  0.791148 -0.716747 -0.000020  0.000132  0.117685
  1H   2pz        0.143562 -0.000025  0.000016  0.440158  0.733765 -0.000566
  1H   2px       -0.000048 -0.177425  0.174274 -0.000141 -0.001203 -1.481150
  1H   2py        0.000023 -0.663621  0.623260 -0.000008 -0.000152 -0.171310
  1H   1dz2       0.000025  0.035865  0.133399 -0.000008 -0.000345 -0.396757
  1H   1dxz       0.245569  0.000025 -0.000019 -0.158809 -0.469645  0.000354
  1H   1dyz      -0.197547 -0.000007 -0.000018  0.460425 -0.114844  0.000088
  1H   1dx2y2     0.000059 -0.001287 -0.039174  0.000041  0.000214  0.220675
  1H   1dxy      -0.000016 -0.198702 -0.472439 -0.000003  0.000135  0.208770
  2H   1s        -0.000049 -0.036065 -0.024493  0.000012  0.000118  0.194215
[...]
      dyz     :     0.001214
      dx2y2   :     0.007932
      dxy     :     0.001382
      f0      :     0.000105  f :     0.000642
      f+1     :     0.000211
      f-1     :     0.000194
      f+2     :     0.000001
      f-2     :     0.000008
      f+3     :     0.000150
      f-3     :    -0.000026
  1 H s       :     0.657998  s :     0.657998
      pz      :     0.032296  p :     0.081182
      px      :     0.027058
      py      :     0.021827
      dz2     :     0.000646  d :     0.007036
      dxz     :     0.002723
      dyz     :    -0.000001
      dx2y2   :     0.001734
      dxy     :     0.001933
  2 H s       :     0.658148  s :     0.658148
      pz      :     0.032310  p :     0.081503
      px      :     0.017621
      py      :     0.031572
      dz2     :     0.000651  d :     0.007039
      dxz     :     0.000283
      dyz     :     0.002434
      dx2y2   :     0.002283
      dxy     :     0.001387


                     *******************************
                     * LOEWDIN POPULATION ANALYSIS *
                     *******************************

----------------------
LOEWDIN ATOMIC CHARGES
----------------------
   0 O :    0.338230
   1 H :   -0.168940
   2 H :   -0.169290

-------------------------------
LOEWDIN REDUCED ORBITAL CHARGES
-------------------------------
  0 O s       :     3.177882  s :     3.177882
      pz      :     1.695333  p :     4.446773
      px      :     1.327441
      py      :     1.423999
      dz2     :     0.005741  d :     0.033921
      dxz     :     0.000240
      dyz     :     0.000483
      dx2y2   :     0.021868
      dxy     :     0.005588
      f0      :     0.000435  f :     0.003194
      f+1     :     0.000308
      f-1     :     0.000219
      f+2     :     0.000005
      f-2     :     0.000037
      f+3     :     0.001284
      f-3     :     0.000905
  1 H s       :     0.710451  s :     0.710451
      pz      :     0.115290  p :     0.361173
      px      :     0.162479
      py      :     0.083404
      dz2     :     0.007684  d :     0.097315
      dxz     :     0.036331
      dyz     :     0.000046
      dx2y2   :     0.023734
      dxy     :     0.029520
  2 H s       :     0.710498  s :     0.710498
      pz      :     0.115384  p :     0.361417
      px      :     0.075497
      py      :     0.170536
      dz2     :     0.007685  d :     0.097375
      dxz     :     0.003277
      dyz     :     0.033138
      dx2y2   :     0.029731
      dxy     :     0.023544


                      *****************************
                      * MAYER POPULATION ANALYSIS *
                      *****************************

  NA   - Mulliken gross atomic population
  ZA   - Total nuclear charge
  QA   - Mulliken gross atomic charge
  VA   - Mayer's total valence
  BVA  - Mayer's bonded valence
  FA   - Mayer's free valence

  ATOM       NA         ZA         QA         VA         BVA        FA
  0 O      8.5071     8.0000    -0.5071     1.9890     1.9890    -0.0000
  1 H      0.7462     1.0000     0.2538     1.0045     1.0045    -0.0000
  2 H      0.7467     1.0000     0.2533     1.0053     1.0053    -0.0000

  Mayer bond orders larger than 0.100000
B(  0-O ,  1-H ) :   0.9941 B(  0-O ,  2-H ) :   0.9949 

-------
TIMINGS
-------

Total SCF time: 0 days 0 hours 0 min 1 sec 

Total time                  ....       1.623 sec
Sum of individual times     ....       1.524 sec  ( 93.9%)

Fock matrix formation       ....       1.202 sec  ( 74.1%)
  Split-RI-J                ....       0.344 sec  ( 28.6% of F)
  Chain of spheres X        ....       0.250 sec  ( 20.8% of F)
  COS-X 1 center corr.      ....       0.000 sec  (  0.0% of F)
  XC integration            ....       0.055 sec  (  4.5% of F)
    Basis function eval.    ....       0.017 sec  ( 30.2% of XC)
    Density eval.           ....       0.007 sec  ( 13.1% of XC)
    XC-Functional eval.     ....       0.007 sec  ( 13.3% of XC)
    XC-Potential eval.      ....       0.011 sec  ( 20.3% of XC)
Diagonalization             ....       0.001 sec  (  0.0%)
Density matrix formation    ....       0.001 sec  (  0.0%)
Population analysis         ....       0.002 sec  (  0.1%)
Initial guess               ....       0.002 sec  (  0.1%)
Orbital Transformation      ....       0.000 sec  (  0.0%)
Orbital Orthonormalization  ....       0.001 sec  (  0.0%)
DIIS solution               ....       0.000 sec  (  0.0%)
SOSCF solution              ....       0.001 sec  (  0.1%)
Grid generation             ....       0.315 sec  ( 19.4%)


-------------------------------------------------------------------------------
                          DFT DISPERSION CORRECTION                            
                                                                               
                              DFTD3 V3.1  Rev 1                                
                          USING Becke-Johnson damping                          
-------------------------------------------------------------------------------
The B3LYP functional is recognized
Active option DFTDOPT                   ...         4   

molecular C6(AA) [au] = 44.534986 


            DFT-D V3
 parameters
 s6 scaling factor         :     1.0000 
 a1 scaling factor         :     0.3981 
 s8 scaling factor         :     1.9889 
 a2 scaling factor         :     4.4211 
 ad hoc parameters k1-k3   :    16.0000     1.3333    -4.0000 

 Edisp/kcal,au: -0.360126361158  -0.000573897826 
 E6   /kcal   :  -0.196938352 
 E8   /kcal   :  -0.163188009 
 % E8         :  45.314097028 

-------------------------   ----------------
Dispersion correction           -0.000573898
-------------------------   ----------------


-------------------------   --------------------
FINAL SINGLE POINT ENERGY       -76.430573164388
-------------------------   --------------------

                                *** OPTIMIZATION RUN DONE ***

                            ***************************************
                            *     ORCA property calculations      *
                            ***************************************

                                    ---------------------
                                    Active property flags
                                    ---------------------
   (+) Dipole Moment


------------------------------------------------------------------------------
                       ORCA ELECTRIC PROPERTIES CALCULATION
------------------------------------------------------------------------------

Dipole Moment Calculation                       ... on
Quadrupole Moment Calculation                   ... off
Polarizability Calculation                      ... off
GBWName                                         ... /tmp/slurm-scratch/opt+freq.43/opt+freq.gbw
Electron density file                           ... /tmp/slurm-scratch/opt+freq.43/opt+freq.scfp
The origin for moment calculation is the CENTER OF MASS  = ( 1.602239,  0.350427  0.000000)

-------------
DIPOLE MOMENT
-------------
                                X             Y             Z
Electronic contribution:     -0.07845      -0.11038      -0.00000
Nuclear contribution   :      0.57065       0.80710       0.00000
                        -----------------------------------------
Total Dipole Moment    :      0.49220       0.69672      -0.00000
                        -----------------------------------------
Magnitude (a.u.)       :      0.85304
Magnitude (Debye)      :      2.16826



--------------------
Rotational spectrum 
--------------------
 
Rotational constants in cm-1:    26.706334    14.475014     9.387127 
Rotational constants in MHz : 800635.760798 433950.008820 281419.002236 

 Dipole components along the rotational axes: 
x,y,z [a.u.] :    -0.000180     0.853041    -0.000001 
x,y,z [Debye]:    -0.000459     2.168258    -0.000001 

 


           ************************************************************
           *        Program running with 8 parallel MPI-processes     *
           *              working on a common directory               *
           ************************************************************

-------------------------------------------------------------------------------
                               ORCA SCF HESSIAN
-------------------------------------------------------------------------------

Hessian of the Kohn-Sham DFT energy:
Kohn-Sham wavefunction type                      ... RKS
Hartree-Fock exchange scaling                    ...    0.200
Number of operators                              ...    1
Number of atoms                                  ...    3
Basis set dimensions                             ...   58
Integral neglect threshold                       ... 2.5e-11
Integral primitive cutoff                        ... 2.5e-12

Setting up DFT Hessian calculations              ... 
Electron density on the grid                     ... found on disk
Electron density on the final grid               ... found on disk
Building xc-kernel on the grid                   ... done   (      0.0 sec)
Building xc-kernel on the final grid             ... done   (      0.0 sec)
                                                     done   (      0.0 sec)

Nuclear repulsion Hessian                        ... done   (      0.0 sec)

----------------------------------------------
Forming right-hand sides of CP-SCF equations     ...
----------------------------------------------
One electron integral derivatives                ... done   (      0.5 sec)
Transforming the overlap derivative matrices     ... done   (      0.0 sec)
Adding tr(S(x)F(y) C-PCM term to the hessian     ... done   (      0.1 sec)
Making the Q(x) pseudodensities                  ... done   (      0.0 sec)
Adding the E*S(x)*S(y) terms to the Hessian      ... done   (      0.0 sec)
Calculating energy weighted overlap derivatives  ... done   (      0.0 sec)
Two electron integral derivatives (RI)           ... done   (      0.3 sec)
Exchange-correlation integral derivatives        ... done   (      0.2 sec)
tr(F(y)Q(x)) contribution to the Hessian         ... done   (      0.0 sec)
Response fock operator R(S(x)) (RIJCOSX)         ... done   (      0.3 sec)
XC Response fock operator R(S(x))                ... done   (      0.1 sec)
tr(F(y)S(x)) contribution to the Hessian         ... done   (      0.0 sec)
Transforming and finalizing RHSs                 ... done   (      0.0 sec)

----------------------------------------------
Solving the CP-SCF equations (RIJCOSX)           ...
----------------------------------------------
     CP-SCF ITERATION   0: 
     CP-SCF ITERATION   1:      0.001031913935
     CP-SCF ITERATION   2:      0.000012460791
     CP-SCF ITERATION   3:      0.000000223037
     CP-SCF ITERATION   4:      0.000000009668

                                                 ... done   (      1.6 sec)
Forming perturbed density Hessian contributions  ... done   (      0.0 sec)
Calculating [Q*(d^2 A/dXdY)*Q  ] C-PCM term      ... done   (      0.0 sec)
Calculating [d^2(V_N)/(dXdY)*Q ] C-PCM term      ... done   (      0.0 sec)
Calculating [d^2(V_el)/(dXdY)*Q] C-PCM term      ... done   (      0.1 sec)
Calculating C-PCM term that depends on dQ/dX     ... done   (      0.0 sec)
2nd integral derivative contribs (RI)            ... done   (      0.8 sec)
Exchange-correlation Hessian                     ... done   (      0.2 sec)
Dispersion correction in the Hessian             ... done   (      0.1 sec)
Dipol derivatives                                ... done   (      0.1 sec)

Total SCF Hessian time: 0 days 0 hours 0 min 4 sec 

Writing the Hessian file to the disk             ... done


Maximum memory used throughout the entire calculation: 188.7 MB

-----------------------
VIBRATIONAL FREQUENCIES
-----------------------

Scaling factor for frequencies =  1.000000000  (already applied!)

   0:         0.00 cm**-1
   1:         0.00 cm**-1
   2:         0.00 cm**-1
   3:         0.00 cm**-1
   4:         0.00 cm**-1
   5:         0.00 cm**-1
   6:      1604.98 cm**-1
   7:      3751.31 cm**-1
   8:      3834.22 cm**-1


------------
NORMAL MODES
------------

These modes are the Cartesian displacements weighted by the diagonal matrix
M(i,i)=1/sqrt(m[i]) where m[i] is the mass of the displaced atom
Thus, these vectors are normalized but *not* orthogonal

                  0          1          2          3          4          5    
      0       0.000000   0.000000   0.000000   0.000000   0.000000   0.000000
      1       0.000000   0.000000   0.000000   0.000000   0.000000   0.000000
      2       0.000000   0.000000   0.000000   0.000000   0.000000   0.000000
      3       0.000000   0.000000   0.000000   0.000000   0.000000   0.000000
      4       0.000000   0.000000   0.000000   0.000000   0.000000   0.000000
      5       0.000000   0.000000   0.000000   0.000000   0.000000   0.000000
      6       0.000000   0.000000   0.000000   0.000000   0.000000   0.000000
      7       0.000000   0.000000   0.000000   0.000000   0.000000   0.000000
      8       0.000000   0.000000   0.000000   0.000000   0.000000   0.000000
                   6          7          8    
      0       0.040733  -0.029683  -0.056774
      1       0.057596  -0.040330   0.041015
      2       0.000000   0.000000   0.000000
      3       0.027122   0.715729   0.694453
      4      -0.704730  -0.011993   0.033829
      5       0.000000   0.000000   0.000000
      6      -0.673632  -0.244602   0.206659
      7      -0.209438   0.652112  -0.684819
      8       0.000000   0.000000   0.000000


-----------
IR SPECTRUM
-----------

 Mode    freq (cm**-1)   T**2         TX         TY         TZ
-------------------------------------------------------------------
   6:      1604.98  100.912445  ( -5.794235  -8.206052   0.000495)
   7:      3751.31   16.366836  (  2.451273   3.218399   0.001565)
   8:      3834.22   93.623379  (  7.876025  -5.620637   0.007368)

The first frequency considered to be a vibration is 6
The total number of vibrations considered is 3


--------------------------
THERMOCHEMISTRY AT 298.15K
--------------------------

Temperature         ... 298.15 K
Pressure            ... 1.00 atm
Total Mass          ... 18.02 AMU

Throughout the following assumptions are being made:
  (1) The electronic state is orbitally nondegenerate
  (2) There are no thermally accessible electronically excited states
  (3) Hindered rotations indicated by low frequency modes are not
      treated as such but are treated as vibrations and this may
      cause some error
  (4) All equations used are the standard statistical mechanics
      equations for an ideal gas
  (5) All vibrations are strictly harmonic

freq.    1604.98  E(vib)   ...       0.00 
freq.    3751.31  E(vib)   ...       0.00 
freq.    3834.22  E(vib)   ...       0.00 

------------
INNER ENERGY
------------

The inner energy is: U= E(el) + E(ZPE) + E(vib) + E(rot) + E(trans)
    E(el)   - is the total energy from the electronic structure calculation
              = E(kin-el) + E(nuc-el) + E(el-el) + E(nuc-nuc)
    E(ZPE)  - the the zero temperature vibrational energy from the frequency calculation
    E(vib)  - the the finite temperature correction to E(ZPE) due to population
              of excited vibrational states
    E(rot)  - is the rotational thermal energy
    E(trans)- is the translational thermal energy

Summary of contributions to the inner energy U:
Electronic energy                ...    -76.43057316 Eh
Zero point energy                ...      0.02093751 Eh      13.14 kcal/mol
Thermal vibrational correction   ...      0.00000317 Eh       0.00 kcal/mol
Thermal rotational correction    ...      0.00141627 Eh       0.89 kcal/mol
Thermal translational correction ...      0.00141627 Eh       0.89 kcal/mol
-----------------------------------------------------------------------
Total thermal energy                    -76.40679994 Eh


Summary of corrections to the electronic energy:
(perhaps to be used in another calculation)
Total thermal correction                  0.00283571 Eh       1.78 kcal/mol
Non-thermal (ZPE) correction              0.02093751 Eh      13.14 kcal/mol
-----------------------------------------------------------------------
Total correction                          0.02377322 Eh      14.92 kcal/mol


--------
ENTHALPY
--------

The enthalpy is H = U + kB*T
                kB is Boltzmann's constant
Total free energy                 ...    -76.40679994 Eh 
Thermal Enthalpy correction       ...      0.00094421 Eh       0.59 kcal/mol
-----------------------------------------------------------------------
Total Enthalpy                    ...    -76.40585573 Eh


Note: Rotational entropy computed according to Herzberg 
Infrared and Raman Spectra, Chapter V,1, Van Nostrand Reinhold, 1945 
Point Group:  Cs, Symmetry Number:   1  
Rotational constants in cm-1:    26.706334    14.475014     9.387127 

Vibrational entropy computed according to the QRRHO of S. Grimme
Chem.Eur.J. 2012 18 9955


-------
ENTROPY
-------

The entropy contributions are T*S = T*(S(el)+S(vib)+S(rot)+S(trans))
     S(el)   - electronic entropy
     S(vib)  - vibrational entropy
     S(rot)  - rotational entropy
     S(trans)- translational entropy
The entropies will be listed as mutliplied by the temperature to get
units of energy

Electronic entropy                ...      0.00000000 Eh      0.00 kcal/mol
Vibrational entropy               ...      0.00000358 Eh      0.00 kcal/mol
Rotational entropy                ...      0.00564124 Eh      3.54 kcal/mol
Translational entropy             ...      0.01644380 Eh     10.32 kcal/mol
-----------------------------------------------------------------------
Final entropy term                ...      0.02208862 Eh     13.86 kcal/mol

In case the symmetry of your molecule has not been determined correctly
or in case you have a reason to use a different symmetry number we print 
out the resulting rotational entropy values for sn=1,12 :
 --------------------------------------------------------
|  sn= 1 | S(rot)=       0.00564124 Eh      3.54 kcal/mol|
|  sn= 2 | S(rot)=       0.00498679 Eh      3.13 kcal/mol|
|  sn= 3 | S(rot)=       0.00460395 Eh      2.89 kcal/mol|
|  sn= 4 | S(rot)=       0.00433233 Eh      2.72 kcal/mol|
|  sn= 5 | S(rot)=       0.00412164 Eh      2.59 kcal/mol|
|  sn= 6 | S(rot)=       0.00394950 Eh      2.48 kcal/mol|
|  sn= 7 | S(rot)=       0.00380395 Eh      2.39 kcal/mol|
|  sn= 8 | S(rot)=       0.00367787 Eh      2.31 kcal/mol|
|  sn= 9 | S(rot)=       0.00356667 Eh      2.24 kcal/mol|
|  sn=10 | S(rot)=       0.00346719 Eh      2.18 kcal/mol|
|  sn=11 | S(rot)=       0.00337720 Eh      2.12 kcal/mol|
|  sn=12 | S(rot)=       0.00329504 Eh      2.07 kcal/mol|
 --------------------------------------------------------


-------------------
GIBBS FREE ENERGY
-------------------

The Gibbs free energy is G = H - T*S

Total enthalpy                    ...    -76.40585573 Eh 
Total entropy correction          ...     -0.02208862 Eh    -13.86 kcal/mol
-----------------------------------------------------------------------
Final Gibbs free energy         ...    -76.42794436 Eh

For completeness - the Gibbs free energy minus the electronic energy
G-E(el)                           ...      0.00262881 Eh      1.65 kcal/mol


Timings for individual modules:

Sum of individual times         ...       12.313 sec (=   0.205 min)
GTO integral calculation        ...        0.775 sec (=   0.013 min)   6.3 %
SCF iterations                  ...        5.755 sec (=   0.096 min)  46.7 %
SCF Gradient evaluation         ...        0.698 sec (=   0.012 min)   5.7 %
Geometry relaxation             ...        0.072 sec (=   0.001 min)   0.6 %
Analytical frequency calculation...        5.014 sec (=   0.084 min)  40.7 %
                             ****ORCA TERMINATED NORMALLY****
TOTAL RUN TIME: 0 days 0 hours 0 minutes 12 seconds 774 msec
(SLURM) EXECUTION TIME: 12.800110158 seconds.
