23
 energy: -30.657868279489 gnorm: 0.000421112294 xtb: 6.3.2 (30e43eb)
C         2.08078947888367   -1.50204571966097    0.10817102778070
C         2.67575056446726   -0.09914882235583    0.17679083742931
C         1.34144378911554    0.56157157500669   -1.84680288757589
H        -0.19719532270369   -0.86991503674632   -1.34879989199559
C         1.69668524438570    0.91515197769998   -0.40562455385371
H         2.23344256785116    0.59361041265266   -2.47656288736750
H         0.62078502354369    1.28595003948231   -2.23269574549687
C         1.72743961648869   -1.86266605981456   -1.33080686504904
H         2.90092178095115    0.15894013843965    1.21306449332999
H         3.60630974113639   -0.07123837971072   -0.39356495496907
C         0.74676447775992   -0.84897718522882   -1.92139171087050
H         1.27739916090720   -2.85553343478456   -1.38053857206828
H         2.62406795489960   -1.86669854481920   -1.95296508741385
H         2.12708647054674    1.91812346719342   -0.37272304431456
H         0.78036713793169    0.92522718550990    0.19143694997067
H         2.78852590175648   -2.23226487200297    0.50432097528514
H         1.17544184873327   -1.54131301326184    0.71947931862668
Br       -4.00694561167109    0.34912695439625    0.10020886032389
C        -0.63875283157791   -0.66492684942791   -3.86043403161178
O         0.48320992055025   -1.26175787904175   -3.25844473941640
H        -1.52865568082836   -0.75792123612194   -3.22494918181257
H        -0.47355093997285    0.39703998905274   -4.07375849642310
H        -0.80175285850656   -1.19946278932347   -4.79485889580606
