 Entering Gaussian System
 *********************************************
 Gaussian 98:
 frequency output generated by the xtb code
 *********************************************
                         Standard orientation:
 --------------------------------------------------------------------
  Center     Atomic     Atomic              Coordinates (Angstroms)
  Number     Number      Type              X           Y           Z
 --------------------------------------------------------------------
    1          6             0        2.080789   -1.502046    0.108171
    2          6             0        2.675751   -0.099149    0.176791
    3          6             0        1.341444    0.561572   -1.846803
    4          1             0       -0.197195   -0.869915   -1.348800
    5          6             0        1.696685    0.915152   -0.405625
    6          1             0        2.233443    0.593610   -2.476563
    7          1             0        0.620785    1.285950   -2.232696
    8          6             0        1.727440   -1.862666   -1.330807
    9          1             0        2.900922    0.158940    1.213064
   10          1             0        3.606310   -0.071238   -0.393565
   11          6             0        0.746764   -0.848977   -1.921392
   12          1             0        1.277399   -2.855533   -1.380539
   13          1             0        2.624068   -1.866699   -1.952965
   14          1             0        2.127086    1.918123   -0.372723
   15          1             0        0.780367    0.925227    0.191437
   16          1             0        2.788526   -2.232265    0.504321
   17          1             0        1.175442   -1.541313    0.719479
   18         35             0       -4.006946    0.349127    0.100209
   19          6             0       -0.638753   -0.664927   -3.860434
   20          8             0        0.483210   -1.261758   -3.258445
   21          1             0       -1.528656   -0.757921   -3.224949
   22          1             0       -0.473551    0.397040   -4.073758
   23          1             0       -0.801753   -1.199463   -4.794859
 --------------------------------------------------------------------
     1 basis functions        1 primitive gaussians
     1 alpha electrons        1 beta electrons

 Harmonic frequencies (cm**-1), IR intensities (KM/Mole),
 Raman scattering activities (A**4/amu), Raman depolarization ratios,
 reduced masses (AMU), force constants (mDyne/A) and normal coordinates:
                      1                      2                      3
                        a                      a                      a 
 Frequencies --     6.5411                13.5759                33.6058
 Red. masses --    26.5488                19.5452                36.2843
 Frc consts  --     0.0000                 0.0000                 0.0000
 IR Inten    --     0.7696                 0.5149                 0.7037
 Raman Activ --     0.0000                 0.0000                 0.0000
 Depolar     --     0.0000                 0.0000                 0.0000
 Atom AN      X      Y      Z        X      Y      Z        X      Y      Z
   1   6     0.01   0.03   0.05    -0.45   0.09   0.16    -0.05   0.03   0.05
   2   6     0.28  -0.07  -0.10    -0.25   0.01   0.10     0.08  -0.02  -0.05
   3   6     0.35  -0.02  -0.13     0.13  -0.00  -0.15    -0.04   0.04   0.06
   4   1     0.02   0.09   0.01    -0.04   0.08  -0.06    -0.04   0.05   0.06
   5   6     0.46   0.06  -0.18    -0.02   0.09  -0.14     0.12   0.05   0.01
   6   1     0.10  -0.07  -0.05     0.07  -0.06  -0.01    -0.03  -0.02  -0.01
   7   1     0.14   0.02  -0.05     0.09   0.02  -0.10    -0.00   0.03   0.03
   8   6    -0.11  -0.04   0.10    -0.29  -0.00   0.15    -0.21   0.02   0.10
   9   1     0.10  -0.00  -0.04    -0.11   0.02   0.03     0.06  -0.00  -0.02
  10   1     0.08  -0.09  -0.04    -0.05  -0.05   0.07     0.01  -0.04  -0.04
  11   6     0.07   0.09   0.02    -0.07   0.08  -0.09    -0.17   0.09   0.15
  12   1    -0.09   0.01   0.06    -0.12   0.02   0.05    -0.09   0.02   0.05
  13   1    -0.04  -0.08   0.02    -0.06  -0.06   0.08    -0.08  -0.02   0.00
  14   1     0.19  -0.01  -0.08     0.03   0.01  -0.05     0.06   0.00  -0.02
  15   1     0.14   0.09  -0.04    -0.03   0.08  -0.08     0.05   0.04   0.03
  16   1    -0.04  -0.02   0.03    -0.18   0.01   0.10    -0.03  -0.01   0.00
  17   1     0.00   0.08   0.02    -0.16   0.08   0.01    -0.00   0.04   0.04
  18  35    -0.48  -0.10   0.05     0.31  -0.14   0.17     0.45  -0.19  -0.36
  19   6     0.04   0.14   0.06     0.19   0.06  -0.27    -0.34   0.11   0.27
  20   8    -0.04   0.02   0.08     0.05  -0.02  -0.10    -0.36   0.09   0.20
  21   1     0.01   0.09   0.02     0.03   0.06  -0.10    -0.09   0.03   0.09
  22   1     0.05   0.03  -0.01     0.10   0.01  -0.10    -0.10   0.03   0.08
  23   1    -0.02   0.03   0.03     0.07  -0.00  -0.07    -0.12   0.04   0.08
                      4                      5                      6
                        a                      a                      a 
 Frequencies --    79.5173               126.4132               197.7502
 Red. masses --     8.0745                 7.6959                 4.2335
 Frc consts  --     0.0000                 0.0000                 0.0000
 IR Inten    --     0.3046                 0.2065                 0.1509
 Raman Activ --     0.0000                 0.0000                 0.0000
 Depolar     --     0.0000                 0.0000                 0.0000
 Atom AN      X      Y      Z        X      Y      Z        X      Y      Z
   1   6    -0.16  -0.04  -0.00    -0.03  -0.03  -0.03    -0.09  -0.05  -0.03
   2   6    -0.10  -0.07   0.15    -0.25   0.05   0.22     0.06  -0.12   0.02
   3   6     0.25   0.06  -0.04     0.25  -0.09  -0.18    -0.05   0.18   0.11
   4   1     0.04   0.04  -0.05     0.09   0.00   0.04    -0.01   0.03  -0.02
   5   6     0.07   0.02   0.01    -0.11   0.01  -0.11     0.11   0.00   0.13
   6   1     0.10  -0.00   0.02     0.12  -0.06   0.01    -0.03   0.09   0.01
   7   1     0.11   0.04  -0.05     0.11  -0.02  -0.12    -0.04   0.05   0.07
   8   6     0.04   0.04  -0.07     0.29   0.02  -0.13    -0.04   0.10  -0.06
   9   1    -0.08  -0.03   0.06    -0.19   0.01   0.09     0.04  -0.05   0.00
  10   1     0.00  -0.03   0.09    -0.01   0.05   0.17     0.01  -0.06  -0.01
  11   6     0.14   0.11  -0.12     0.19  -0.06  -0.07    -0.00   0.16  -0.02
  12   1     0.00   0.02  -0.05     0.14  -0.02  -0.08    -0.02   0.03  -0.06
  13   1     0.04   0.01   0.02     0.11   0.07   0.00    -0.00   0.04  -0.01
  14   1     0.05  -0.00   0.02    -0.03   0.00  -0.01     0.06  -0.01   0.05
  15   1    -0.00   0.03  -0.04    -0.08   0.01  -0.10     0.05   0.01   0.06
  16   1    -0.07  -0.02   0.02     0.00   0.02   0.02    -0.05  -0.04  -0.01
  17   1    -0.07  -0.00  -0.04    -0.04  -0.06  -0.06    -0.03   0.01  -0.02
  18  35    -0.02   0.02   0.01     0.00  -0.01  -0.02     0.00  -0.00  -0.00
  19   6    -0.33  -0.36   0.19    -0.13   0.21   0.24    -0.08  -0.31  -0.11
  20   8     0.18   0.25  -0.18    -0.23  -0.15   0.05     0.10   0.12  -0.01
  21   1    -0.07  -0.40   0.05     0.03   0.28   0.19     0.08   0.25   0.16
  22   1    -0.34  -0.03   0.22     0.11   0.01  -0.09     0.06  -0.19  -0.48
  23   1     0.02   0.00  -0.02    -0.24  -0.03   0.16    -0.26  -0.44   0.21
                      7                      8                      9
                        a                      a                      a 
 Frequencies --   222.5371               252.6400               329.0769
 Red. masses --     6.2940                 9.1775                 7.9604
 Frc consts  --     0.0000                 0.0000                 0.0000
 IR Inten    --     0.0212                 0.3366                 0.3039
 Raman Activ --     0.0000                 0.0000                 0.0000
 Depolar     --     0.0000                 0.0000                 0.0000
 Atom AN      X      Y      Z        X      Y      Z        X      Y      Z
   1   6     0.32  -0.03  -0.05     0.12  -0.11  -0.10     0.25  -0.01  -0.02
   2   6    -0.00   0.11  -0.02    -0.03  -0.06   0.25    -0.07   0.13   0.30
   3   6     0.33  -0.00  -0.05     0.09   0.11  -0.00    -0.14  -0.24   0.07
   4   1    -0.02   0.13  -0.03    -0.01   0.09   0.07    -0.07  -0.10  -0.03
   5   6    -0.29  -0.10   0.11     0.16   0.02   0.03     0.20   0.16  -0.12
   6   1     0.19  -0.09   0.11     0.03  -0.02  -0.00    -0.08  -0.11  -0.04
   7   1     0.20   0.04  -0.14     0.07   0.08   0.01    -0.05  -0.08   0.02
   8   6    -0.30  -0.08   0.10     0.04   0.24  -0.15    -0.09  -0.15   0.05
   9   1     0.00   0.02  -0.00    -0.12  -0.04   0.10    -0.20   0.02   0.13
  10   1    -0.02   0.12  -0.03     0.05   0.02   0.17     0.07   0.09   0.25
  11   6    -0.01   0.15  -0.02    -0.15   0.19   0.09    -0.16  -0.20   0.03
  12   1    -0.21   0.03   0.13     0.06   0.05  -0.11    -0.03  -0.05   0.11
  13   1    -0.14  -0.18  -0.05    -0.01   0.16  -0.07    -0.07  -0.08  -0.04
  14   1    -0.21   0.02   0.14     0.10  -0.02   0.01     0.17   0.00  -0.18
  15   1    -0.13  -0.19  -0.04     0.04   0.06  -0.01     0.08   0.23  -0.00
  16   1     0.20   0.03  -0.14     0.07  -0.04  -0.11     0.17   0.04  -0.09
  17   1     0.18  -0.10   0.11     0.05  -0.12  -0.01     0.12  -0.12   0.06
  18  35     0.00  -0.00  -0.00     0.00  -0.00   0.00     0.00   0.00   0.00
  19   6    -0.04  -0.06  -0.06     0.02  -0.17  -0.32    -0.09   0.05  -0.10
  20   8    -0.01   0.07  -0.00    -0.33  -0.22   0.27     0.09   0.27  -0.22
  21   1    -0.00   0.02   0.00    -0.11  -0.11  -0.26     0.01   0.03   0.02
  22   1    -0.01  -0.03  -0.09     0.02  -0.03  -0.01    -0.06   0.00  -0.10
  23   1    -0.03  -0.08   0.02     0.20  -0.01  -0.15    -0.07  -0.05   0.01
                     10                     11                     12
                        a                      a                      a 
 Frequencies --   358.0740               422.8905               452.6994
 Red. masses --     9.6125                 9.3063                 9.6078
 Frc consts  --     0.0000                 0.0000                 0.0000
 IR Inten    --     0.1626                 0.2035                 0.3453
 Raman Activ --     0.0000                 0.0000                 0.0000
 Depolar     --     0.0000                 0.0000                 0.0000
 Atom AN      X      Y      Z        X      Y      Z        X      Y      Z
   1   6    -0.05   0.28   0.14     0.14  -0.07   0.30    -0.04   0.19  -0.26
   2   6     0.31   0.11   0.13     0.12  -0.10   0.20     0.10   0.12   0.18
   3   6     0.13  -0.25   0.15    -0.17   0.17  -0.26    -0.00   0.14   0.18
   4   1    -0.02  -0.06  -0.03    -0.02   0.05  -0.10     0.03   0.01  -0.08
   5   6     0.02  -0.17   0.19     0.05  -0.33  -0.15     0.11   0.13   0.25
   6   1     0.07  -0.11   0.09    -0.12   0.16  -0.17    -0.01   0.16   0.04
   7   1     0.10  -0.03   0.00    -0.12   0.07   0.10    -0.05   0.03   0.13
   8   6     0.15   0.10   0.06    -0.07   0.27   0.23    -0.16  -0.13  -0.15
   9   1     0.13   0.04   0.02    -0.06   0.07   0.06    -0.06  -0.06   0.10
  10   1     0.06   0.02  -0.01     0.08  -0.04   0.13     0.07   0.09   0.13
  11   6    -0.07  -0.16  -0.10    -0.00   0.12  -0.23     0.12  -0.01  -0.26
  12   1     0.15  -0.02   0.04    -0.03   0.08   0.04    -0.19   0.02   0.10
  13   1     0.07   0.09   0.06     0.00   0.06   0.09    -0.08  -0.24  -0.08
  14   1    -0.11   0.00   0.05    -0.05  -0.07   0.03     0.02   0.04   0.04
  15   1     0.01  -0.15   0.06     0.00  -0.17  -0.06     0.05   0.04   0.10
  16   1    -0.12   0.02   0.12     0.07  -0.05  -0.02    -0.07   0.02  -0.03
  17   1    -0.06   0.20  -0.03     0.09  -0.06   0.15    -0.03   0.10  -0.10
  18  35    -0.00   0.00   0.00     0.00  -0.00  -0.00    -0.00  -0.00  -0.00
  19   6    -0.23   0.04  -0.30    -0.04   0.06   0.06     0.02  -0.02   0.10
  20   8    -0.24   0.05  -0.25     0.02  -0.16  -0.23    -0.06  -0.45  -0.17
  21   1    -0.08   0.02  -0.10     0.02   0.02   0.07     0.03   0.01   0.06
  22   1    -0.06   0.01  -0.11     0.01   0.02   0.07     0.08  -0.00   0.12
  23   1    -0.04  -0.01  -0.08    -0.09   0.07   0.00    -0.08   0.09  -0.01
                     13                     14                     15
                        a                      a                      a 
 Frequencies --   482.2619               550.0267               819.2329
 Red. masses --     8.8405                 6.8797                 4.5051
 Frc consts  --     0.0000                 0.0000                 0.0000
 IR Inten    --     0.2622                 0.2884                 0.0638
 Raman Activ --     0.0000                 0.0000                 0.0000
 Depolar     --     0.0000                 0.0000                 0.0000
 Atom AN      X      Y      Z        X      Y      Z        X      Y      Z
   1   6    -0.07   0.13  -0.19     0.04  -0.16   0.20    -0.22   0.03  -0.04
   2   6     0.11   0.02   0.04    -0.17  -0.06  -0.12    -0.00   0.13  -0.05
   3   6     0.00  -0.23   0.02     0.07   0.01   0.16     0.24   0.01   0.03
   4   1    -0.16  -0.01  -0.07    -0.05  -0.01  -0.10    -0.02   0.05  -0.02
   5   6     0.01  -0.13  -0.02    -0.01   0.28   0.19     0.21   0.19   0.01
   6   1     0.04  -0.25   0.06     0.10  -0.06   0.16    -0.09   0.16  -0.19
   7   1     0.15   0.03  -0.08     0.12   0.04  -0.06    -0.14  -0.10   0.19
   8   6    -0.19   0.33  -0.15    -0.01   0.16   0.11    -0.20  -0.18   0.01
   9   1    -0.02  -0.02   0.03     0.20  -0.00  -0.09    -0.03  -0.03   0.01
  10   1     0.05   0.02   0.05    -0.16  -0.07  -0.24     0.03  -0.05   0.04
  11   6    -0.41   0.00   0.03    -0.06  -0.02  -0.16    -0.02  -0.16   0.06
  12   1     0.08   0.04  -0.10     0.10   0.00  -0.07     0.21  -0.16  -0.18
  13   1    -0.09   0.25  -0.10     0.04   0.17   0.09     0.03   0.27   0.12
  14   1    -0.04  -0.02  -0.03     0.18   0.01  -0.06    -0.22   0.16   0.21
  15   1     0.01  -0.06   0.00     0.03   0.28   0.09    -0.02  -0.28  -0.10
  16   1    -0.06  -0.02  -0.09     0.16   0.02  -0.10     0.15   0.11  -0.19
  17   1    -0.02   0.06  -0.05     0.10  -0.20   0.17     0.08  -0.16   0.18
  18  35     0.00  -0.00  -0.00     0.00  -0.00  -0.00    -0.00  -0.00   0.00
  19   6     0.20  -0.04   0.28    -0.06   0.02  -0.01    -0.00  -0.00  -0.01
  20   8     0.27  -0.09   0.01    -0.02  -0.26  -0.29     0.00  -0.01  -0.02
  21   1     0.11   0.00   0.16     0.02   0.02   0.05     0.00  -0.00   0.00
  22   1     0.06  -0.01   0.10     0.03   0.01   0.06     0.00  -0.00   0.00
  23   1    -0.05   0.03   0.08    -0.11   0.08  -0.02    -0.01   0.00  -0.00
                     16                     17                     18
                        a                      a                      a 
 Frequencies --   834.2153               898.3613               920.7664
 Red. masses --     7.1735                 6.4530                 6.8684
 Frc consts  --     0.0000                 0.0000                 0.0000
 IR Inten    --     0.2718                 0.0726                 0.2563
 Raman Activ --     0.0000                 0.0000                 0.0000
 Depolar     --     0.0000                 0.0000                 0.0000
 Atom AN      X      Y      Z        X      Y      Z        X      Y      Z
   1   6    -0.15   0.24  -0.10    -0.03   0.16  -0.13     0.07   0.25  -0.10
   2   6    -0.14   0.03   0.11    -0.15  -0.12  -0.46    -0.36  -0.12  -0.06
   3   6     0.09  -0.36   0.08    -0.01  -0.01   0.26     0.14   0.16   0.01
   4   1     0.11   0.04   0.03     0.03   0.01  -0.01    -0.07  -0.07   0.02
   5   6    -0.00  -0.26   0.00     0.02  -0.20  -0.05     0.21  -0.14   0.03
   6   1    -0.06   0.12  -0.08     0.08   0.03   0.19    -0.07  -0.06  -0.15
   7   1    -0.14  -0.16   0.20     0.04   0.01   0.01     0.06   0.14   0.16
   8   6    -0.07   0.28  -0.08    -0.03   0.09   0.23     0.23   0.05   0.09
   9   1     0.19   0.03  -0.03    -0.46  -0.07  -0.02     0.01  -0.03  -0.04
  10   1    -0.16  -0.07  -0.17     0.17   0.09   0.24    -0.15  -0.11  -0.10
  11   6     0.26   0.01  -0.14     0.15   0.03  -0.01    -0.24  -0.06   0.19
  12   1    -0.11   0.11   0.08     0.05   0.00   0.00     0.03   0.01   0.32
  13   1     0.00  -0.08   0.01     0.07   0.08   0.18    -0.07  -0.12  -0.16
  14   1     0.08  -0.10  -0.17     0.10  -0.10  -0.04     0.09  -0.06   0.24
  15   1    -0.01   0.10  -0.02     0.11  -0.02   0.13    -0.04  -0.10  -0.13
  16   1     0.11   0.09  -0.26     0.06   0.09  -0.07     0.09   0.19   0.07
  17   1     0.05  -0.16   0.08     0.09   0.11   0.11    -0.05  -0.07  -0.14
  18  35    -0.00  -0.00   0.00     0.00  -0.00  -0.00    -0.00   0.00   0.00
  19   6     0.04  -0.01   0.04    -0.05   0.02  -0.03    -0.05   0.00  -0.07
  20   8    -0.05   0.09   0.15    -0.00  -0.03  -0.00     0.07  -0.07  -0.11
  21   1    -0.03  -0.01  -0.04    -0.02   0.01  -0.02     0.02   0.01   0.03
  22   1    -0.01  -0.01  -0.03    -0.00   0.00  -0.01     0.02   0.00   0.03
  23   1     0.10  -0.06   0.03    -0.00   0.00  -0.01    -0.11   0.05  -0.03
                     19                     20                     21
                        a                      a                      a 
 Frequencies --   933.2596               958.2036               974.2425
 Red. masses --     3.8763                 8.3542                 7.2994
 Frc consts  --     0.0000                 0.0000                 0.0000
 IR Inten    --     0.0625                 0.5001                 0.1838
 Raman Activ --     0.0000                 0.0000                 0.0000
 Depolar     --     0.0000                 0.0000                 0.0000
 Atom AN      X      Y      Z        X      Y      Z        X      Y      Z
   1   6     0.24  -0.04   0.02     0.08  -0.21  -0.06    -0.02  -0.16   0.28
   2   6    -0.09   0.06  -0.02     0.01  -0.08  -0.09    -0.09   0.29  -0.10
   3   6     0.27  -0.04   0.02     0.10  -0.26   0.08     0.03  -0.09   0.37
   4   1    -0.07   0.25  -0.07     0.04   0.03   0.07    -0.01   0.02   0.00
   5   6    -0.13  -0.19   0.03    -0.04   0.26  -0.03     0.13  -0.14  -0.21
   6   1    -0.03   0.27  -0.11    -0.08   0.01  -0.12    -0.00  -0.04   0.08
   7   1    -0.11  -0.06   0.24    -0.16  -0.24   0.05     0.06   0.09   0.20
   8   6    -0.14  -0.17   0.03    -0.03   0.36   0.11     0.05  -0.09  -0.27
   9   1     0.01   0.01  -0.01    -0.06  -0.09   0.01    -0.08   0.35  -0.08
  10   1    -0.08   0.26  -0.09     0.03   0.04   0.03     0.01  -0.08   0.02
  11   6    -0.09   0.05   0.01     0.18   0.06   0.35    -0.02   0.23   0.02
  12   1     0.18  -0.13  -0.11    -0.17   0.17   0.03    -0.16   0.06  -0.19
  13   1    -0.09   0.25  -0.08    -0.08  -0.01  -0.08    -0.03  -0.09  -0.13
  14   1     0.20  -0.14  -0.10    -0.13   0.12   0.04    -0.12   0.03  -0.13
  15   1    -0.08   0.24  -0.08    -0.06  -0.05  -0.09     0.07  -0.15   0.01
  16   1    -0.11  -0.06   0.23    -0.14  -0.17   0.04     0.05   0.08   0.19
  17   1    -0.02   0.25  -0.10    -0.06   0.07  -0.12    -0.07  -0.13  -0.02
  18  35    -0.00  -0.00   0.00    -0.00   0.00   0.00    -0.00   0.00   0.00
  19   6     0.01  -0.01  -0.00    -0.17   0.06  -0.16    -0.00  -0.04  -0.03
  20   8     0.01  -0.00  -0.02     0.14  -0.16  -0.14     0.00  -0.06  -0.05
  21   1     0.01  -0.00   0.02     0.01   0.01   0.02     0.02   0.01   0.03
  22   1     0.01  -0.00   0.01    -0.01   0.02   0.02     0.04  -0.00   0.05
  23   1    -0.03   0.01  -0.00    -0.15   0.09  -0.06    -0.07   0.04  -0.02
                     22                     23                     24
                        a                      a                      a 
 Frequencies --  1016.7607              1062.5055              1083.4671
 Red. masses --     9.0620                 1.5344                 8.9630
 Frc consts  --     0.0000                 0.0000                 0.0000
 IR Inten    --     0.5706                 0.0747                 1.1002
 Raman Activ --     0.0000                 0.0000                 0.0000
 Depolar     --     0.0000                 0.0000                 0.0000
 Atom AN      X      Y      Z        X      Y      Z        X      Y      Z
   1   6    -0.16   0.16  -0.10    -0.01  -0.07   0.01    -0.06  -0.18  -0.16
   2   6     0.11   0.08   0.16    -0.05   0.11  -0.05     0.07   0.09   0.05
   3   6    -0.10   0.13  -0.11     0.01  -0.01   0.01     0.09   0.16   0.21
   4   1     0.07   0.02   0.15     0.05  -0.30   0.08    -0.04  -0.11  -0.08
   5   6    -0.08  -0.25  -0.01     0.09  -0.04   0.08    -0.05  -0.00  -0.23
   6   1     0.04  -0.04   0.05    -0.15  -0.29  -0.23     0.04   0.08   0.08
   7   1     0.04   0.05  -0.11     0.11   0.19   0.17     0.10   0.18   0.16
   8   6    -0.07  -0.20  -0.05    -0.01   0.02  -0.05     0.03   0.05   0.15
   9   1     0.12   0.03   0.02     0.00  -0.11   0.02     0.05   0.11  -0.02
  10   1    -0.02   0.01  -0.05    -0.06   0.37  -0.08    -0.01   0.04  -0.04
  11   6     0.14   0.12   0.44    -0.01   0.02  -0.03    -0.10  -0.18  -0.23
  12   1     0.01  -0.06  -0.17    -0.19   0.10  -0.25     0.10  -0.04   0.19
  13   1     0.03   0.07   0.05     0.20  -0.13   0.29     0.03  -0.03   0.07
  14   1     0.10  -0.11  -0.12     0.10  -0.05   0.15    -0.07   0.03  -0.13
  15   1     0.02   0.10   0.05    -0.13   0.05  -0.22    -0.06   0.02  -0.13
  16   1     0.06   0.07  -0.15    -0.05  -0.09  -0.04    -0.13  -0.23  -0.18
  17   1     0.05  -0.05   0.10     0.10   0.20   0.17    -0.04  -0.05  -0.07
  18  35     0.00  -0.00  -0.00    -0.00   0.00   0.00     0.00  -0.00  -0.00
  19   6    -0.23   0.06  -0.24     0.03  -0.04   0.02    -0.32   0.12  -0.11
  20   8     0.26  -0.17  -0.04    -0.03   0.02  -0.02     0.30  -0.07   0.32
  21   1     0.04   0.01   0.06    -0.00   0.01  -0.00    -0.10   0.07  -0.06
  22   1     0.00   0.02   0.06     0.04  -0.01   0.02     0.05   0.00  -0.00
  23   1    -0.24   0.14  -0.10     0.01  -0.00   0.00     0.02   0.01  -0.02
                     25                     26                     27
                        a                      a                      a 
 Frequencies --  1096.2189              1099.7669              1130.1667
 Red. masses --    10.2387                 5.8626                 4.0880
 Frc consts  --     0.0000                 0.0000                 0.0000
 IR Inten    --     1.0528                 0.1376                 0.3688
 Raman Activ --     0.0000                 0.0000                 0.0000
 Depolar     --     0.0000                 0.0000                 0.0000
 Atom AN      X      Y      Z        X      Y      Z        X      Y      Z
   1   6    -0.11  -0.08  -0.13     0.04   0.02   0.19    -0.04  -0.08  -0.03
   2   6     0.11   0.05   0.05    -0.06   0.07  -0.05    -0.00   0.09  -0.04
   3   6     0.11   0.19   0.16     0.06   0.18  -0.06     0.02  -0.01  -0.02
   4   1     0.03  -0.06   0.12     0.06  -0.22   0.06    -0.00   0.04   0.03
   5   6    -0.11  -0.06  -0.21     0.06  -0.07   0.06     0.03  -0.02   0.05
   6   1     0.05   0.09   0.08     0.07   0.08   0.06    -0.00   0.02  -0.02
   7   1     0.03   0.07   0.07    -0.05  -0.10  -0.16     0.01   0.01   0.02
   8   6     0.03   0.04   0.09    -0.21   0.17  -0.24     0.05   0.01   0.03
   9   1     0.02   0.14  -0.02    -0.09   0.36  -0.08    -0.02   0.05  -0.01
  10   1     0.01   0.02  -0.02    -0.00   0.02   0.01     0.00   0.06  -0.00
  11   6     0.01  -0.08   0.31     0.11  -0.40   0.09    -0.07  -0.01  -0.06
  12   1     0.07  -0.02   0.18    -0.06   0.04  -0.05     0.00   0.01   0.04
  13   1     0.02  -0.02   0.05    -0.14   0.06  -0.19     0.04  -0.04   0.05
  14   1    -0.01  -0.02  -0.11     0.23  -0.12   0.31     0.01  -0.01   0.01
  15   1    -0.05   0.06  -0.09     0.03   0.01   0.03     0.03  -0.00   0.04
  16   1    -0.11  -0.21  -0.23    -0.08  -0.13  -0.05    -0.02  -0.05  -0.03
  17   1    -0.01  -0.05  -0.01     0.01   0.07   0.06    -0.02  -0.04  -0.02
  18  35    -0.00   0.00   0.00    -0.00   0.00   0.00    -0.00  -0.00  -0.00
  19   6     0.33  -0.17   0.13    -0.07   0.10   0.04     0.20   0.29  -0.22
  20   8    -0.35   0.11  -0.38     0.07  -0.05  -0.00    -0.06  -0.16   0.15
  21   1     0.07  -0.04   0.04    -0.06  -0.01  -0.07     0.32  -0.35   0.28
  22   1     0.01  -0.02   0.02    -0.06   0.01  -0.09    -0.57   0.14  -0.13
  23   1    -0.01  -0.01   0.02     0.13  -0.08   0.04    -0.14  -0.15   0.11
                     28                     29                     30
                        a                      a                      a 
 Frequencies --  1141.1394              1145.3387              1174.3116
 Red. masses --     7.1644                 6.5543                 6.1849
 Frc consts  --     0.0000                 0.0000                 0.0000
 IR Inten    --     0.4205                 0.2201                 0.3634
 Raman Activ --     0.0000                 0.0000                 0.0000
 Depolar     --     0.0000                 0.0000                 0.0000
 Atom AN      X      Y      Z        X      Y      Z        X      Y      Z
   1   6     0.02  -0.16  -0.26     0.17   0.21   0.04     0.20   0.07  -0.11
   2   6    -0.13   0.26   0.06    -0.03  -0.28   0.15    -0.18  -0.06   0.14
   3   6    -0.18  -0.02  -0.05    -0.06   0.12   0.27    -0.21  -0.05   0.17
   4   1    -0.04   0.08  -0.14     0.01  -0.13  -0.04     0.04   0.06  -0.03
   5   6     0.22  -0.12   0.07    -0.05   0.06  -0.32     0.18   0.04  -0.14
   6   1    -0.03  -0.18  -0.01     0.02  -0.05   0.11    -0.00  -0.15   0.10
   7   1     0.05   0.05  -0.07     0.07   0.09   0.04    -0.04  -0.13  -0.19
   8   6    -0.08  -0.03   0.30    -0.15  -0.03  -0.07    -0.15  -0.07   0.05
   9   1     0.08   0.09  -0.02     0.11  -0.22   0.05     0.07   0.21  -0.05
  10   1    -0.10   0.10  -0.10    -0.04  -0.17  -0.03    -0.12  -0.07  -0.09
  11   6     0.21   0.12   0.09     0.16  -0.02   0.06     0.19   0.11  -0.18
  12   1     0.04  -0.02  -0.05    -0.02  -0.01  -0.16     0.14  -0.09   0.03
  13   1    -0.03   0.13   0.06    -0.07   0.11  -0.07     0.03   0.10   0.10
  14   1    -0.01  -0.01   0.03    -0.12   0.06  -0.09     0.06  -0.01   0.27
  15   1     0.10  -0.11   0.09    -0.14  -0.01  -0.27    -0.02  -0.13  -0.12
  16   1    -0.03  -0.00   0.05     0.05   0.12   0.11    -0.11  -0.15  -0.06
  17   1    -0.12  -0.12  -0.26     0.07   0.18   0.06     0.02   0.14  -0.06
  18  35     0.00   0.00   0.00    -0.00   0.00   0.00    -0.00  -0.00   0.00
  19   6    -0.05   0.13   0.18    -0.01   0.17   0.06     0.09  -0.15  -0.14
  20   8    -0.01  -0.11  -0.18    -0.01  -0.14  -0.07    -0.11   0.12   0.16
  21   1    -0.15   0.00  -0.15    -0.03  -0.08  -0.04     0.13   0.00   0.13
  22   1    -0.07   0.00  -0.16    -0.18   0.03  -0.14     0.07  -0.00   0.15
  23   1     0.28  -0.16   0.10     0.17  -0.16   0.10    -0.24   0.16  -0.10
                     31                     32                     33
                        a                      a                      a 
 Frequencies --  1202.1305              1236.2625              1242.0183
 Red. masses --     5.4375                 3.7779                 4.2699
 Frc consts  --     0.0000                 0.0000                 0.0000
 IR Inten    --     0.4005                 0.2360                 0.2304
 Raman Activ --     0.0000                 0.0000                 0.0000
 Depolar     --     0.0000                 0.0000                 0.0000
 Atom AN      X      Y      Z        X      Y      Z        X      Y      Z
   1   6    -0.12   0.10   0.08     0.12   0.04  -0.21     0.05   0.01   0.08
   2   6     0.14  -0.12  -0.05     0.01  -0.04   0.11    -0.31  -0.01   0.07
   3   6    -0.02  -0.11   0.13     0.12  -0.02   0.03    -0.05  -0.05  -0.08
   4   1    -0.10   0.22  -0.15    -0.10   0.02  -0.01     0.02   0.16   0.12
   5   6    -0.13   0.08   0.01    -0.06   0.02  -0.10     0.24  -0.01  -0.04
   6   1    -0.12  -0.20  -0.14     0.09   0.25   0.12     0.11   0.19   0.16
   7   1    -0.07  -0.12  -0.02    -0.14  -0.22  -0.09    -0.01  -0.02  -0.04
   8   6     0.19  -0.17  -0.14     0.08  -0.01   0.07     0.10  -0.03  -0.19
   9   1    -0.09   0.22  -0.05     0.04   0.19  -0.03     0.05  -0.12   0.02
  10   1     0.08  -0.02   0.06    -0.00  -0.22   0.01    -0.16   0.16  -0.11
  11   6    -0.04   0.35   0.03    -0.34   0.01   0.05    -0.16   0.05   0.09
  12   1     0.14  -0.10   0.20    -0.23   0.12  -0.28     0.05  -0.03   0.13
  13   1     0.04  -0.08  -0.04     0.29  -0.17   0.41     0.08  -0.11   0.03
  14   1     0.15  -0.07   0.20     0.10  -0.05   0.14    -0.19   0.11  -0.14
  15   1    -0.13   0.09  -0.15    -0.00   0.00  -0.01     0.19  -0.19   0.19
  16   1    -0.05  -0.14  -0.23     0.03   0.07   0.06    -0.14  -0.23  -0.15
  17   1     0.07   0.01   0.16    -0.01   0.03  -0.11     0.16   0.31   0.26
  18  35     0.00  -0.00   0.00     0.00   0.00   0.00     0.00  -0.00  -0.00
  19   6    -0.08   0.11   0.10    -0.02   0.04   0.06    -0.04   0.05   0.06
  20   8     0.08  -0.15  -0.08     0.06  -0.05  -0.06     0.09  -0.06  -0.08
  21   1    -0.09  -0.00  -0.09    -0.04   0.00  -0.04    -0.05   0.00  -0.05
  22   1    -0.05   0.00  -0.10    -0.01  -0.00  -0.05    -0.01  -0.00  -0.06
  23   1     0.16  -0.09   0.06     0.06  -0.02   0.02     0.07  -0.03   0.02
                     34                     35                     36
                        a                      a                      a 
 Frequencies --  1242.2464              1302.3106              1309.7873
 Red. masses --     3.5032                 3.9232                 3.2405
 Frc consts  --     0.0000                 0.0000                 0.0000
 IR Inten    --     0.1070                 0.2435                 0.1661
 Raman Activ --     0.0000                 0.0000                 0.0000
 Depolar     --     0.0000                 0.0000                 0.0000
 Atom AN      X      Y      Z        X      Y      Z        X      Y      Z
   1   6    -0.23  -0.11   0.07     0.03  -0.13   0.01     0.01   0.03   0.02
   2   6     0.13   0.10   0.00     0.04  -0.00   0.00    -0.07  -0.00   0.02
   3   6    -0.10   0.04   0.15     0.09   0.09   0.09     0.24   0.28   0.11
   4   1    -0.09   0.11  -0.12     0.21  -0.23   0.35    -0.27  -0.33  -0.47
   5   6     0.15  -0.10  -0.19    -0.01  -0.05  -0.02    -0.01  -0.11   0.02
   6   1     0.12   0.15   0.25    -0.04  -0.07  -0.06    -0.09  -0.15  -0.20
   7   1    -0.11  -0.22  -0.23    -0.11  -0.19  -0.13    -0.18  -0.30  -0.23
   8   6     0.14   0.05   0.00    -0.29   0.09  -0.23     0.05  -0.02  -0.02
   9   1     0.07  -0.30   0.07     0.02  -0.03   0.01    -0.00  -0.04   0.01
  10   1    -0.02   0.44  -0.08     0.01   0.09  -0.01    -0.05   0.04  -0.04
  11   6    -0.06  -0.03  -0.01    -0.08   0.20  -0.07     0.04   0.07   0.07
  12   1    -0.06   0.05   0.03     0.27  -0.15   0.36    -0.02   0.01  -0.02
  13   1    -0.05  -0.05  -0.12     0.14  -0.03   0.25     0.01  -0.03  -0.01
  14   1     0.12  -0.06   0.19    -0.02  -0.00  -0.06    -0.10   0.02  -0.28
  15   1    -0.10  -0.02  -0.27     0.01  -0.00   0.02     0.11  -0.05   0.17
  16   1     0.10   0.15   0.06     0.08   0.17   0.25    -0.02  -0.05  -0.05
  17   1    -0.04  -0.15   0.04    -0.05  -0.09  -0.08     0.02   0.05   0.03
  18  35     0.00  -0.00   0.00    -0.00   0.00  -0.00     0.00   0.00   0.00
  19   6     0.01  -0.02   0.00    -0.02   0.03   0.04     0.03  -0.03  -0.02
  20   8    -0.02   0.01   0.02     0.07  -0.07  -0.06    -0.07   0.01   0.10
  21   1     0.00   0.01   0.00    -0.02  -0.01  -0.02     0.00   0.02   0.00
  22   1     0.00  -0.00   0.00     0.00  -0.00  -0.05    -0.04   0.01   0.01
  23   1    -0.02   0.03  -0.01     0.05  -0.01   0.01    -0.06   0.05  -0.02
                     37                     38                     39
                        a                      a                      a 
 Frequencies --  1334.3522              1343.2121              1352.5124
 Red. masses --     4.4176                 4.8341                 4.8940
 Frc consts  --     0.0000                 0.0000                 0.0000
 IR Inten    --     0.2040                 0.2354                 0.0878
 Raman Activ --     0.0000                 0.0000                 0.0000
 Depolar     --     0.0000                 0.0000                 0.0000
 Atom AN      X      Y      Z        X      Y      Z        X      Y      Z
   1   6     0.14   0.11   0.19     0.10   0.12   0.15     0.12   0.34   0.21
   2   6    -0.07   0.39  -0.10     0.02  -0.09   0.01    -0.00  -0.24  -0.08
   3   6     0.04  -0.03   0.03     0.01   0.17   0.13     0.01   0.03   0.01
   4   1     0.03  -0.13   0.06    -0.05   0.55  -0.07     0.12  -0.09   0.23
   5   6    -0.12  -0.04  -0.17    -0.09   0.02  -0.14     0.14  -0.01   0.15
   6   1     0.01   0.00   0.01    -0.11  -0.24  -0.15     0.01   0.05   0.02
   7   1    -0.03  -0.04   0.04     0.04   0.06   0.01    -0.04  -0.09  -0.11
   8   6    -0.02  -0.07  -0.00    -0.11   0.10  -0.22     0.01  -0.14   0.13
   9   1     0.07  -0.51   0.11     0.01  -0.09   0.02    -0.11   0.08  -0.03
  10   1     0.05  -0.30   0.07    -0.02   0.15  -0.03    -0.03   0.26  -0.05
  11   6    -0.04   0.13  -0.03     0.08  -0.37   0.07    -0.13   0.09  -0.10
  12   1     0.04  -0.04  -0.04    -0.03   0.02  -0.00    -0.07   0.01  -0.21
  13   1    -0.00  -0.01  -0.00     0.17  -0.10   0.23    -0.04   0.05  -0.03
  14   1     0.20  -0.12   0.20    -0.00  -0.00   0.00    -0.14   0.08  -0.20
  15   1     0.08  -0.05   0.12     0.11  -0.04   0.17    -0.08   0.00  -0.14
  16   1    -0.16  -0.28  -0.15    -0.01  -0.02  -0.00    -0.10  -0.19  -0.23
  17   1    -0.07  -0.15  -0.12    -0.11  -0.18  -0.17    -0.17  -0.33  -0.28
  18  35     0.00   0.00  -0.00     0.00  -0.00  -0.00    -0.00   0.00   0.00
  19   6    -0.00   0.01   0.01    -0.01  -0.01  -0.01    -0.01   0.01   0.02
  20   8     0.01  -0.02  -0.01     0.01   0.02   0.00     0.03  -0.02  -0.03
  21   1    -0.00  -0.01  -0.00     0.00   0.01   0.00     0.01  -0.01   0.01
  22   1     0.00  -0.00  -0.01     0.00   0.00   0.01     0.02  -0.01  -0.02
  23   1     0.01  -0.01   0.01    -0.01   0.01  -0.01     0.04  -0.01   0.00
                     40                     41                     42
                        a                      a                      a 
 Frequencies --  1355.8156              1357.9702              1405.1582
 Red. masses --     5.0948                 4.8535                 2.4652
 Frc consts  --     0.0000                 0.0000                 0.0000
 IR Inten    --     0.3818                 0.1742                 0.1251
 Raman Activ --     0.0000                 0.0000                 0.0000
 Depolar     --     0.0000                 0.0000                 0.0000
 Atom AN      X      Y      Z        X      Y      Z        X      Y      Z
   1   6     0.11   0.05   0.13    -0.03   0.10   0.03    -0.00   0.01  -0.00
   2   6    -0.02   0.04  -0.12     0.06  -0.27   0.12     0.00  -0.01   0.00
   3   6    -0.13  -0.14  -0.21     0.04  -0.20  -0.10     0.00  -0.01   0.03
   4   1    -0.22  -0.11  -0.36    -0.08  -0.30  -0.15     0.05   0.02   0.07
   5   6     0.14  -0.01   0.21    -0.17   0.20  -0.29    -0.01   0.01  -0.02
   6   1     0.13   0.20   0.20     0.05   0.14   0.04    -0.02  -0.00  -0.03
   7   1     0.06   0.13   0.09     0.07   0.14   0.21     0.03   0.03   0.00
   8   6    -0.17   0.05  -0.27    -0.04  -0.05  -0.02     0.01  -0.01   0.03
   9   1    -0.03  -0.03  -0.01     0.04   0.09  -0.01    -0.00   0.00   0.00
  10   1     0.05  -0.06   0.06    -0.06   0.37  -0.07    -0.00   0.00  -0.00
  11   6     0.13   0.03   0.24     0.06   0.17   0.07    -0.02  -0.01  -0.07
  12   1     0.09  -0.06   0.17     0.02  -0.02   0.03    -0.01   0.00  -0.02
  13   1     0.18  -0.07   0.25    -0.00   0.04   0.01    -0.02   0.01  -0.03
  14   1    -0.05   0.03  -0.07     0.11  -0.03   0.24     0.00  -0.00   0.01
  15   1    -0.17   0.06  -0.27     0.23  -0.13   0.34     0.01   0.00   0.02
  16   1    -0.02  -0.05  -0.01     0.03   0.06   0.01    -0.00  -0.00  -0.00
  17   1    -0.08  -0.11  -0.14    -0.05  -0.13  -0.07     0.00  -0.00   0.00
  18  35    -0.00  -0.00   0.00     0.00   0.00  -0.00     0.00  -0.00   0.00
  19   6     0.03  -0.02  -0.01     0.01   0.00  -0.02     0.25  -0.09   0.19
  20   8    -0.02   0.01   0.06    -0.03  -0.01   0.02     0.09  -0.03   0.05
  21   1    -0.04   0.02  -0.04    -0.00   0.00  -0.00    -0.33   0.14  -0.44
  22   1    -0.05   0.01   0.00    -0.01   0.01   0.03    -0.41   0.01  -0.28
  23   1    -0.09   0.03  -0.01    -0.02  -0.02   0.01    -0.44   0.30  -0.08
                     43                     44                     45
                        a                      a                      a 
 Frequencies --  1467.1475              1476.3388              1478.0841
 Red. masses --     1.5716                 1.8580                 1.9485
 Frc consts  --     0.0000                 0.0000                 0.0000
 IR Inten    --     0.0441                 0.0340                 0.0571
 Raman Activ --     0.0000                 0.0000                 0.0000
 Depolar     --     0.0000                 0.0000                 0.0000
 Atom AN      X      Y      Z        X      Y      Z        X      Y      Z
   1   6    -0.00  -0.00   0.01     0.02   0.05  -0.08    -0.01  -0.00   0.00
   2   6    -0.01  -0.01  -0.00     0.07   0.04   0.02    -0.22  -0.05  -0.09
   3   6     0.01   0.05  -0.04    -0.03  -0.10   0.15     0.01   0.03   0.01
   4   1     0.01   0.01   0.02     0.00   0.00  -0.00     0.01   0.01   0.02
   5   6     0.01  -0.01   0.00    -0.02   0.05   0.04    -0.03   0.04   0.03
   6   1     0.06  -0.11   0.07    -0.19   0.30  -0.24     0.01  -0.04   0.01
   7   1    -0.10  -0.06   0.07     0.28   0.10  -0.33    -0.03  -0.02   0.01
   8   6    -0.01   0.02   0.02     0.04  -0.09  -0.08     0.06  -0.11  -0.05
   9   1     0.02   0.00  -0.01    -0.19  -0.03   0.05     0.55   0.06  -0.14
  10   1     0.01   0.01   0.01    -0.09  -0.06  -0.16     0.28   0.14   0.47
  11   6    -0.01  -0.00  -0.02     0.00  -0.01   0.01    -0.01  -0.01  -0.02
  12   1     0.04  -0.02  -0.04    -0.22   0.09   0.18    -0.25   0.10   0.18
  13   1    -0.01  -0.05  -0.02     0.05   0.28   0.07     0.04   0.32   0.05
  14   1    -0.02   0.01   0.00     0.14  -0.06  -0.10     0.12  -0.05  -0.12
  15   1     0.00   0.02  -0.00    -0.03  -0.17  -0.04    -0.03  -0.17  -0.04
  16   1     0.02   0.01  -0.02    -0.17  -0.07   0.19     0.00  -0.01  -0.02
  17   1    -0.01   0.02  -0.01     0.11  -0.19   0.15    -0.01   0.01  -0.01
  18  35    -0.00   0.00   0.00     0.00   0.00   0.00     0.00   0.00   0.00
  19   6     0.10   0.17  -0.08     0.03   0.01  -0.05     0.00   0.00   0.00
  20   8     0.01   0.03  -0.01     0.01  -0.00  -0.01     0.00   0.00  -0.00
  21   1    -0.21  -0.29  -0.35    -0.05   0.07  -0.06    -0.00  -0.01  -0.01
  22   1     0.23   0.04   0.37    -0.03   0.04   0.19     0.00  -0.00   0.00
  23   1    -0.41  -0.43   0.32    -0.04  -0.15   0.09    -0.01  -0.01   0.00
                     46                     47                     48
                        a                      a                      a 
 Frequencies --  1485.6197              1487.9063              1491.8483
 Red. masses --     1.9701                 1.9336                 1.6312
 Frc consts  --     0.0000                 0.0000                 0.0000
 IR Inten    --     0.0734                 0.0731                 0.0637
 Raman Activ --     0.0000                 0.0000                 0.0000
 Depolar     --     0.0000                 0.0000                 0.0000
 Atom AN      X      Y      Z        X      Y      Z        X      Y      Z
   1   6     0.03   0.14  -0.18     0.02   0.01   0.01    -0.01  -0.05   0.05
   2   6     0.03  -0.01   0.00     0.04   0.02   0.00     0.02   0.01   0.01
   3   6     0.01   0.09  -0.12     0.02   0.04  -0.05    -0.01  -0.05   0.06
   4   1    -0.01   0.02  -0.02     0.00  -0.02  -0.00    -0.02  -0.01  -0.03
   5   6    -0.02   0.07   0.05     0.08  -0.16  -0.09    -0.02   0.03   0.01
   6   1     0.15  -0.24   0.19     0.07  -0.12   0.08    -0.08   0.13  -0.10
   7   1    -0.21  -0.07   0.25    -0.11  -0.05   0.11     0.12   0.06  -0.12
   8   6     0.01   0.01   0.00     0.07  -0.15  -0.09     0.00  -0.02  -0.02
   9   1    -0.07   0.02   0.01    -0.12  -0.03   0.03    -0.05  -0.01   0.02
  10   1    -0.03   0.01  -0.06    -0.05  -0.05  -0.10    -0.03  -0.02  -0.05
  11   6     0.01  -0.03  -0.01    -0.01   0.00  -0.03     0.02  -0.01   0.00
  12   1    -0.02   0.01  -0.01    -0.33   0.13   0.26    -0.05   0.02   0.05
  13   1    -0.00   0.01  -0.01     0.07   0.43   0.09     0.01   0.07   0.02
  14   1     0.12  -0.04  -0.12    -0.35   0.13   0.27     0.06  -0.03  -0.04
  15   1    -0.03  -0.17  -0.05     0.07   0.46   0.09    -0.01  -0.08  -0.01
  16   1    -0.34  -0.12   0.36    -0.02  -0.02   0.00     0.10   0.04  -0.10
  17   1     0.22  -0.37   0.29     0.00  -0.02   0.00    -0.06   0.11  -0.08
  18  35     0.00   0.00  -0.00    -0.00  -0.00  -0.00     0.00   0.00   0.00
  19   6    -0.02   0.02   0.05    -0.01   0.01   0.01    -0.06   0.13   0.13
  20   8    -0.01   0.01   0.02     0.00  -0.00   0.01    -0.03   0.03   0.03
  21   1     0.03  -0.16   0.01     0.00  -0.04  -0.00     0.04  -0.60  -0.03
  22   1     0.10  -0.05  -0.17     0.03  -0.01  -0.04     0.41  -0.15  -0.44
  23   1    -0.02   0.10  -0.05    -0.01   0.02  -0.01    -0.15   0.19  -0.07
                     49                     50                     51
                        a                      a                      a 
 Frequencies --  1500.2377              2817.6532              2896.8281
 Red. masses --     2.0181                 1.7101                 1.9061
 Frc consts  --     0.0000                 0.0000                 0.0000
 IR Inten    --     0.0053                 0.4705                 0.3777
 Raman Activ --     0.0000                 0.0000                 0.0000
 Depolar     --     0.0000                 0.0000                 0.0000
 Atom AN      X      Y      Z        X      Y      Z        X      Y      Z
   1   6     0.02   0.10  -0.10    -0.00   0.00   0.00    -0.00  -0.00   0.00
   2   6    -0.11  -0.03  -0.06     0.00   0.00   0.00     0.00   0.00   0.00
   3   6    -0.01  -0.07   0.09     0.00   0.00  -0.00     0.00  -0.00   0.00
   4   1    -0.02  -0.01  -0.04    -0.83  -0.02   0.50     0.01   0.00  -0.00
   5   6     0.06  -0.14  -0.07    -0.00  -0.00   0.00    -0.00  -0.00   0.00
   6   1    -0.12   0.19  -0.15     0.02   0.00  -0.01     0.00  -0.00  -0.00
   7   1     0.17   0.06  -0.20     0.01  -0.01   0.01    -0.01   0.01  -0.01
   8   6    -0.04   0.09   0.05    -0.00  -0.00  -0.00    -0.00  -0.00   0.00
   9   1     0.26   0.03  -0.07    -0.00  -0.00  -0.00    -0.00  -0.00  -0.00
  10   1     0.14   0.07   0.23    -0.00  -0.00  -0.00    -0.00   0.00   0.00
  11   6     0.02   0.01   0.03     0.22   0.01  -0.12    -0.00  -0.00   0.00
  12   1     0.18  -0.07  -0.15     0.01   0.02   0.00     0.00   0.00   0.00
  13   1    -0.04  -0.24  -0.05     0.02  -0.00  -0.01     0.00   0.00  -0.00
  14   1    -0.28   0.10   0.21    -0.00   0.00   0.00    -0.00  -0.00  -0.00
  15   1     0.05   0.37   0.07     0.01   0.00  -0.00     0.00   0.00  -0.00
  16   1    -0.21  -0.08   0.21     0.00  -0.00   0.00    -0.00   0.00  -0.00
  17   1     0.13  -0.23   0.17     0.01  -0.00  -0.00     0.00   0.00  -0.00
  18  35     0.00  -0.00  -0.00     0.00  -0.00  -0.00     0.00  -0.00  -0.00
  19   6    -0.01   0.03   0.01    -0.00   0.00   0.00     0.19   0.16  -0.14
  20   8    -0.01   0.01   0.00     0.01  -0.00  -0.02     0.01   0.00  -0.00
  21   1     0.01  -0.10  -0.01    -0.01   0.00  -0.00    -0.63  -0.05   0.46
  22   1     0.08  -0.02  -0.05    -0.00  -0.02   0.00    -0.07  -0.54   0.08
  23   1    -0.03   0.01   0.00    -0.00  -0.00  -0.01     0.03   0.02  -0.04
                     52                     53                     54
                        a                      a                      a 
 Frequencies --  2923.2028              2952.1917              2959.1774
 Red. masses --     1.4616                 1.9090                 1.8717
 Frc consts  --     0.0000                 0.0000                 0.0000
 IR Inten    --     0.3127                 0.2134                 0.2273
 Raman Activ --     0.0000                 0.0000                 0.0000
 Depolar     --     0.0000                 0.0000                 0.0000
 Atom AN      X      Y      Z        X      Y      Z        X      Y      Z
   1   6    -0.00  -0.00   0.00     0.03  -0.01  -0.01     0.24  -0.05  -0.09
   2   6     0.00   0.00   0.00     0.02  -0.01  -0.03    -0.05   0.01   0.07
   3   6    -0.01   0.01  -0.00     0.07  -0.03  -0.02     0.01  -0.00  -0.00
   4   1    -0.01  -0.00   0.01     0.00   0.00  -0.00    -0.01   0.00   0.00
   5   6    -0.00   0.00   0.00    -0.22  -0.10   0.11     0.01   0.00  -0.01
   6   1     0.01   0.00  -0.01    -0.18  -0.01   0.13    -0.03  -0.00   0.02
   7   1     0.04  -0.04   0.02    -0.09   0.10  -0.05    -0.01   0.01  -0.01
   8   6    -0.00   0.00   0.00    -0.01  -0.00   0.01    -0.04  -0.03   0.02
   9   1    -0.00  -0.00  -0.00     0.02   0.01   0.05    -0.04  -0.03  -0.13
  10   1    -0.00  -0.00   0.00    -0.13  -0.00   0.08     0.24   0.01  -0.14
  11   6     0.00  -0.00  -0.00     0.00  -0.00  -0.00    -0.00  -0.00   0.00
  12   1    -0.00  -0.01  -0.00     0.01   0.02   0.00     0.04   0.09   0.01
  13   1     0.00   0.00  -0.00     0.03  -0.00  -0.02     0.13  -0.00  -0.09
  14   1    -0.00  -0.00   0.00     0.14   0.38   0.03    -0.01  -0.02  -0.00
  15   1     0.01   0.00  -0.00     0.67  -0.01  -0.44    -0.06   0.00   0.04
  16   1    -0.00   0.00  -0.00    -0.03   0.03  -0.02    -0.19   0.22  -0.13
  17   1     0.01   0.00  -0.00    -0.08  -0.00   0.05    -0.68  -0.03   0.46
  18  35     0.00  -0.00  -0.00     0.00   0.00   0.00    -0.00   0.00  -0.00
  19   6     0.07  -0.18  -0.06    -0.00  -0.00  -0.00     0.00  -0.00  -0.00
  20   8     0.02  -0.01   0.01     0.00  -0.00   0.00     0.00  -0.00   0.00
  21   1    -0.46  -0.09   0.33    -0.00  -0.00   0.00    -0.00  -0.00   0.00
  22   1     0.15   0.76  -0.16     0.00   0.01  -0.00     0.00   0.01  -0.00
  23   1     0.01  -0.01   0.03     0.00   0.00   0.00    -0.00  -0.00  -0.00
                     55                     56                     57
                        a                      a                      a 
 Frequencies --  2964.4215              2970.5326              2973.7641
 Red. masses --     1.9494                 1.7669                 1.8250
 Frc consts  --     0.0000                 0.0000                 0.0000
 IR Inten    --     0.2722                 0.1067                 0.3014
 Raman Activ --     0.0000                 0.0000                 0.0000
 Depolar     --     0.0000                 0.0000                 0.0000
 Atom AN      X      Y      Z        X      Y      Z        X      Y      Z
   1   6     0.04  -0.01  -0.01     0.05  -0.02  -0.02     0.01  -0.02   0.02
   2   6     0.03  -0.01  -0.03     0.06  -0.02  -0.18    -0.10   0.01   0.10
   3   6    -0.24   0.12   0.01    -0.06  -0.01   0.05    -0.06  -0.01   0.05
   4   1     0.02  -0.00  -0.01     0.01  -0.00  -0.01    -0.01  -0.00   0.00
   5   6    -0.05  -0.08   0.00     0.01   0.14   0.03    -0.05   0.07   0.05
   6   1     0.37   0.03  -0.28     0.26   0.01  -0.17     0.24   0.00  -0.17
   7   1     0.48  -0.49   0.26    -0.05   0.03  -0.01    -0.04   0.03  -0.01
   8   6     0.02   0.01  -0.01    -0.05  -0.03   0.02     0.14   0.12  -0.05
   9   1     0.01   0.01   0.04     0.10   0.11   0.45    -0.04  -0.03  -0.12
  10   1    -0.11  -0.00   0.07    -0.32  -0.01   0.18     0.38   0.01  -0.24
  11   6    -0.01   0.00   0.00    -0.01  -0.00   0.00     0.00   0.00  -0.00
  12   1    -0.02  -0.05  -0.00     0.05   0.13   0.01    -0.20  -0.45  -0.03
  13   1    -0.04   0.00   0.03     0.11  -0.00  -0.08    -0.32   0.01   0.22
  14   1     0.14   0.32   0.01    -0.24  -0.53  -0.01    -0.13  -0.27   0.00
  15   1     0.03  -0.01  -0.02     0.21   0.02  -0.13     0.29   0.01  -0.19
  16   1    -0.05   0.05  -0.03    -0.06   0.07  -0.04    -0.09   0.09  -0.05
  17   1    -0.08  -0.00   0.05    -0.12  -0.01   0.08     0.05  -0.00  -0.03
  18  35    -0.00   0.00   0.00    -0.00  -0.00   0.00     0.00   0.00   0.00
  19   6    -0.00   0.01   0.00    -0.00  -0.00   0.00    -0.00   0.00   0.00
  20   8    -0.00   0.00  -0.00     0.00   0.00   0.00    -0.00  -0.00  -0.00
  21   1     0.01   0.00  -0.01     0.00   0.00  -0.00     0.00   0.00  -0.00
  22   1    -0.01  -0.04   0.01    -0.00   0.00   0.00    -0.00  -0.00   0.00
  23   1     0.00   0.00  -0.00    -0.00  -0.00  -0.00    -0.00  -0.00  -0.00
                     58                     59                     60
                        a                      a                      a 
 Frequencies --  2976.5944              2978.3927              2981.0907
 Red. masses --     1.7585                 1.5146                 1.6845
 Frc consts  --     0.0000                 0.0000                 0.0000
 IR Inten    --     0.3878                 0.3125                 0.5665
 Raman Activ --     0.0000                 0.0000                 0.0000
 Depolar     --     0.0000                 0.0000                 0.0000
 Atom AN      X      Y      Z        X      Y      Z        X      Y      Z
   1   6     0.10  -0.11   0.06    -0.03   0.00   0.02    -0.01  -0.08   0.10
   2   6     0.03  -0.03  -0.12    -0.08  -0.01   0.01    -0.10  -0.01   0.03
   3   6     0.07  -0.00  -0.04     0.02   0.11  -0.13    -0.04  -0.02   0.05
   4   1    -0.02   0.00   0.01     0.01   0.00  -0.00     0.02   0.00  -0.01
   5   6     0.04  -0.04  -0.04    -0.00   0.08   0.02    -0.03  -0.04   0.01
   6   1    -0.24  -0.01   0.17    -0.47   0.00   0.30     0.23   0.00  -0.16
   7   1     0.00   0.01  -0.01     0.40  -0.38   0.19    -0.10   0.08  -0.04
   8   6     0.07   0.10  -0.01    -0.04  -0.03   0.02    -0.12  -0.09   0.05
   9   1     0.08   0.09   0.36     0.02   0.04   0.15     0.01   0.03   0.13
  10   1    -0.16  -0.01   0.09     0.27   0.01  -0.18     0.37   0.01  -0.24
  11   6     0.01   0.01  -0.00    -0.00   0.00  -0.00    -0.01  -0.00   0.01
  12   1    -0.18  -0.40  -0.02     0.05   0.11   0.01     0.15   0.34   0.02
  13   1    -0.08   0.02   0.06     0.08  -0.00  -0.06     0.28  -0.01  -0.19
  14   1     0.07   0.13  -0.00    -0.14  -0.30  -0.00     0.06   0.14   0.00
  15   1    -0.20  -0.01   0.13     0.15   0.01  -0.10     0.03  -0.00  -0.02
  16   1    -0.41   0.41  -0.21     0.01  -0.01   0.01    -0.30   0.29  -0.15
  17   1     0.07  -0.01  -0.03     0.09   0.00  -0.06     0.34  -0.00  -0.21
  18  35     0.00  -0.00  -0.00     0.00   0.00  -0.00    -0.00  -0.00   0.00
  19   6     0.00   0.00  -0.00     0.00   0.01  -0.00    -0.00  -0.00   0.00
  20   8    -0.00  -0.00   0.00    -0.00   0.00   0.00     0.00   0.00  -0.00
  21   1    -0.00  -0.00   0.00     0.00   0.00  -0.00     0.00   0.00  -0.00
  22   1     0.00  -0.00   0.00    -0.00  -0.03   0.01     0.00   0.01  -0.00
  23   1    -0.00  -0.00  -0.00     0.00   0.00   0.00    -0.00  -0.00  -0.00
                     61                     62                     63
                        a                      a                      a 
 Frequencies --  2986.6838              2990.8529              3014.5063
 Red. masses --     1.5391                 1.5215                 1.6831
 Frc consts  --     0.0000                 0.0000                 0.0000
 IR Inten    --     0.3676                 0.3141                 0.2176
 Raman Activ --     0.0000                 0.0000                 0.0000
 Depolar     --     0.0000                 0.0000                 0.0000
 Atom AN      X      Y      Z        X      Y      Z        X      Y      Z
   1   6    -0.01   0.05  -0.06     0.05  -0.07   0.04     0.00  -0.00   0.00
   2   6    -0.11  -0.04  -0.11     0.06   0.02   0.04     0.00   0.00   0.00
   3   6     0.01  -0.02   0.01     0.01   0.01  -0.02    -0.00   0.00   0.00
   4   1    -0.01  -0.00   0.01    -0.00  -0.00   0.00    -0.01  -0.00   0.00
   5   6    -0.00  -0.06  -0.02     0.01   0.03   0.00     0.00   0.00   0.00
   6   1     0.02  -0.00  -0.01    -0.06  -0.00   0.04     0.00   0.00  -0.00
   7   1    -0.07   0.06  -0.03     0.03  -0.03   0.01     0.00   0.00   0.00
   8   6     0.07  -0.05  -0.07     0.08  -0.12  -0.10     0.00  -0.00  -0.00
   9   1     0.11   0.15   0.61    -0.04  -0.06  -0.26    -0.00  -0.00  -0.01
  10   1     0.27   0.00  -0.20    -0.17  -0.00   0.12    -0.00  -0.00   0.00
  11   6     0.01  -0.00  -0.00     0.00  -0.00  -0.00     0.00   0.00   0.00
  12   1     0.10   0.18  -0.00     0.24   0.47   0.01     0.00   0.00   0.00
  13   1    -0.37  -0.01   0.25    -0.52  -0.02   0.35    -0.00  -0.00   0.00
  14   1     0.09   0.21   0.00    -0.04  -0.09  -0.00    -0.00  -0.00  -0.00
  15   1    -0.09  -0.01   0.05     0.02   0.00  -0.01    -0.00   0.00   0.00
  16   1     0.20  -0.19   0.10    -0.24   0.24  -0.13    -0.01   0.01  -0.00
  17   1    -0.15   0.00   0.09     0.07  -0.01  -0.04     0.00  -0.00  -0.00
  18  35    -0.00  -0.00  -0.00     0.00  -0.00   0.00     0.00   0.00   0.00
  19   6     0.00  -0.00  -0.00    -0.00   0.00   0.00    -0.03  -0.12  -0.22
  20   8     0.00  -0.00  -0.00     0.00  -0.00   0.00    -0.01   0.00  -0.01
  21   1    -0.01  -0.00   0.00    -0.00   0.00  -0.00     0.00  -0.02  -0.03
  22   1     0.00   0.01  -0.00    -0.00  -0.00   0.00    -0.01  -0.06  -0.02
  23   1     0.00   0.00   0.01    -0.00  -0.01  -0.01     0.14   0.48   0.83
