
                                 *****************
                                 * O   R   C   A *
                                 *****************

           --- An Ab Initio, DFT and Semiempirical electronic structure package ---

                  #######################################################
                  #                        -***-                        #
                  #          Department of theory and spectroscopy      #
                  #               Directorship: Frank Neese             #
                  #        Max Planck Institute fuer Kohlenforschung    #
                  #                Kaiser Wilhelm Platz 1               #
                  #                 D-45470 Muelheim/Ruhr               #
                  #                      Germany                        #
                  #                                                     #
                  #                  All rights reserved                #
                  #                        -***-                        #
                  #######################################################


                         Program Version 4.2.1 -  RELEASE  -


 With contributions from (in alphabetic order):
   Daniel Aravena         : Magnetic Suceptibility
   Michael Atanasov       : Ab Initio Ligand Field Theory (pilot matlab implementation)
   Alexander A. Auer      : GIAO ZORA, VPT2
   Ute Becker             : Parallelization
   Giovanni Bistoni       : ED, misc. LED, open-shell LED, HFLD
   Martin Brehm           : Molecular dynamics
   Dmytro Bykov           : SCF Hessian
   Vijay G. Chilkuri      : MRCI spin determinant printing, contributions to CSF-ICE
   Dipayan Datta          : RHF DLPNO-CCSD density
   Achintya Kumar Dutta   : EOM-CC, STEOM-CC
   Dmitry Ganyushin       : Spin-Orbit,Spin-Spin,Magnetic field MRCI
   Miquel Garcia          : C-PCM Hessian, Gaussian charge scheme
   Yang Guo               : DLPNO-NEVPT2, CIM, IAO-localization
   Andreas Hansen         : Spin unrestricted coupled pair/coupled cluster methods
   Benjamin Helmich-Paris : CASSCF linear response (MC-RPA)
   Lee Huntington         : MR-EOM, pCC
   Robert Izsak           : Overlap fitted RIJCOSX, COSX-SCS-MP3, EOM
   Christian Kollmar      : KDIIS, OOCD, Brueckner-CCSD(T), CCSD density
   Simone Kossmann        : Meta GGA functionals, TD-DFT gradient, OOMP2, MP2 Hessian
   Martin Krupicka        : AUTO-CI
   Lucas Lang             : DCDCAS
   Dagmar Lenk            : GEPOL surface, SMD
   Dimitrios Liakos       : Extrapolation schemes; Compound Job, initial MDCI parallelization
   Dimitrios Manganas     : Further ROCIS development; embedding schemes
   Dimitrios Pantazis     : SARC Basis sets
   Taras Petrenko         : DFT Hessian,TD-DFT gradient, ASA, ECA, R-Raman, ABS, FL, XAS/XES, NRVS
   Peter Pinski           : DLPNO-MP2, DLPNO-MP2 Gradient
   Christoph Reimann      : Effective Core Potentials
   Marius Retegan         : Local ZFS, SOC
   Christoph Riplinger    : Optimizer, TS searches, QM/MM, DLPNO-CCSD(T), (RO)-DLPNO pert. Triples
   Tobias Risthaus        : Range-separated hybrids, TD-DFT gradient, RPA, STAB
   Michael Roemelt        : Original ROCIS implementation
   Masaaki Saitow         : Open-shell DLPNO-CCSD energy and density
   Barbara Sandhoefer     : DKH picture change effects
   Avijit Sen             : IP-ROCIS
   Kantharuban Sivalingam : CASSCF convergence, NEVPT2, FIC-MRCI
   Bernardo de Souza      : ESD, SOC TD-DFT
   Georgi Stoychev        : AutoAux, RI-MP2 NMR
   Willem Van den Heuvel  : Paramagnetic NMR
   Boris Wezisla          : Elementary symmetry handling
   Frank Wennmohs         : Technical directorship


 We gratefully acknowledge several colleagues who have allowed us to
 interface, adapt or use parts of their codes:
   Stefan Grimme, W. Hujo, H. Kruse,             : VdW corrections, initial TS optimization,
                  C. Bannwarth                     DFT functionals, gCP, sTDA/sTD-DF
   Ed Valeev, F. Pavosevic, A. Kumar             : LibInt (2-el integral package), F12 methods
   Garnet Chan, S. Sharma, J. Yang, R. Olivares  : DMRG
   Ulf Ekstrom                                   : XCFun DFT Library
   Mihaly Kallay                                 : mrcc  (arbitrary order and MRCC methods)
   Andreas Klamt, Michael Diedenhofen            : otool_cosmo (COSMO solvation model)
   Jiri Pittner, Ondrej Demel                    : Mk-CCSD
   Frank Weinhold                                : gennbo (NPA and NBO analysis)
   Christopher J. Cramer and Donald G. Truhlar   : smd solvation model
   Lars Goerigk                                  : TD-DFT with DH, B97 family of functionals
   V. Asgeirsson, H. Jonsson                     : NEB implementation
   FAccTs GmbH                                   : IRC, NEB, NEB-TS, Multilevel, MM, QM/MM, CI optimization
   S Lehtola, MJT Oliveira, MAL Marques          : LibXC Library


 Your calculation uses the libint2 library for the computation of 2-el integrals
 For citations please refer to: http://libint.valeyev.net

 Your ORCA version has been built with support for libXC version: 4.2.3
 For citations please refer to: https://tddft.org/programs/libxc/

 This ORCA versions uses:
   CBLAS   interface :  Fast vector & matrix operations
   LAPACKE interface :  Fast linear algebra routines
   SCALAPACK package :  Parallel linear algebra routines




***************************************
The coordinates will be read from file: init.xyz
***************************************


Your calculation utilizes the SMD solvation module
Please cite in your paper:
A.V. Marenich, C.J. Cramer, D.G. Truhlar J. Phys. Chem. B, 113, (2009), 6378 

Your calculation utilizes the semiempirical GFN2-xTB method
Please cite in your paper:
C. Bannwarth, Ehlert S., S. Grimme,  J. Chem. Theory Comput., 15, (2019), 1652.
   

----- Orbital basis set information -----
Your calculation utilizes the basis: def2-SVP
   F. Weigend and R. Ahlrichs, Phys. Chem. Chem. Phys. 7, 3297 (2005).

================================================================================
                                        WARNINGS
                       Please study these warnings very carefully!
================================================================================


WARNING: The environment variable RSH_COMMAND is not set!
  ===> : All Displacements for the Numerical Hessian calculation
         will be started on localhost

WARNING: Geometry Optimization
  ===> : Switching off AutoStart
         For restart on a previous wavefunction, please use MOREAD

WARNING: Found dipole moment calculation with XTB calculation
  ===> : Switching off dipole moment calculation


INFO   : the flag for use of LIBINT has been found!

================================================================================
                                       INPUT FILE
================================================================================
NAME = opt+numfreq.inp
|  1> ! xTB2 Opt NumFreq
|  2> 
|  3> *xyzfile -1 1 init.xyz
|  4> 
|  5> %cpcm
|  6>  smd true
|  7>  SMDsolvent "METHANOL"
|  8> end
|  9> 
| 10> %pal
| 11>  nprocs 4
| 12> end
| 13> 
| 14>                          ****END OF INPUT****
================================================================================

                       *****************************
                       * Geometry Optimization Run *
                       *****************************

Geometry optimization settings:
Update method            Update   .... BFGS
Choice of coordinates    CoordSys .... Z-matrix Internals
Initial Hessian          InHess   .... Almoef's Model

Convergence Tolerances:
Energy Change            TolE     ....  5.0000e-06 Eh
Max. Gradient            TolMAXG  ....  3.0000e-04 Eh/bohr
RMS Gradient             TolRMSG  ....  1.0000e-04 Eh/bohr
Max. Displacement        TolMAXD  ....  4.0000e-03 bohr
RMS Displacement         TolRMSD  ....  2.0000e-03 bohr
Strict Convergence                ....  False
------------------------------------------------------------------------------
                        ORCA OPTIMIZATION COORDINATE SETUP
------------------------------------------------------------------------------

The optimization will be done in new redundant internal coordinates
Making redundant internal coordinates   ...  (new redundants) done
Evaluating the initial hessian          ...  (Almloef) done
Evaluating the coordinates              ...  done
Calculating the B-matrix                .... done
Calculating the G-matrix                .... done
Diagonalizing the G-matrix              .... done
The first mode is                       ....   78
The number of degrees of freedom        ....   63

    -----------------------------------------------------------------
                    Redundant Internal Coordinates


    -----------------------------------------------------------------
         Definition                    Initial Value    Approx d2E/dq
    -----------------------------------------------------------------
      1. B(C   1,C   0)                  1.5255         0.379768   
      2. B(C   4,C   1)                  1.5255         0.379744   
      3. B(C   4,C   2)                  1.5251         0.380415   
      4. B(H   5,C   2)                  1.0958         0.352445   
      5. B(H   6,C   2)                  1.0943         0.354508   
      6. B(C   7,C   0)                  1.5245         0.381164   
      7. B(H   8,C   1)                  1.0919         0.357644   
      8. B(H   9,C   1)                  1.0934         0.355630   
      9. B(C  10,C   7)                  1.5140         0.396244   
     10. B(C  10,H   3)                  1.0925         0.356836   
     11. B(C  10,C   2)                  1.5152         0.394429   
     12. B(H  11,C   7)                  1.0946         0.354047   
     13. B(H  12,C   7)                  1.0990         0.348338   
     14. B(H  13,C   4)                  1.0916         0.357973   
     15. B(H  14,C   4)                  1.0942         0.354566   
     16. B(H  15,C   0)                  1.0919         0.357643   
     17. B(H  16,C   0)                  1.0946         0.354121   
     18. B(Br 17,C  10)                  1.9539         0.264589   
     19. B(O  19,H  12)                  2.1705         0.006091   
     20. B(O  19,H   5)                  2.3314         0.003373   
     21. B(O  19,C  18)                  1.3134         0.741564   
     22. B(H  20,C  18)                  1.1351         0.305101   
     23. B(H  21,C  18)                  1.1365         0.303560   
     24. B(H  22,C  18)                  1.1344         0.305900   
     25. A(C   7,C   0,H  15)          109.1841         0.325026   
     26. A(H  15,C   0,H  16)          108.0540         0.289765   
     27. A(C   1,C   0,H  15)          110.1886         0.324830   
     28. A(C   7,C   0,H  16)          109.5670         0.324498   
     29. A(C   1,C   0,H  16)          109.6987         0.324303   
     30. A(C   1,C   0,C   7)          110.1143         0.365631   
     31. A(C   0,C   1,H   8)          110.1219         0.324831   
     32. A(H   8,C   1,H   9)          108.6415         0.289958   
     33. A(C   4,C   1,H   8)          110.1649         0.324827   
     34. A(C   4,C   1,H   9)          108.9128         0.324526   
     35. A(C   0,C   1,C   4)          110.1558         0.365397   
     36. A(C   0,C   1,H   9)          108.8039         0.324529   
     37. A(C   4,C   2,H   5)          110.3206         0.324141   
     38. A(C   4,C   2,C  10)          111.7853         0.367888   
     39. A(H   5,C   2,H   6)          108.3804         0.289150   
     40. A(H   6,C   2,C  10)          110.5655         0.326387   
     41. A(C   4,C   2,H   6)          110.6622         0.324452   
     42. A(H   5,C   2,C  10)          104.9310         0.326074   
     43. A(H  13,C   4,H  14)          108.0822         0.289864   
     44. A(C   1,C   4,H  14)          109.6565         0.324366   
     45. A(C   2,C   4,H  13)          109.2086         0.324971   
     46. A(C   1,C   4,H  13)          110.1670         0.324876   
     47. A(C   2,C   4,H  14)          109.5725         0.324460   
     48. A(C   1,C   4,C   2)          110.1206         0.365504   
     49. A(C   2,H   5,O  19)          140.5193         0.157975   
     50. A(H  11,C   7,H  12)          108.2854         0.288561   
     51. A(C  10,C   7,H  12)          104.5517         0.325692   
     52. A(C   0,C   7,H  12)          110.4906         0.323622   
     53. A(C  10,C   7,H  11)          110.6799         0.326564   
     54. A(C   0,C   7,H  11)          110.7418         0.324487   
     55. A(C   0,C   7,C  10)          111.8693         0.368303   
     56. A(C   2,C  10,H   3)          110.2621         0.326739   
     57. A(H   3,C  10,C   7)          110.1805         0.326987   
     58. A(C   7,C  10,Br 17)          110.2035         0.368001   
     59. A(H   3,C  10,Br 17)          104.4614         0.324651   
     60. A(C   2,C  10,Br 17)          110.0596         0.367712   
     61. A(C   2,C  10,C   7)          111.4540         0.370474   
     62. A(C   7,H  12,O  19)          146.0952         0.167639   
     63. A(H  21,C  18,H  22)          104.3194         0.276147   
     64. A(H  20,C  18,H  22)          104.4187         0.276361   
     65. A(O  19,C  18,H  22)          114.1480         0.351682   
     66. A(H  20,C  18,H  21)          104.3807         0.276036   
     67. A(O  19,C  18,H  21)          114.2001         0.351226   
     68. A(O  19,C  18,H  20)          114.2078         0.351527   
     69. A(H   5,O  19,H  12)           66.4971         0.116208   
     70. A(H  12,O  19,C  18)          124.8444         0.195995   
     71. A(H   5,O  19,C  18)          168.6547         0.182597   
     72. D(H   9,C   1,C   0,H  15)     59.5702         0.011495   
     73. D(H   8,C   1,C   0,C   7)   -179.8999         0.011495   
     74. D(H   9,C   1,C   0,H  16)    178.4107         0.011495   
     75. D(H   8,C   1,C   0,H  15)    -59.4011         0.011495   
     76. D(C   4,C   1,C   0,H  15)    178.8927         0.011495   
     77. D(H   9,C   1,C   0,C   7)    -60.9286         0.011495   
     78. D(C   4,C   1,C   0,C   7)     58.3938         0.011495   
     79. D(H   8,C   1,C   0,H  16)     59.4394         0.011495   
     80. D(C   4,C   1,C   0,H  16)    -62.2669         0.011495   
     81. D(C   2,C   4,C   1,H   9)     60.8117         0.011494   
     82. D(H  13,C   4,C   2,C  10)    177.3814         0.011532   
     83. D(C   2,C   4,C   1,H   8)    179.8749         0.011494   
     84. D(H  13,C   4,C   2,H   5)     61.0288         0.011532   
     85. D(H  14,C   4,C   2,H   6)     59.3040         0.011532   
     86. D(C   1,C   4,C   2,H   6)    179.9991         0.011532   
     87. D(H  13,C   4,C   1,H   8)     59.3554         0.011494   
     88. D(H  14,C   4,C   1,H   9)   -178.5438         0.011494   
     89. D(H  14,C   4,C   1,H   8)    -59.4806         0.011494   
     90. D(C   2,C   4,C   1,C   0)    -58.4445         0.011494   
     91. D(C   1,C   4,C   2,C  10)     56.2868         0.011532   
     92. D(H  13,C   4,C   1,H   9)    -59.7078         0.011494   
     93. D(H  13,C   4,C   1,C   0)   -178.9640         0.011494   
     94. D(H  14,C   4,C   2,H   5)    179.2391         0.011532   
     95. D(H  14,C   4,C   1,C   0)     62.2000         0.011494   
     96. D(H  14,C   4,C   2,C  10)    -64.4083         0.011532   
     97. D(H  13,C   4,C   2,H   6)    -58.9063         0.011532   
     98. D(C   1,C   4,C   2,H   5)    -60.0658         0.011532   
     99. D(O  19,H   5,C   2,C  10)     -7.3100         0.115287   
    100. D(O  19,H   5,C   2,H   6)   -125.4547         0.115287   
    101. D(O  19,H   5,C   2,C   4)    113.2432         0.115287   
    102. D(C  10,C   7,C   0,C   1)    -56.2469         0.011576   
    103. D(H  12,C   7,C   0,H  15)    -61.3074         0.011576   
    104. D(H  12,C   7,C   0,C   1)     59.7943         0.011576   
    105. D(H  11,C   7,C   0,H  16)    -59.4872         0.011576   
    106. D(H  11,C   7,C   0,H  15)     58.6712         0.011576   
    107. D(H  11,C   7,C   0,C   1)    179.7730         0.011576   
    108. D(C  10,C   7,C   0,H  16)     64.4930         0.011576   
    109. D(H  12,C   7,C   0,H  16)   -179.4658         0.011576   
    110. D(C  10,C   7,C   0,H  15)   -177.3486         0.011576   
    111. D(Br 17,C  10,C   7,H  12)    171.8374         0.012466   
    112. D(Br 17,C  10,C   7,H  11)     55.4489         0.012466   
    113. D(H   3,C  10,C   7,H  12)     57.0811         0.012466   
    114. D(H   3,C  10,C   7,H  11)    -59.3074         0.012466   
    115. D(H   3,C  10,C   7,C   0)    176.6777         0.012466   
    116. D(C   2,C  10,C   7,H  12)    -65.6618         0.012466   
    117. D(C   2,C  10,C   7,H  11)    177.9496         0.012466   
    118. D(C   2,C  10,C   7,C   0)     53.9348         0.012466   
    119. D(Br 17,C  10,C   2,H   6)    -55.1184         0.012357   
    120. D(Br 17,C  10,C   2,H   5)   -171.7724         0.012357   
    121. D(Br 17,C  10,C   2,C   4)     68.6484         0.012357   
    122. D(C   7,C  10,C   2,H   6)   -177.7018         0.012357   
    123. D(C   7,C  10,C   2,H   5)     65.6442         0.012357   
    124. D(C   7,C  10,C   2,C   4)    -53.9350         0.012357   
    125. D(Br 17,C  10,C   7,C   0)    -68.5660         0.012466   
    126. D(H   3,C  10,C   2,H   6)     59.6021         0.012357   
    127. D(H   3,C  10,C   2,H   5)    -57.0520         0.012357   
    128. D(H   3,C  10,C   2,C   4)   -176.6312         0.012357   
    129. D(O  19,H  12,C   7,H  11)    120.2175         0.112055   
    130. D(O  19,H  12,C   7,C  10)      2.1814         0.112055   
    131. D(O  19,H  12,C   7,C   0)   -118.3383         0.112055   
    132. D(C  18,O  19,H  12,C   7)   -146.4962         0.001519   
    133. D(H  12,O  19,H   5,C   2)    -29.6153         0.001506   
    134. D(C  18,O  19,H   5,C   2)    151.8065         0.001506   
    135. D(H  12,O  19,C  18,H  22)    155.4858         0.050156   
    136. D(H  12,O  19,C  18,H  21)     35.5752         0.050156   
    137. D(H  12,O  19,C  18,H  20)    -84.4643         0.050156   
    138. D(H   5,O  19,C  18,H  22)    -26.1030         0.050156   
    139. D(H   5,O  19,C  18,H  21)   -146.0136         0.050156   
    140. D(H   5,O  19,C  18,H  20)     93.9469         0.050156   
    141. D(H   5,O  19,H  12,C   7)     33.8446         0.001519   
    -----------------------------------------------------------------

Number of atoms                         .... 23
Number of degrees of freedom            .... 141

         *************************************************************
         *                GEOMETRY OPTIMIZATION CYCLE   1            *
         *************************************************************
      -----------------------------------------------------------      
     |                   =====================                   |     
     |                           x T B                           |     
     |                   =====================                   |     
     |                         S. Grimme                         |     
     |          Mulliken Center for Theoretical Chemistry        |     
     |                    University of Bonn                     |     
      -----------------------------------------------------------      

   * xtb version 6.3.2 (30e43eb) compiled by 'schneider@apollo14' on 2020-08-08

   xtb is free software: you can redistribute it and/or modify it under
   the terms of the GNU Lesser General Public License as published by
   the Free Software Foundation, either version 3 of the License, or
   (at your option) any later version.
   
   xtb is distributed in the hope that it will be useful,
   but WITHOUT ANY WARRANTY; without even the implied warranty of
   MERCHANTABILITY or FITNESS FOR A PARTICULAR PURPOSE.  See the
   GNU Lesser General Public License for more details.
   
   Cite this work as:
   * S. Grimme, C. Bannwarth, P. Shushkov, J. Chem. Theory Comput., 2017,
     13, 1989-2009. DOI: 10.1021/acs.jctc.7b00118
   * C. Bannwarth, S. Ehlert and S. Grimme., J. Chem. Theory Comput., 2019,
     15, 1652-1671. DOI: 10.1021/acs.jctc.8b01176
   * P. Pracht, E. Caldeweyher, S. Ehlert, S. Grimme, ChemRxiv, 2019, preprint.
     DOI: 10.26434/chemrxiv.8326202.v1
   
   for GFN-FF:
   * S. Spicher and S. Grimme, Angew. Chem. Int. Ed., 2020,
     DOI: 10.1002/anie.202004239
   
   for DFT-D4:
   * E. Caldeweyher, C. Bannwarth and S. Grimme, J. Chem. Phys., 2017,
     147, 034112. DOI: 10.1063/1.4993215
   * E. Caldeweyher, S. Ehlert, A. Hansen, H. Neugebauer, S. Spicher,
     C. Bannwarth and S. Grimme, J. Chem. Phys., 2019, 150, 154122.
     DOI: 10.1063/1.5090222
   
   for sTDA-xTB:
   * S. Grimme and C. Bannwarth, J. Chem. Phys., 2016, 145, 054103.
     DOI: 10.1063/1.4959605
   
   in the mass-spec context:
   * V. Asgeirsson, C. Bauer and S. Grimme, Chem. Sci., 2017, 8, 4879.
     DOI: 10.1039/c7sc00601b
   * J. Koopman and S. Grimme, ACS Omega 2019, 4, 12, 15120-15133.
     DOI: 10.1021/acsomega.9b02011
   
   for metadynamics refer to:
   * S. Grimme, J. Chem. Theory Comput., 2019, 155, 2847-2862
     DOI: 10.1021/acs.jctc.9b00143
   
   with help from (in alphabetical order)
   C. Bannwarth, F. Bohle, G. Brandenburg, E. Caldeweyher, M. Checinski,
   S. Dohm, S. Ehlert, S. Ehrlich, F. März, H. Neugebauer, J. Pisarek,
   P. Pracht, P. Shushkov, and S. Spicher.
   
 * started run on 2021/11/10 at 00:28:57.320     

           -------------------------------------------------
          |                Calculation Setup                |
           -------------------------------------------------

          program call               : /opt/orca/otool_xtb opt+numfreq_XTB.xyz --grad -c -1 -u 0 -P 4 --namespace opt+numfreq --gbsa methanol
          calculation namespace      : opt+numfreq
          coordinate file            : opt+numfreq_XTB.xyz
          omp threads                :                     4
          number of atoms            :                    23
          number of electrons        :                    56
          charge                     :                    -1
          spin                       :                   0.0
          first test random number   :      0.38372981286562

   ID    Z sym.   atoms
    1    6 C      1-3, 5, 8, 11, 19
    2    1 H      4, 6, 7, 9, 10, 12-17, 21-23
    3   35 Br     18
    4    8 O      20

molecular fragmentation (1/2 indicates fragments):
11111111111111111122222
# atoms in fragment 1/2:    18     5
 fragment masses (1/2) :      163.06       31.03
CMA distance (Bohr)    :   9.056
constraining FC (au)   :  0.0500
########################################################################
[WARNING] Please study the warnings concerning your input carefully
-1- prog_main_parseArguments: Process number higher than OMP_NUM_THREADS, I hope you know what you are doing.
########################################################################

           -------------------------------------------------
          |                 G F N 2 - x T B                 |
           -------------------------------------------------

        Reference                      10.1021/acs.jctc.8b01176
      * Hamiltonian:
        H0-scaling (s, p, d)           1.850000    2.230000    2.230000
        zeta-weighting                 0.500000
      * Dispersion:
        s8                             2.700000
        a1                             0.520000
        a2                             5.000000
        s9                             5.000000
      * Repulsion:
        kExp                           1.500000    1.000000
        rExp                           1.000000
      * Coulomb:
        alpha                          2.000000
        third order                    shell-resolved
        anisotropic                    true
        a3                             3.000000
        a5                             4.000000
        cn-shift                       1.200000
        cn-exp                         4.000000
        max-rad                        5.000000

      * Solvation model:               GBSA
        Solvent                        methanol
        Parameter file                 internal GFN2-xTB/GBSA
        Dielectric constant                3.2700E+01
        Reference state                gsolv [1 M gas/solution]
        Free energy shift                  3.3569E-03 Eh       2.1065E+00 kcal/mol
        Temperature                        2.9815E+02 K
        Density                            7.9200E-01 kg/L
        Solvent mass                       3.2040E+01 g/mol
        Interaction kernel             Still
        Born radius scaling (c1)           1.6087E+00
        Born radii integrator          GBOBC
        Born offset                        5.6550E-04 a0       1.0686E-03 AA
        H-bond correction              true
        Ion screening                  false
        Surface tension                    1.0000E-05 Eh       1.5569E+01 dyn/cm
        Grid points                               230 per atom
q/qsh data taken from xtbrestart
CAMM data taken from xtbrestart

          ...................................................
          :                      SETUP                      :
          :.................................................:
          :  # basis functions                  56          :
          :  # atomic orbitals                  55          :
          :  # shells                           33          :
          :  # electrons                        56          :
          :  max. iterations                   250          :
          :  Hamiltonian                  GFN2-xTB          :
          :  restarted?                       true          :
          :  GBSA solvation                   true          :
          :  PC potential                    false          :
          :  electronic temp.          300.0000000     K    :
          :  accuracy                    1.0000000          :
          :  -> integral cutoff          0.2500000E+02      :
          :  -> integral neglect         0.1000000E-07      :
          :  -> SCF convergence          0.1000000E-05 Eh   :
          :  -> wf. convergence          0.1000000E-03 e    :
          :  Broyden damping             0.4000000          :
          ...................................................

 iter      E             dE          RMSdq      gap      omega  full diag
   1    -30.8990946 -0.308991E+02  0.220E-06    2.86       0.0  T
   2    -30.8990946 -0.994760E-13  0.164E-06    2.86   12699.6  T
   3    -30.8990946 -0.461853E-13  0.118E-06    2.86   17683.9  T

   *** convergence criteria satisfied after 3 iterations ***

         #    Occupation            Energy/Eh            Energy/eV
      -------------------------------------------------------------
         1        2.0000           -0.8321251             -22.6433
       ...           ...                  ...                  ...
        22        2.0000           -0.4232673             -11.5177
        23        2.0000           -0.4220805             -11.4854
        24        2.0000           -0.4187981             -11.3961
        25        2.0000           -0.4005126             -10.8985
        26        2.0000           -0.3985891             -10.8462
        27        2.0000           -0.3127242              -8.5097
        28        2.0000           -0.3123398              -8.4992 (HOMO)
        29                         -0.2074102              -5.6439 (LUMO)
        30                          0.0379970               1.0340
        31                          0.0402651               1.0957
        32                          0.0473620               1.2888
        33                          0.0585067               1.5920
       ...                                ...                  ...
        55                          0.4115662              11.1993
      -------------------------------------------------------------
                  HL-Gap            0.1049296 Eh            2.8553 eV
             Fermi-level           -0.2598750 Eh           -7.0716 eV

 SCC (total)                   0 d,  0 h,  0 min,  0.015 sec
 SCC setup                      ...        0 min,  0.001 sec (  9.198%)
 Dispersion                     ...        0 min,  0.000 sec (  1.036%)
 classical contributions        ...        0 min,  0.000 sec (  0.258%)
 integral evaluation            ...        0 min,  0.004 sec ( 25.619%)
 iterations                     ...        0 min,  0.004 sec ( 25.021%)
 molecular gradient             ...        0 min,  0.006 sec ( 37.873%)
 printout                       ...        0 min,  0.000 sec (  0.907%)

         :::::::::::::::::::::::::::::::::::::::::::::::::::::
         ::                     SUMMARY                     ::
         :::::::::::::::::::::::::::::::::::::::::::::::::::::
         :: total energy             -30.577954235643 Eh    ::
         :: total w/o Gsasa/hb       -30.566895733167 Eh    ::
         :: gradient norm              0.000267257355 Eh/a0 ::
         :: HOMO-LUMO gap              2.855279852621 eV    ::
         ::.................................................::
         :: SCC energy               -30.899094568684 Eh    ::
         :: -> isotropic ES            0.214552159353 Eh    ::
         :: -> anisotropic ES         -0.014954228355 Eh    ::
         :: -> anisotropic XC         -0.012084818510 Eh    ::
         :: -> dispersion             -0.018994648261 Eh    ::
         :: -> Gsolv                  -0.113499971151 Eh    ::
         ::    -> Gborn               -0.102441468674 Eh    ::
         ::    -> Gsasa               -0.012218247614 Eh    ::
         ::    -> Ghb                 -0.002197184385 Eh    ::
         ::    -> Gshift               0.003356929523 Eh    ::
         :: repulsion energy           0.321004583123 Eh    ::
         :: add. restraining           0.000000000000 Eh    ::
         :: total charge              -1.000000000000 e     ::
         :::::::::::::::::::::::::::::::::::::::::::::::::::::

           -------------------------------------------------
          |                Property Printout                |
           -------------------------------------------------

    * Orbital Energies and Occupations

         #    Occupation            Energy/Eh            Energy/eV
      -------------------------------------------------------------
         1        2.0000           -0.8321251             -22.6433
       ...           ...                  ...                  ...
        16        2.0000           -0.4802735             -13.0689
        17        2.0000           -0.4769026             -12.9772
        18        2.0000           -0.4700886             -12.7918
        19        2.0000           -0.4490004             -12.2179
        20        2.0000           -0.4390572             -11.9474
        21        2.0000           -0.4377337             -11.9113
        22        2.0000           -0.4232673             -11.5177
        23        2.0000           -0.4220805             -11.4854
        24        2.0000           -0.4187981             -11.3961
        25        2.0000           -0.4005126             -10.8985
        26        2.0000           -0.3985891             -10.8462
        27        2.0000           -0.3127242              -8.5097
        28        2.0000           -0.3123398              -8.4992 (HOMO)
        29                         -0.2074102              -5.6439 (LUMO)
        30                          0.0379970               1.0340
        31                          0.0402651               1.0957
        32                          0.0473620               1.2888
        33                          0.0585067               1.5920
        34                          0.0864889               2.3535
        35                          0.0956444               2.6026
        36                          0.1026057               2.7920
        37                          0.1125147               3.0617
        38                          0.1137905               3.0964
        39                          0.1166112               3.1732
       ...                                ...                  ...
        55                          0.4115662              11.1993
      -------------------------------------------------------------
                  HL-Gap            0.1049296 Eh            2.8553 eV
             Fermi-level           -0.2598750 Eh           -7.0716 eV

     #   Z          covCN         q      C6AA      α(0)
     1   6 C        3.806    -0.052    21.500     6.601
     2   6 C        3.806    -0.054    21.543     6.607
     3   6 C        3.880    -0.046    21.352     6.570
     4   1 H        0.926     0.013     2.842     2.636
     5   6 C        3.806    -0.053    21.528     6.605
     6   1 H        0.924     0.045     2.381     2.413
     7   1 H        0.924     0.028     2.615     2.529
     8   6 C        3.879    -0.046    21.345     6.569
     9   1 H        0.924     0.041     2.441     2.443
    10   1 H        0.924     0.022     2.705     2.572
    11   6 C        3.796     0.078    19.286     6.253
    12   1 H        0.924     0.020     2.729     2.583
    13   1 H        0.923     0.047     2.357     2.401
    14   1 H        0.924     0.032     2.553     2.499
    15   1 H        0.924     0.052     2.299     2.371
    16   1 H        0.924     0.028     2.612     2.527
    17   1 H        0.924     0.050     2.325     2.385
    18  35 Br       1.063    -0.219   191.150    22.292
    19   6 C        3.603     0.203    17.884     6.114
    20   8 O        0.855    -0.829    32.482     7.641
    21   1 H        0.916    -0.119     6.268     3.916
    22   1 H        0.916    -0.122     6.385     3.952
    23   1 H        0.916    -0.119     6.283     3.920

 Mol. C6AA /au·bohr⁶  :       5800.922668
 Mol. C8AA /au·bohr⁸  :     154132.461627
 Mol. α(0) /au        :        114.401512


Wiberg/Mayer (AO) data.
largest (>0.10) Wiberg bond orders for each atom

 ---------------------------------------------------------------------------
     #   Z sym  total        # sym  WBO       # sym  WBO       # sym  WBO
 ---------------------------------------------------------------------------
     1   6 C    3.997 --     2 C    1.009     8 C    1.009    16 H    0.977
                            17 H    0.973
     2   6 C    3.998 --     5 C    1.009     1 C    1.009    10 H    0.978
                             9 H    0.977
     3   6 C    3.994 --    11 C    1.013     5 C    1.009     7 H    0.977
                             6 H    0.959
     4   1 H    1.000 --    11 C    0.976
     5   6 C    3.997 --     2 C    1.009     3 C    1.009    14 H    0.977
                            15 H    0.973
     6   1 H    0.998 --     3 C    0.959
     7   1 H    0.999 --     3 C    0.977
     8   6 C    3.994 --    11 C    1.014     1 C    1.009    12 H    0.977
                            13 H    0.950
     9   1 H    0.998 --     2 C    0.977
    10   1 H    1.000 --     2 C    0.978
    11   6 C    3.943 --     8 C    1.014     3 C    1.013     4 H    0.976
                            18 Br   0.901
    12   1 H    1.000 --     8 C    0.977
    13   1 H    0.998 --     8 C    0.950
    14   1 H    0.999 --     5 C    0.977
    15   1 H    0.997 --     5 C    0.973
    16   1 H    0.999 --     1 C    0.977
    17   1 H    0.997 --     1 C    0.973
    18  35 Br   0.976 --    11 C    0.901
    19   6 C    3.977 --    20 O    1.170    23 H    0.935    21 H    0.935
                            22 H    0.934
    20   8 O    1.350 --    19 C    1.170
    21   1 H    0.986 --    19 C    0.935
    22   1 H    0.985 --    19 C    0.934
    23   1 H    0.986 --    19 C    0.935
 ---------------------------------------------------------------------------

Topologies differ in total number of bonds
Writing topology from bond orders to xtbtopo.mol

molecular dipole:
                 x           y           z       tot (Debye)
 q only:       -4.123       2.025       7.732
   full:       -2.989       1.580       6.282      18.133
molecular quadrupole (traceless):
                xx          xy          yy          xz          yz          zz
 q only:        7.699      15.835      40.962      60.747     -25.441     -48.661
  q+dip:        0.582      13.739      39.307      57.082     -21.072     -39.889
   full:        0.888      13.536      39.019      56.493     -20.768     -39.907


           -------------------------------------------------
          | TOTAL ENERGY              -30.577954235643 Eh   |
          | GRADIENT NORM               0.000267257355 Eh/α |
          | HOMO-LUMO GAP               2.855279852621 eV   |
           -------------------------------------------------

------------------------------------------------------------------------
 * finished run on 2021/11/10 at 00:28:57.351     
------------------------------------------------------------------------
 total:
 * wall-time:     0 d,  0 h,  0 min,  0.031 sec
 *  cpu-time:     0 d,  0 h,  0 min,  0.235 sec
 * ratio c/w:     7.631 speedup
 SCF:
 * wall-time:     0 d,  0 h,  0 min,  0.016 sec
 *  cpu-time:     0 d,  0 h,  0 min,  0.121 sec
 * ratio c/w:     7.553 speedup


-------------------------   --------------------
FINAL SINGLE POINT ENERGY       -30.577954235640
-------------------------   --------------------

------------------------------------------------------------------------------
                         ORCA GEOMETRY RELAXATION STEP
------------------------------------------------------------------------------

Reading the OPT-File                    .... done
Getting information on internals        .... done
Copying old internal coords+grads       .... done
Making the new internal coordinates     .... (new redundants).... done
Validating the new internal coordinates .... (new redundants).... done
Calculating the B-matrix                .... done
Calculating the G,G- and P matrices     .... done
Transforming gradient to internals      .... done
Projecting the internal gradient        .... done
Number of atoms                         ....  23
Number of internal coordinates          .... 141
Current Energy                          ....   -30.577954236 Eh
Current gradient norm                   ....     0.000267257 Eh/bohr
Maximum allowed component of the step   ....  0.300
Current trust radius                    ....  0.300
Evaluating the initial hessian          ....  (Almloef) done
Projecting the Hessian                  .... done
Forming the augmented Hessian           .... done
Diagonalizing the augmented Hessian     .... done
Last element of RFO vector              ....  0.999996468
Lowest eigenvalues of augmented Hessian:
 -0.000000353  0.008844252  0.014113473  0.015864350  0.022935788
Length of the computed step             ....  0.002657862
The final length of the internal step   ....  0.002657862
Converting the step to cartesian space:
 Initial RMS(Int)=    0.0002238324
Transforming coordinates:
 Iter   0:  RMS(Cart)=    0.0004440599 RMS(Int)=    0.0002238351
 Iter   1:  RMS(Cart)=    0.0000000854 RMS(Int)=    0.0000000592
done
Storing new coordinates                 .... done

                                .--------------------.
          ----------------------|Geometry convergence|-------------------------
          Item                value                   Tolerance       Converged
          ---------------------------------------------------------------------
          RMS gradient        0.0000221177            0.0001000000      YES
          MAX gradient        0.0001633428            0.0003000000      YES
          RMS step            0.0002238324            0.0020000000      YES
          MAX step            0.0012685957            0.0040000000      YES
          ........................................................
          Max(Bonds)      0.0007      Max(Angles)    0.02
          Max(Dihed)        0.04      Max(Improp)    0.00
          ---------------------------------------------------------------------

                    ***********************HURRAY********************
                    ***        THE OPTIMIZATION HAS CONVERGED     ***
                    *************************************************


    ---------------------------------------------------------------------------
                         Redundant Internal Coordinates

                          --- Optimized Parameters ---  
                            (Angstroem and degrees)

        Definition                    OldVal   dE/dq     Step     FinalVal
    ----------------------------------------------------------------------------
     1. B(C   1,C   0)                1.5255 -0.000000  0.0000    1.5255   
     2. B(C   4,C   1)                1.5255  0.000005  0.0000    1.5255   
     3. B(C   4,C   2)                1.5251  0.000005 -0.0000    1.5251   
     4. B(H   5,C   2)                1.0958 -0.000008  0.0000    1.0959   
     5. B(H   6,C   2)                1.0943  0.000002 -0.0000    1.0943   
     6. B(C   7,C   0)                1.5245 -0.000008  0.0000    1.5245   
     7. B(H   8,C   1)                1.0919  0.000000 -0.0000    1.0919   
     8. B(H   9,C   1)                1.0934 -0.000008  0.0000    1.0934   
     9. B(C  10,C   7)                1.5140  0.000018 -0.0000    1.5139   
    10. B(C  10,H   3)                1.0925 -0.000009  0.0000    1.0925   
    11. B(C  10,C   2)                1.5152  0.000006 -0.0000    1.5152   
    12. B(H  11,C   7)                1.0946  0.000005 -0.0000    1.0946   
    13. B(H  12,C   7)                1.0990 -0.000003 -0.0000    1.0990   
    14. B(H  13,C   4)                1.0916 -0.000003  0.0000    1.0916   
    15. B(H  14,C   4)                1.0942 -0.000010  0.0000    1.0942   
    16. B(H  15,C   0)                1.0919 -0.000000  0.0000    1.0919   
    17. B(H  16,C   0)                1.0946 -0.000007  0.0000    1.0946   
    18. B(Br 17,C  10)                1.9539 -0.000012  0.0000    1.9539   
    19. B(O  19,H  12)                2.1705 -0.000002 -0.0002    2.1703   
    20. B(O  19,H   5)                2.3314  0.000009 -0.0007    2.3307   
    21. B(O  19,C  18)                1.3134  0.000070 -0.0000    1.3133   
    22. B(H  20,C  18)                1.1351  0.000078 -0.0001    1.1350   
    23. B(H  21,C  18)                1.1365  0.000163 -0.0003    1.1362   
    24. B(H  22,C  18)                1.1344  0.000005 -0.0000    1.1344   
    25. A(C   7,C   0,H  15)          109.18 -0.000004    0.00    109.19   
    26. A(H  15,C   0,H  16)          108.05  0.000003   -0.00    108.05   
    27. A(C   1,C   0,H  15)          110.19  0.000002   -0.00    110.19   
    28. A(C   7,C   0,H  16)          109.57 -0.000006    0.00    109.57   
    29. A(C   1,C   0,H  16)          109.70  0.000001    0.00    109.70   
    30. A(C   1,C   0,C   7)          110.11  0.000004   -0.00    110.11   
    31. A(C   0,C   1,H   8)          110.12 -0.000003    0.00    110.12   
    32. A(H   8,C   1,H   9)          108.64 -0.000004    0.00    108.64   
    33. A(C   4,C   1,H   8)          110.16  0.000003   -0.00    110.16   
    34. A(C   4,C   1,H   9)          108.91  0.000003   -0.00    108.91   
    35. A(C   0,C   1,C   4)          110.16 -0.000001    0.00    110.16   
    36. A(C   0,C   1,H   9)          108.80  0.000002   -0.00    108.80   
    37. A(C   4,C   2,H   5)          110.32  0.000008   -0.00    110.32   
    38. A(C   4,C   2,C  10)          111.79 -0.000005   -0.00    111.78   
    39. A(H   5,C   2,H   6)          108.38 -0.000002   -0.00    108.38   
    40. A(H   6,C   2,C  10)          110.57  0.000005   -0.00    110.56   
    41. A(C   4,C   2,H   6)          110.66  0.000001   -0.00    110.66   
    42. A(H   5,C   2,C  10)          104.93 -0.000007    0.01    104.94   
    43. A(H  13,C   4,H  14)          108.08  0.000003   -0.00    108.08   
    44. A(C   1,C   4,H  14)          109.66 -0.000001    0.00    109.66   
    45. A(C   2,C   4,H  13)          109.21  0.000002   -0.00    109.21   
    46. A(C   1,C   4,H  13)          110.17 -0.000003   -0.00    110.17   
    47. A(C   2,C   4,H  14)          109.57 -0.000006    0.00    109.57   
    48. A(C   1,C   4,C   2)          110.12  0.000004   -0.00    110.12   
    49. A(C   2,H   5,O  19)          140.52 -0.000002    0.01    140.53   
    50. A(H  11,C   7,H  12)          108.29 -0.000005    0.00    108.29   
    51. A(C  10,C   7,H  12)          104.55  0.000001    0.00    104.55   
    52. A(C   0,C   7,H  12)          110.49  0.000003   -0.00    110.49   
    53. A(C  10,C   7,H  11)          110.68  0.000003   -0.00    110.68   
    54. A(C   0,C   7,H  11)          110.74 -0.000000    0.00    110.74   
    55. A(C   0,C   7,C  10)          111.87 -0.000001   -0.00    111.87   
    56. A(C   2,C  10,H   3)          110.26 -0.000002    0.00    110.27   
    57. A(H   3,C  10,C   7)          110.18  0.000002    0.00    110.18   
    58. A(C   7,C  10,Br 17)          110.20  0.000002   -0.00    110.20   
    59. A(H   3,C  10,Br 17)          104.46 -0.000011    0.01    104.47   
    60. A(C   2,C  10,Br 17)          110.06  0.000006   -0.00    110.06   
    61. A(C   2,C  10,C   7)          111.45  0.000003   -0.01    111.45   
    62. A(C   7,H  12,O  19)          146.10 -0.000010    0.00    146.10   
    63. A(H  21,C  18,H  22)          104.32 -0.000072    0.01    104.33   
    64. A(H  20,C  18,H  22)          104.42 -0.000043    0.02    104.43   
    65. A(O  19,C  18,H  22)          114.15  0.000052   -0.01    114.14   
    66. A(H  20,C  18,H  21)          104.38  0.000046   -0.02    104.36   
    67. A(O  19,C  18,H  21)          114.20  0.000068   -0.02    114.19   
    68. A(O  19,C  18,H  20)          114.21 -0.000060    0.01    114.22   
    69. A(H   5,O  19,H  12)           66.50  0.000007    0.00     66.50   
    70. A(H  12,O  19,C  18)          124.84 -0.000011    0.00    124.85   
    71. A(H   5,O  19,C  18)          168.65  0.000003   -0.00    168.65   
    72. D(H   9,C   1,C   0,H  15)     59.57 -0.000004   -0.00     59.57   
    73. D(H   8,C   1,C   0,C   7)   -179.90  0.000002   -0.01   -179.91   
    74. D(H   9,C   1,C   0,H  16)    178.41  0.000001   -0.01    178.40   
    75. D(H   8,C   1,C   0,H  15)    -59.40  0.000001   -0.01    -59.41   
    76. D(C   4,C   1,C   0,H  15)    178.89 -0.000000   -0.01    178.88   
    77. D(H   9,C   1,C   0,C   7)    -60.93 -0.000003   -0.00    -60.93   
    78. D(C   4,C   1,C   0,C   7)     58.39  0.000001   -0.01     58.39   
    79. D(H   8,C   1,C   0,H  16)     59.44  0.000006   -0.01     59.43   
    80. D(C   4,C   1,C   0,H  16)    -62.27  0.000006   -0.01    -62.28   
    81. D(C   2,C   4,C   1,H   9)     60.81  0.000004    0.01     60.82   
    82. D(H  13,C   4,C   2,C  10)    177.38 -0.000002    0.00    177.38   
    83. D(C   2,C   4,C   1,H   8)    179.87  0.000003    0.01    179.88   
    84. D(H  13,C   4,C   2,H   5)     61.03  0.000005   -0.00     61.02   
    85. D(H  14,C   4,C   2,H   6)     59.30  0.000004   -0.00     59.30   
    86. D(C   1,C   4,C   2,H   6)    180.00  0.000001   -0.00    180.00   
    87. D(H  13,C   4,C   1,H   8)     59.36 -0.000001    0.01     59.36   
    88. D(H  14,C   4,C   1,H   9)   -178.54 -0.000002    0.01   -178.53   
    89. D(H  14,C   4,C   1,H   8)    -59.48 -0.000003    0.01    -59.47   
    90. D(C   2,C   4,C   1,C   0)    -58.44 -0.000000    0.01    -58.44   
    91. D(C   1,C   4,C   2,C  10)     56.29 -0.000003    0.00     56.29   
    92. D(H  13,C   4,C   1,H   9)    -59.71 -0.000000    0.01    -59.70   
    93. D(H  13,C   4,C   1,C   0)   -178.96 -0.000004    0.01   -178.95   
    94. D(H  14,C   4,C   2,H   5)    179.24  0.000007   -0.01    179.23   
    95. D(H  14,C   4,C   1,C   0)     62.20 -0.000006    0.01     62.21   
    96. D(H  14,C   4,C   2,C  10)    -64.41 -0.000000    0.00    -64.41   
    97. D(H  13,C   4,C   2,H   6)    -58.91  0.000002   -0.00    -58.91   
    98. D(C   1,C   4,C   2,H   5)    -60.07  0.000004   -0.00    -60.07   
    99. D(O  19,H   5,C   2,C  10)     -7.31 -0.000007    0.01     -7.30   
   100. D(O  19,H   5,C   2,H   6)   -125.45 -0.000009    0.00   -125.45   
   101. D(O  19,H   5,C   2,C   4)    113.24 -0.000013    0.01    113.25   
   102. D(C  10,C   7,C   0,C   1)    -56.25  0.000001   -0.01    -56.25   
   103. D(H  12,C   7,C   0,H  15)    -61.31  0.000001   -0.01    -61.31   
   104. D(H  12,C   7,C   0,C   1)     59.79  0.000003   -0.01     59.79   
   105. D(H  11,C   7,C   0,H  16)    -59.49 -0.000002   -0.00    -59.49   
   106. D(H  11,C   7,C   0,H  15)     58.67 -0.000004   -0.00     58.67   
   107. D(H  11,C   7,C   0,C   1)    179.77 -0.000001   -0.00    179.77   
   108. D(C  10,C   7,C   0,H  16)     64.49  0.000001   -0.01     64.49   
   109. D(H  12,C   7,C   0,H  16)   -179.47  0.000003   -0.01   -179.47   
   110. D(C  10,C   7,C   0,H  15)   -177.35 -0.000001   -0.00   -177.35   
   111. D(Br 17,C  10,C   7,H  12)    171.84 -0.000016    0.03    171.87   
   112. D(Br 17,C  10,C   7,H  11)     55.45 -0.000013    0.03     55.48   
   113. D(H   3,C  10,C   7,H  12)     57.08 -0.000006    0.03     57.11   
   114. D(H   3,C  10,C   7,H  11)    -59.31 -0.000002    0.02    -59.29   
   115. D(H   3,C  10,C   7,C   0)    176.68 -0.000003    0.02    176.70   
   116. D(C   2,C  10,C   7,H  12)    -65.66 -0.000006    0.02    -65.64   
   117. D(C   2,C  10,C   7,H  11)    177.95 -0.000002    0.02    177.97   
   118. D(C   2,C  10,C   7,C   0)     53.93 -0.000003    0.02     53.95   
   119. D(Br 17,C  10,C   2,H   6)    -55.12  0.000013   -0.03    -55.14   
   120. D(Br 17,C  10,C   2,H   5)   -171.77  0.000017   -0.03   -171.80   
   121. D(Br 17,C  10,C   2,C   4)     68.65  0.000014   -0.03     68.62   
   122. D(C   7,C  10,C   2,H   6)   -177.70  0.000005   -0.02   -177.72   
   123. D(C   7,C  10,C   2,H   5)     65.64  0.000008   -0.02     65.63   
   124. D(C   7,C  10,C   2,C   4)    -53.94  0.000006   -0.02    -53.95   
   125. D(Br 17,C  10,C   7,C   0)    -68.57 -0.000013    0.03    -68.54   
   126. D(H   3,C  10,C   2,H   6)     59.60  0.000002   -0.02     59.58   
   127. D(H   3,C  10,C   2,H   5)    -57.05  0.000006   -0.02    -57.07   
   128. D(H   3,C  10,C   2,C   4)   -176.63  0.000004   -0.02   -176.65   
   129. D(O  19,H  12,C   7,H  11)    120.22 -0.000004    0.00    120.22   
   130. D(O  19,H  12,C   7,C  10)      2.18 -0.000005    0.00      2.18   
   131. D(O  19,H  12,C   7,C   0)   -118.34 -0.000006    0.01   -118.33   
   132. D(C  18,O  19,H  12,C   7)   -146.50  0.000004   -0.00   -146.50   
   133. D(H  12,O  19,H   5,C   2)    -29.62  0.000001   -0.00    -29.62   
   134. D(C  18,O  19,H   5,C   2)    151.81 -0.000000    0.00    151.81   
   135. D(H  12,O  19,C  18,H  22)    155.49  0.000005    0.01    155.50   
   136. D(H  12,O  19,C  18,H  21)     35.58  0.000009    0.01     35.58   
   137. D(H  12,O  19,C  18,H  20)    -84.46 -0.000059    0.04    -84.43   
   138. D(H   5,O  19,C  18,H  22)    -26.10  0.000007    0.01    -26.10   
   139. D(H   5,O  19,C  18,H  21)   -146.01  0.000011    0.00   -146.01   
   140. D(H   5,O  19,C  18,H  20)     93.95 -0.000058    0.03     93.98   
   141. D(H   5,O  19,H  12,C   7)     33.84  0.000003   -0.00     33.84   
    ----------------------------------------------------------------------------
                 *******************************************************
                 *** FINAL ENERGY EVALUATION AT THE STATIONARY POINT ***
                 ***               (AFTER    1 CYCLES)               ***
                 *******************************************************
      -----------------------------------------------------------      
     |                   =====================                   |     
     |                           x T B                           |     
     |                   =====================                   |     
     |                         S. Grimme                         |     
     |          Mulliken Center for Theoretical Chemistry        |     
     |                    University of Bonn                     |     
      -----------------------------------------------------------      

   * xtb version 6.3.2 (30e43eb) compiled by 'schneider@apollo14' on 2020-08-08

   xtb is free software: you can redistribute it and/or modify it under
   the terms of the GNU Lesser General Public License as published by
   the Free Software Foundation, either version 3 of the License, or
   (at your option) any later version.
   
   xtb is distributed in the hope that it will be useful,
   but WITHOUT ANY WARRANTY; without even the implied warranty of
   MERCHANTABILITY or FITNESS FOR A PARTICULAR PURPOSE.  See the
   GNU Lesser General Public License for more details.
   
   Cite this work as:
   * S. Grimme, C. Bannwarth, P. Shushkov, J. Chem. Theory Comput., 2017,
     13, 1989-2009. DOI: 10.1021/acs.jctc.7b00118
   * C. Bannwarth, S. Ehlert and S. Grimme., J. Chem. Theory Comput., 2019,
     15, 1652-1671. DOI: 10.1021/acs.jctc.8b01176
   * P. Pracht, E. Caldeweyher, S. Ehlert, S. Grimme, ChemRxiv, 2019, preprint.
     DOI: 10.26434/chemrxiv.8326202.v1
   
   for GFN-FF:
   * S. Spicher and S. Grimme, Angew. Chem. Int. Ed., 2020,
     DOI: 10.1002/anie.202004239
   
   for DFT-D4:
   * E. Caldeweyher, C. Bannwarth and S. Grimme, J. Chem. Phys., 2017,
     147, 034112. DOI: 10.1063/1.4993215
   * E. Caldeweyher, S. Ehlert, A. Hansen, H. Neugebauer, S. Spicher,
     C. Bannwarth and S. Grimme, J. Chem. Phys., 2019, 150, 154122.
     DOI: 10.1063/1.5090222
   
   for sTDA-xTB:
   * S. Grimme and C. Bannwarth, J. Chem. Phys., 2016, 145, 054103.
     DOI: 10.1063/1.4959605
   
   in the mass-spec context:
   * V. Asgeirsson, C. Bauer and S. Grimme, Chem. Sci., 2017, 8, 4879.
     DOI: 10.1039/c7sc00601b
   * J. Koopman and S. Grimme, ACS Omega 2019, 4, 12, 15120-15133.
     DOI: 10.1021/acsomega.9b02011
   
   for metadynamics refer to:
   * S. Grimme, J. Chem. Theory Comput., 2019, 155, 2847-2862
     DOI: 10.1021/acs.jctc.9b00143
   
   with help from (in alphabetical order)
   C. Bannwarth, F. Bohle, G. Brandenburg, E. Caldeweyher, M. Checinski,
   S. Dohm, S. Ehlert, S. Ehrlich, F. März, H. Neugebauer, J. Pisarek,
   P. Pracht, P. Shushkov, and S. Spicher.
   
 * started run on 2021/11/10 at 00:28:57.630     

           -------------------------------------------------
          |                Calculation Setup                |
           -------------------------------------------------

          program call               : /opt/orca/otool_xtb opt+numfreq_XTB.xyz --grad -c -1 -u 0 -P 4 --namespace opt+numfreq --gbsa methanol
          calculation namespace      : opt+numfreq
          coordinate file            : opt+numfreq_XTB.xyz
          omp threads                :                     4
          number of atoms            :                    23
          number of electrons        :                    56
          charge                     :                    -1
          spin                       :                   0.0
          first test random number   :      0.56499334248418

   ID    Z sym.   atoms
    1    6 C      1-3, 5, 8, 11, 19
    2    1 H      4, 6, 7, 9, 10, 12-17, 21-23
    3   35 Br     18
    4    8 O      20

molecular fragmentation (1/2 indicates fragments):
11111111111111111122222
# atoms in fragment 1/2:    18     5
 fragment masses (1/2) :      163.06       31.03
CMA distance (Bohr)    :   9.056
constraining FC (au)   :  0.0500
########################################################################
[WARNING] Please study the warnings concerning your input carefully
-1- prog_main_parseArguments: Process number higher than OMP_NUM_THREADS, I hope you know what you are doing.
########################################################################

           -------------------------------------------------
          |                 G F N 2 - x T B                 |
           -------------------------------------------------

        Reference                      10.1021/acs.jctc.8b01176
      * Hamiltonian:
        H0-scaling (s, p, d)           1.850000    2.230000    2.230000
        zeta-weighting                 0.500000
      * Dispersion:
        s8                             2.700000
        a1                             0.520000
        a2                             5.000000
        s9                             5.000000
      * Repulsion:
        kExp                           1.500000    1.000000
        rExp                           1.000000
      * Coulomb:
        alpha                          2.000000
        third order                    shell-resolved
        anisotropic                    true
        a3                             3.000000
        a5                             4.000000
        cn-shift                       1.200000
        cn-exp                         4.000000
        max-rad                        5.000000

      * Solvation model:               GBSA
        Solvent                        methanol
        Parameter file                 internal GFN2-xTB/GBSA
        Dielectric constant                3.2700E+01
        Reference state                gsolv [1 M gas/solution]
        Free energy shift                  3.3569E-03 Eh       2.1065E+00 kcal/mol
        Temperature                        2.9815E+02 K
        Density                            7.9200E-01 kg/L
        Solvent mass                       3.2040E+01 g/mol
        Interaction kernel             Still
        Born radius scaling (c1)           1.6087E+00
        Born radii integrator          GBOBC
        Born offset                        5.6550E-04 a0       1.0686E-03 AA
        H-bond correction              true
        Ion screening                  false
        Surface tension                    1.0000E-05 Eh       1.5569E+01 dyn/cm
        Grid points                               230 per atom
q/qsh data taken from xtbrestart
CAMM data taken from xtbrestart

          ...................................................
          :                      SETUP                      :
          :.................................................:
          :  # basis functions                  56          :
          :  # atomic orbitals                  55          :
          :  # shells                           33          :
          :  # electrons                        56          :
          :  max. iterations                   250          :
          :  Hamiltonian                  GFN2-xTB          :
          :  restarted?                       true          :
          :  GBSA solvation                   true          :
          :  PC potential                    false          :
          :  electronic temp.          300.0000000     K    :
          :  accuracy                    1.0000000          :
          :  -> integral cutoff          0.2500000E+02      :
          :  -> integral neglect         0.1000000E-07      :
          :  -> SCF convergence          0.1000000E-05 Eh   :
          :  -> wf. convergence          0.1000000E-03 e    :
          :  Broyden damping             0.4000000          :
          ...................................................

 iter      E             dE          RMSdq      gap      omega  full diag
   1    -30.8991359 -0.308991E+02  0.238E-03    2.85       0.0  T
   2    -30.8991359 -0.991527E-09  0.125E-03    2.85      16.6  T
   3    -30.8991359 -0.332204E-09  0.222E-04    2.85      93.8  T
   4    -30.8991359 -0.508784E-10  0.129E-04    2.85     161.7  T

   *** convergence criteria satisfied after 4 iterations ***

         #    Occupation            Energy/Eh            Energy/eV
      -------------------------------------------------------------
         1        2.0000           -0.8321221             -22.6432
       ...           ...                  ...                  ...
        22        2.0000           -0.4232634             -11.5176
        23        2.0000           -0.4220753             -11.4853
        24        2.0000           -0.4187899             -11.3959
        25        2.0000           -0.4005102             -10.8984
        26        2.0000           -0.3985868             -10.8461
        27        2.0000           -0.3127030              -8.5091
        28        2.0000           -0.3123190              -8.4986 (HOMO)
        29                         -0.2074133              -5.6440 (LUMO)
        30                          0.0380019               1.0341
        31                          0.0402702               1.0958
        32                          0.0473523               1.2885
        33                          0.0585158               1.5923
       ...                                ...                  ...
        55                          0.4115668              11.1993
      -------------------------------------------------------------
                  HL-Gap            0.1049057 Eh            2.8546 eV
             Fermi-level           -0.2598661 Eh           -7.0713 eV

 SCC (total)                   0 d,  0 h,  0 min,  0.019 sec
 SCC setup                      ...        0 min,  0.001 sec (  7.432%)
 Dispersion                     ...        0 min,  0.000 sec (  0.983%)
 classical contributions        ...        0 min,  0.000 sec (  0.227%)
 integral evaluation            ...        0 min,  0.004 sec ( 21.708%)
 iterations                     ...        0 min,  0.006 sec ( 34.342%)
 molecular gradient             ...        0 min,  0.006 sec ( 34.318%)
 printout                       ...        0 min,  0.000 sec (  0.915%)

         :::::::::::::::::::::::::::::::::::::::::::::::::::::
         ::                     SUMMARY                     ::
         :::::::::::::::::::::::::::::::::::::::::::::::::::::
         :: total energy             -30.577954483072 Eh    ::
         :: total w/o Gsasa/hb       -30.566897548973 Eh    ::
         :: gradient norm              0.000166068738 Eh/a0 ::
         :: HOMO-LUMO gap              2.854628172205 eV    ::
         ::.................................................::
         :: SCC energy               -30.899135939763 Eh    ::
         :: -> isotropic ES            0.214566487490 Eh    ::
         :: -> anisotropic ES         -0.014967229662 Eh    ::
         :: -> anisotropic XC         -0.012090938685 Eh    ::
         :: -> dispersion             -0.018995728816 Eh    ::
         :: -> Gsolv                  -0.113496627222 Eh    ::
         ::    -> Gborn               -0.102439693122 Eh    ::
         ::    -> Gsasa               -0.012217556401 Eh    ::
         ::    -> Ghb                 -0.002196307222 Eh    ::
         ::    -> Gshift               0.003356929523 Eh    ::
         :: repulsion energy           0.321045712550 Eh    ::
         :: add. restraining           0.000000000000 Eh    ::
         :: total charge              -1.000000000000 e     ::
         :::::::::::::::::::::::::::::::::::::::::::::::::::::

           -------------------------------------------------
          |                Property Printout                |
           -------------------------------------------------

    * Orbital Energies and Occupations

         #    Occupation            Energy/Eh            Energy/eV
      -------------------------------------------------------------
         1        2.0000           -0.8321221             -22.6432
       ...           ...                  ...                  ...
        16        2.0000           -0.4802644             -13.0687
        17        2.0000           -0.4769003             -12.9771
        18        2.0000           -0.4700846             -12.7917
        19        2.0000           -0.4489984             -12.2179
        20        2.0000           -0.4390454             -11.9470
        21        2.0000           -0.4377276             -11.9112
        22        2.0000           -0.4232634             -11.5176
        23        2.0000           -0.4220753             -11.4853
        24        2.0000           -0.4187899             -11.3959
        25        2.0000           -0.4005102             -10.8984
        26        2.0000           -0.3985868             -10.8461
        27        2.0000           -0.3127030              -8.5091
        28        2.0000           -0.3123190              -8.4986 (HOMO)
        29                         -0.2074133              -5.6440 (LUMO)
        30                          0.0380019               1.0341
        31                          0.0402702               1.0958
        32                          0.0473523               1.2885
        33                          0.0585158               1.5923
        34                          0.0864932               2.3536
        35                          0.0956380               2.6024
        36                          0.1026059               2.7920
        37                          0.1126153               3.0644
        38                          0.1139054               3.0995
        39                          0.1166277               3.1736
       ...                                ...                  ...
        55                          0.4115668              11.1993
      -------------------------------------------------------------
                  HL-Gap            0.1049057 Eh            2.8546 eV
             Fermi-level           -0.2598661 Eh           -7.0713 eV

     #   Z          covCN         q      C6AA      α(0)
     1   6 C        3.806    -0.052    21.500     6.601
     2   6 C        3.806    -0.054    21.543     6.607
     3   6 C        3.880    -0.046    21.352     6.570
     4   1 H        0.926     0.013     2.842     2.636
     5   6 C        3.806    -0.053    21.528     6.605
     6   1 H        0.924     0.045     2.380     2.413
     7   1 H        0.924     0.028     2.616     2.529
     8   6 C        3.879    -0.046    21.345     6.569
     9   1 H        0.924     0.041     2.441     2.443
    10   1 H        0.924     0.022     2.705     2.572
    11   6 C        3.796     0.078    19.286     6.253
    12   1 H        0.924     0.020     2.729     2.584
    13   1 H        0.923     0.047     2.357     2.401
    14   1 H        0.924     0.032     2.553     2.499
    15   1 H        0.924     0.052     2.299     2.371
    16   1 H        0.924     0.028     2.612     2.528
    17   1 H        0.924     0.050     2.325     2.385
    18  35 Br       1.063    -0.219   191.150    22.292
    19   6 C        3.603     0.203    17.884     6.114
    20   8 O        0.855    -0.829    32.484     7.641
    21   1 H        0.916    -0.119     6.267     3.916
    22   1 H        0.916    -0.121     6.381     3.951
    23   1 H        0.916    -0.119     6.283     3.921

 Mol. C6AA /au·bohr⁶  :       5800.846176
 Mol. C8AA /au·bohr⁸  :     154131.102471
 Mol. α(0) /au        :        114.400566


Wiberg/Mayer (AO) data.
largest (>0.10) Wiberg bond orders for each atom

 ---------------------------------------------------------------------------
     #   Z sym  total        # sym  WBO       # sym  WBO       # sym  WBO
 ---------------------------------------------------------------------------
     1   6 C    3.997 --     2 C    1.009     8 C    1.009    16 H    0.977
                            17 H    0.973
     2   6 C    3.998 --     5 C    1.009     1 C    1.009    10 H    0.978
                             9 H    0.977
     3   6 C    3.994 --    11 C    1.013     5 C    1.009     7 H    0.977
                             6 H    0.959
     4   1 H    1.000 --    11 C    0.976
     5   6 C    3.997 --     2 C    1.009     3 C    1.009    14 H    0.977
                            15 H    0.973
     6   1 H    0.998 --     3 C    0.959
     7   1 H    0.999 --     3 C    0.977
     8   6 C    3.994 --    11 C    1.014     1 C    1.009    12 H    0.977
                            13 H    0.950
     9   1 H    0.998 --     2 C    0.977
    10   1 H    1.000 --     2 C    0.978
    11   6 C    3.943 --     8 C    1.014     3 C    1.013     4 H    0.976
                            18 Br   0.901
    12   1 H    1.000 --     8 C    0.977
    13   1 H    0.998 --     8 C    0.950
    14   1 H    0.999 --     5 C    0.977
    15   1 H    0.997 --     5 C    0.973
    16   1 H    0.999 --     1 C    0.977
    17   1 H    0.997 --     1 C    0.973
    18  35 Br   0.976 --    11 C    0.901
    19   6 C    3.977 --    20 O    1.170    23 H    0.935    21 H    0.935
                            22 H    0.934
    20   8 O    1.350 --    19 C    1.170
    21   1 H    0.986 --    19 C    0.935
    22   1 H    0.985 --    19 C    0.934
    23   1 H    0.986 --    19 C    0.935
 ---------------------------------------------------------------------------

Topologies differ in total number of bonds
Writing topology from bond orders to xtbtopo.mol

molecular dipole:
                 x           y           z       tot (Debye)
 q only:       -4.123       2.024       7.731
   full:       -2.989       1.579       6.281      18.130
molecular quadrupole (traceless):
                xx          xy          yy          xz          yz          zz
 q only:        7.693      15.830      40.958      60.742     -25.429     -48.651
  q+dip:        0.581      13.735      39.304      57.079     -21.062     -39.884
   full:        0.887      13.531      39.015      56.491     -20.757     -39.902


           -------------------------------------------------
          | TOTAL ENERGY              -30.577954483072 Eh   |
          | GRADIENT NORM               0.000166068738 Eh/α |
          | HOMO-LUMO GAP               2.854628172205 eV   |
           -------------------------------------------------

------------------------------------------------------------------------
 * finished run on 2021/11/10 at 00:28:57.662     
------------------------------------------------------------------------
 total:
 * wall-time:     0 d,  0 h,  0 min,  0.032 sec
 *  cpu-time:     0 d,  0 h,  0 min,  0.236 sec
 * ratio c/w:     7.434 speedup
 SCF:
 * wall-time:     0 d,  0 h,  0 min,  0.019 sec
 *  cpu-time:     0 d,  0 h,  0 min,  0.138 sec
 * ratio c/w:     7.372 speedup


-------------------------   --------------------
FINAL SINGLE POINT ENERGY       -30.577954483070
-------------------------   --------------------

                                *** OPTIMIZATION RUN DONE ***

----------------------------------------------------------------------------
                           ORCA NUMERICAL FREQUENCIES
                              (4-process run)
----------------------------------------------------------------------------

Number of atoms                ... 23
Central differences            ... used
Number of displacements        ... 138
Numerical increment            ... 5.000e-03 bohr
IR-spectrum generation         ... on
Raman-spectrum generation      ... off
Surface Crossing Hessian       ... off
List of participating nodes    ...  opt+numfreq.hostnames

The output will be reduced. Please look at the following files:
SCF program output             ... >opt+numfreq.lastscf
Integral program output        ... >opt+numfreq.lastint
Gradient program output        ... >opt+numfreq.lastgrad
Dipole moment program output   ... >opt+numfreq.lastmom
AutoCI program output          ... >opt+numfreq.lastautoci


         <<< Energy and Gradient at the input geometry >>>

        <<< Energy and Gradient at displaced geometries >>>
             <<<Displacing   1/coordinate 1 (+)>>>
             <<<Displacing   1/coordinate 3 (+)>>>
             <<<Displacing   1/coordinate 2 (+)>>>
             <<<Displacing   2/coordinate 1 (+)>>>
             <<<Displacing   1/coordinate 1 (-)>>>
             <<<Displacing   1/coordinate 3 (-)>>>
             <<<Displacing   2/coordinate 1 (-)>>>
             <<<Displacing   1/coordinate 2 (-)>>>
             <<<Displacing   2/coordinate 2 (+)>>>
             <<<Displacing   2/coordinate 3 (+)>>>
             <<<Displacing   2/coordinate 2 (-)>>>
             <<<Displacing   2/coordinate 3 (-)>>>
             <<<Displacing   3/coordinate 2 (+)>>>
             <<<Displacing   3/coordinate 1 (+)>>>
             <<<Displacing   3/coordinate 2 (-)>>>
             <<<Displacing   3/coordinate 1 (-)>>>
             <<<Displacing   4/coordinate 1 (+)>>>
             <<<Displacing   3/coordinate 3 (+)>>>
             <<<Displacing   4/coordinate 1 (-)>>>
             <<<Displacing   3/coordinate 3 (-)>>>
             <<<Displacing   4/coordinate 3 (+)>>>
             <<<Displacing   4/coordinate 2 (+)>>>
             <<<Displacing   4/coordinate 3 (-)>>>
             <<<Displacing   4/coordinate 2 (-)>>>
             <<<Displacing   5/coordinate 2 (+)>>>
             <<<Displacing   5/coordinate 3 (+)>>>
             <<<Displacing   5/coordinate 1 (+)>>>
             <<<Displacing   5/coordinate 2 (-)>>>
             <<<Displacing   5/coordinate 3 (-)>>>
             <<<Displacing   5/coordinate 1 (-)>>>
             <<<Displacing   6/coordinate 1 (+)>>>
             <<<Displacing   6/coordinate 1 (-)>>>
             <<<Displacing   6/coordinate 3 (+)>>>
             <<<Displacing   6/coordinate 2 (+)>>>
             <<<Displacing   7/coordinate 1 (+)>>>
             <<<Displacing   6/coordinate 3 (-)>>>
             <<<Displacing   6/coordinate 2 (-)>>>
             <<<Displacing   7/coordinate 2 (+)>>>
             <<<Displacing   7/coordinate 1 (-)>>>
             <<<Displacing   7/coordinate 2 (-)>>>
             <<<Displacing   8/coordinate 1 (+)>>>
             <<<Displacing   8/coordinate 2 (+)>>>
             <<<Displacing   8/coordinate 1 (-)>>>
             <<<Displacing   7/coordinate 3 (+)>>>
             <<<Displacing   8/coordinate 2 (-)>>>
             <<<Displacing   8/coordinate 3 (+)>>>
             <<<Displacing   7/coordinate 3 (-)>>>
             <<<Displacing   8/coordinate 3 (-)>>>
             <<<Displacing   9/coordinate 2 (+)>>>
             <<<Displacing   9/coordinate 1 (+)>>>
             <<<Displacing   9/coordinate 2 (-)>>>
             <<<Displacing   9/coordinate 1 (-)>>>
             <<<Displacing   9/coordinate 3 (+)>>>
             <<<Displacing   9/coordinate 3 (-)>>>
             <<<Displacing  10/coordinate 1 (+)>>>
             <<<Displacing  10/coordinate 1 (-)>>>
             <<<Displacing  10/coordinate 2 (+)>>>
             <<<Displacing  10/coordinate 2 (-)>>>
             <<<Displacing  10/coordinate 3 (+)>>>
             <<<Displacing  11/coordinate 1 (+)>>>
             <<<Displacing  11/coordinate 2 (+)>>>
             <<<Displacing  10/coordinate 3 (-)>>>
             <<<Displacing  11/coordinate 2 (-)>>>
             <<<Displacing  11/coordinate 1 (-)>>>
             <<<Displacing  11/coordinate 3 (+)>>>
             <<<Displacing  12/coordinate 1 (+)>>>
             <<<Displacing  11/coordinate 3 (-)>>>
             <<<Displacing  12/coordinate 2 (+)>>>
             <<<Displacing  12/coordinate 1 (-)>>>
             <<<Displacing  12/coordinate 2 (-)>>>
             <<<Displacing  12/coordinate 3 (+)>>>
             <<<Displacing  12/coordinate 3 (-)>>>
             <<<Displacing  13/coordinate 1 (+)>>>
             <<<Displacing  13/coordinate 2 (+)>>>
             <<<Displacing  13/coordinate 1 (-)>>>
             <<<Displacing  14/coordinate 1 (+)>>>
             <<<Displacing  13/coordinate 2 (-)>>>
             <<<Displacing  13/coordinate 3 (+)>>>
             <<<Displacing  14/coordinate 1 (-)>>>
             <<<Displacing  13/coordinate 3 (-)>>>
             <<<Displacing  14/coordinate 3 (+)>>>
             <<<Displacing  14/coordinate 2 (+)>>>
             <<<Displacing  15/coordinate 1 (+)>>>
             <<<Displacing  14/coordinate 3 (-)>>>
             <<<Displacing  14/coordinate 2 (-)>>>
             <<<Displacing  15/coordinate 1 (-)>>>
             <<<Displacing  15/coordinate 2 (+)>>>
             <<<Displacing  15/coordinate 2 (-)>>>
             <<<Displacing  16/coordinate 1 (+)>>>
             <<<Displacing  16/coordinate 2 (+)>>>
             <<<Displacing  15/coordinate 3 (+)>>>
             <<<Displacing  16/coordinate 3 (+)>>>
             <<<Displacing  16/coordinate 1 (-)>>>
             <<<Displacing  16/coordinate 2 (-)>>>
             <<<Displacing  15/coordinate 3 (-)>>>
             <<<Displacing  16/coordinate 3 (-)>>>
             <<<Displacing  17/coordinate 1 (+)>>>
             <<<Displacing  17/coordinate 2 (+)>>>
             <<<Displacing  18/coordinate 1 (+)>>>
             <<<Displacing  17/coordinate 3 (+)>>>
             <<<Displacing  17/coordinate 1 (-)>>>
             <<<Displacing  17/coordinate 2 (-)>>>
             <<<Displacing  18/coordinate 1 (-)>>>
             <<<Displacing  17/coordinate 3 (-)>>>
             <<<Displacing  18/coordinate 2 (+)>>>
             <<<Displacing  19/coordinate 1 (+)>>>
             <<<Displacing  18/coordinate 3 (+)>>>
             <<<Displacing  18/coordinate 2 (-)>>>
             <<<Displacing  19/coordinate 1 (-)>>>
             <<<Displacing  19/coordinate 2 (+)>>>
             <<<Displacing  18/coordinate 3 (-)>>>
             <<<Displacing  19/coordinate 2 (-)>>>
             <<<Displacing  19/coordinate 3 (+)>>>
             <<<Displacing  20/coordinate 1 (+)>>>
             <<<Displacing  20/coordinate 3 (+)>>>
             <<<Displacing  20/coordinate 1 (-)>>>
             <<<Displacing  19/coordinate 3 (-)>>>
             <<<Displacing  20/coordinate 2 (+)>>>
             <<<Displacing  20/coordinate 3 (-)>>>
             <<<Displacing  20/coordinate 2 (-)>>>
             <<<Displacing  21/coordinate 1 (+)>>>
             <<<Displacing  21/coordinate 2 (+)>>>
             <<<Displacing  21/coordinate 1 (-)>>>
             <<<Displacing  21/coordinate 3 (+)>>>
             <<<Displacing  21/coordinate 2 (-)>>>
             <<<Displacing  22/coordinate 1 (+)>>>
             <<<Displacing  21/coordinate 3 (-)>>>
             <<<Displacing  22/coordinate 1 (-)>>>
             <<<Displacing  22/coordinate 2 (+)>>>
             <<<Displacing  22/coordinate 3 (+)>>>
             <<<Displacing  22/coordinate 2 (-)>>>
             <<<Displacing  23/coordinate 1 (+)>>>
             <<<Displacing  23/coordinate 2 (+)>>>
             <<<Displacing  23/coordinate 2 (-)>>>
             <<<Displacing  22/coordinate 3 (-)>>>
             <<<Displacing  23/coordinate 1 (-)>>>
             <<<Displacing  23/coordinate 3 (+)>>>
             <<<Displacing  23/coordinate 3 (-)>>>

-----------------------
VIBRATIONAL FREQUENCIES
-----------------------

Scaling factor for frequencies =  1.000000000 (already applied!)

   0:         0.00 cm**-1
   1:         0.00 cm**-1
   2:         0.00 cm**-1
   3:         0.00 cm**-1
   4:         0.00 cm**-1
   5:         0.00 cm**-1
   6:        -8.91 cm**-1 ***imaginary mode***
   7:        18.07 cm**-1
   8:        30.23 cm**-1
   9:        46.22 cm**-1
  10:        70.29 cm**-1
  11:        98.91 cm**-1
  12:       123.98 cm**-1
  13:       181.07 cm**-1
  14:       248.53 cm**-1
  15:       327.37 cm**-1
  16:       373.60 cm**-1
  17:       438.90 cm**-1
  18:       455.48 cm**-1
  19:       533.76 cm**-1
  20:       670.72 cm**-1
  21:       832.42 cm**-1
  22:       867.20 cm**-1
  23:       891.59 cm**-1
  24:       933.39 cm**-1
[...]
     19      -0.604387  -0.006872  -0.083654   0.442720  -0.198572   0.122274
     20       0.160413   0.002191   0.014939  -0.117170   0.036890  -0.011250
     21       0.008299   0.017047   0.016302   0.010124  -0.003027  -0.003288
     22       0.018301   0.013297   0.026147   0.018328  -0.003182   0.001414
     23       0.005486  -0.008407   0.002797   0.002994   0.000429   0.004108
     24      -0.005920  -0.067199   0.048688  -0.059849  -0.219264  -0.167104
     25       0.000579  -0.014117   0.012020  -0.014794  -0.052531  -0.041187
     26      -0.006584  -0.104057   0.073963  -0.094705  -0.358765  -0.281830
     27       0.037476   0.178228  -0.135541   0.142994   0.413624   0.253793
     28      -0.008160  -0.030288   0.025165  -0.026390  -0.073439  -0.044746
     29      -0.038574  -0.188389   0.142219  -0.152024  -0.436052  -0.263199
     30       0.008244  -0.000350   0.019387   0.019233  -0.003793   0.003406
     31       0.005062   0.000176   0.006967   0.004867  -0.000606   0.000891
     32       0.019981  -0.002311   0.036441   0.035318  -0.010013   0.011904
     33      -0.165413  -0.135036  -0.239224  -0.164160   0.033127  -0.004355
     34      -0.227227  -0.192756  -0.334425  -0.231169   0.046103  -0.004848
     35       0.013812   0.007709   0.018992   0.014113  -0.001807   0.001937
     36       0.071636  -0.064230   0.042162   0.039871   0.001267   0.046883
     37      -0.003822   0.016299   0.005414   0.002719  -0.002459  -0.008610
     38      -0.072351   0.072561  -0.036447  -0.037492  -0.004453  -0.052431
     39      -0.015040   0.007698   0.090782  -0.104834   0.080238  -0.003815
     40      -0.039452   0.011229   0.149142  -0.162924   0.114777   0.008111
     41      -0.009333   0.000112   0.005099   0.002565  -0.008572   0.009214
     42      -0.291045   0.018666   0.411677  -0.308558   0.062898   0.232997
     43       0.059670  -0.001877  -0.090337   0.069414  -0.017384  -0.045783
     44       0.318436  -0.022029  -0.454718   0.341278  -0.073220  -0.254240
     45      -0.014727  -0.132157  -0.035478  -0.012726   0.048504   0.067423
     46       0.019399   0.216096   0.049021   0.015795  -0.076424  -0.098958
     47      -0.001310  -0.073062  -0.007846   0.001153   0.022090   0.024828
     48       0.048244  -0.584277   0.041460   0.075422   0.136783   0.077689
     49      -0.009649   0.087753  -0.006934  -0.014609  -0.021334  -0.009340
     50      -0.052855   0.650811  -0.043265  -0.082934  -0.153218  -0.089904
     51      -0.000031  -0.000020  -0.000084  -0.000126   0.000028  -0.000034
     52       0.000014  -0.000000   0.000023   0.000034   0.000000  -0.000006
     53       0.000075   0.000039   0.000123   0.000177  -0.000047   0.000020
     54      -0.000044   0.000048   0.000034   0.000053   0.000130  -0.000074
     55       0.000170  -0.000072  -0.000038   0.000056  -0.000152   0.000200
     56       0.000173  -0.000027  -0.000080   0.000058  -0.000283   0.000302
     57      -0.000079   0.000005  -0.000022  -0.000051   0.000082  -0.000116
     58      -0.000014   0.000051  -0.000024  -0.000063  -0.000081   0.000124
     59       0.000071  -0.000085  -0.000042  -0.000087   0.000033   0.000187
     60       0.001217  -0.000506  -0.000479   0.000403  -0.002647   0.001865
     61      -0.000330   0.000079   0.000182  -0.000108   0.000902  -0.000598
     62      -0.000000   0.000002   0.000126   0.000117   0.000021  -0.000101
     63      -0.000758   0.000195   0.000560  -0.000312   0.000996  -0.001240
     64      -0.001739   0.000280   0.001261  -0.000558   0.002865  -0.003268
     65      -0.000421  -0.000040   0.000474   0.000113   0.000781  -0.001006
     66       0.000040  -0.000121   0.000055   0.000037   0.000021  -0.000006
     67       0.000569   0.000100  -0.000137   0.000433  -0.001058   0.000798
     68      -0.001711   0.000269   0.000260  -0.001080   0.002165  -0.002170
                  66         67         68    
      0       0.011742  -0.021131   0.012132
      1      -0.031846   0.040439  -0.021524
      2       0.017988  -0.019546   0.009567
      3      -0.044201  -0.017845   0.033104
      4      -0.001690   0.000848   0.002638
      5      -0.012213  -0.010053   0.016509
      6      -0.002309   0.001417  -0.000209
      7       0.002581   0.005200   0.006186
      8       0.001736  -0.005981  -0.005327
      9       0.011282   0.002565   0.015390
     10       0.003105   0.002666   0.005203
     11       0.023387   0.005358   0.030989
     12       0.003335   0.018353   0.024081
     13       0.018057   0.037651   0.044530
     14       0.005755   0.004969   0.005000
     15       0.019929  -0.060369  -0.045916
     16      -0.003580   0.014115   0.011829
     17      -0.022739   0.065081   0.048811
     18       0.013202   0.049795   0.057478
     19      -0.020621  -0.067997  -0.078565
     20       0.005544   0.015420   0.019886
     21      -0.002386   0.003066  -0.001797
     22      -0.004815   0.006352  -0.003497
     23       0.001222  -0.000516   0.000095
     24       0.259737   0.125212  -0.222428
     25       0.076525   0.037804  -0.063823
     26       0.519228   0.243903  -0.433232
     27       0.297510   0.098022  -0.184554
     28      -0.060778  -0.019534   0.038533
     29      -0.361900  -0.123231   0.228577
     30      -0.001205   0.000029  -0.001474
     31      -0.000207  -0.000213  -0.000323
     32      -0.001538  -0.000571  -0.002213
     33       0.036383  -0.051613   0.028920
     34       0.051629  -0.071217   0.039918
     35      -0.002856   0.002697  -0.001031
     36       0.001111   0.004354  -0.001643
     37      -0.001727   0.001253  -0.001109
     38      -0.002334  -0.003974   0.001112
     39      -0.158985  -0.347881  -0.411484
     40      -0.211160  -0.466009  -0.556886
     41       0.023347   0.046693   0.055740
     42       0.099446   0.119062   0.121485
     43      -0.008347  -0.002004   0.000465
     44      -0.102966  -0.116813  -0.116145
     45      -0.309396   0.391049  -0.205172
     46       0.430138  -0.546354   0.290480
     47      -0.087792   0.113622  -0.060288
     48       0.147246  -0.138295   0.061067
     49      -0.041254   0.041365  -0.019573
     50      -0.144392   0.129804  -0.055042
     51       0.000004  -0.000004   0.000033
     52      -0.000004  -0.000000  -0.000005
     53      -0.000022   0.000001  -0.000028
     54       0.000034   0.000020   0.000025
     55      -0.000005   0.000009  -0.000088
     56      -0.000001   0.000005  -0.000150
     57      -0.000022   0.000018  -0.000033
     58       0.000010  -0.000012   0.000010
     59       0.000058  -0.000034   0.000093
     60      -0.000443  -0.000019  -0.000858
     61       0.000093   0.000110   0.000291
     62      -0.000045  -0.000030  -0.000057
     63      -0.000036  -0.000122   0.000701
     64      -0.000140   0.000051   0.001353
     65      -0.000058  -0.000026   0.000293
     66       0.000000  -0.000017   0.000126
     67      -0.000114   0.000133  -0.000612
     68       0.000111  -0.000411   0.001363


-----------
IR SPECTRUM  
-----------

 Mode    freq (cm**-1)   T**2         TX         TY         TZ
-------------------------------------------------------------------
   7:        18.07    0.000000  (  0.000000   0.000000   0.000000)
   8:        30.23    0.000000  (  0.000000   0.000000   0.000000)
   9:        46.22    0.000000  (  0.000000   0.000000   0.000000)
  10:        70.29    0.000000  (  0.000000   0.000000   0.000000)
  11:        98.91    0.000000  (  0.000000   0.000000   0.000000)
  12:       123.98    0.000000  (  0.000000   0.000000   0.000000)
  13:       181.07    0.000000  (  0.000000   0.000000   0.000000)
  14:       248.53    0.000000  (  0.000000   0.000000   0.000000)
  15:       327.37    0.000000  (  0.000000   0.000000   0.000000)
  16:       373.60    0.000000  (  0.000000   0.000000   0.000000)
  17:       438.90    0.000000  (  0.000000   0.000000   0.000000)
  18:       455.48    0.000000  (  0.000000   0.000000   0.000000)
  19:       533.76    0.000000  (  0.000000   0.000000   0.000000)
  20:       670.72    0.000000  (  0.000000   0.000000   0.000000)
  21:       832.42    0.000000  (  0.000000   0.000000   0.000000)
  22:       867.20    0.000000  (  0.000000   0.000000   0.000000)
  23:       891.59    0.000000  (  0.000000   0.000000   0.000000)
  24:       933.39    0.000000  (  0.000000   0.000000   0.000000)
  25:       934.28    0.000000  (  0.000000   0.000000   0.000000)
  26:       960.51    0.000000  (  0.000000   0.000000   0.000000)
  27:      1006.69    0.000000  (  0.000000   0.000000   0.000000)
  28:      1089.74    0.000000  (  0.000000   0.000000   0.000000)
  29:      1092.44    0.000000  (  0.000000   0.000000   0.000000)
  30:      1115.01    0.000000  (  0.000000   0.000000   0.000000)
  31:      1120.01    0.000000  (  0.000000   0.000000   0.000000)
  32:      1139.83    0.000000  (  0.000000   0.000000   0.000000)
  33:      1140.98    0.000000  (  0.000000   0.000000   0.000000)
  34:      1176.60    0.000000  (  0.000000   0.000000   0.000000)
  35:      1178.75    0.000000  (  0.000000   0.000000   0.000000)
  36:      1179.49    0.000000  (  0.000000   0.000000   0.000000)
  37:      1220.42    0.000000  (  0.000000   0.000000   0.000000)
  38:      1251.04    0.000000  (  0.000000   0.000000   0.000000)
  39:      1251.64    0.000000  (  0.000000   0.000000   0.000000)
  40:      1252.54    0.000000  (  0.000000   0.000000   0.000000)
  41:      1299.22    0.000000  (  0.000000   0.000000   0.000000)
  42:      1333.17    0.000000  (  0.000000   0.000000   0.000000)
  43:      1349.13    0.000000  (  0.000000   0.000000   0.000000)
  44:      1349.88    0.000000  (  0.000000   0.000000   0.000000)
  45:      1357.88    0.000000  (  0.000000   0.000000   0.000000)
  46:      1366.57    0.000000  (  0.000000   0.000000   0.000000)
  47:      1470.62    0.000000  (  0.000000   0.000000   0.000000)
  48:      1475.65    0.000000  (  0.000000   0.000000   0.000000)
  49:      1478.33    0.000000  (  0.000000   0.000000   0.000000)
  50:      1485.69    0.000000  (  0.000000   0.000000   0.000000)
  51:      1488.23    0.000000  (  0.000000   0.000000   0.000000)
  52:      1501.54    0.000000  (  0.000000   0.000000   0.000000)
  53:      1512.06    0.000000  (  0.000000   0.000000   0.000000)
  54:      1512.54    0.000000  (  0.000000   0.000000   0.000000)
  55:      2295.67    0.000000  (  0.000000   0.000000   0.000000)
  56:      2309.56    0.000000  (  0.000000   0.000000   0.000000)
  57:      2531.15    0.000000  (  0.000000   0.000000   0.000000)
  58:      2906.12    0.000000  (  0.000000   0.000000   0.000000)
  59:      2942.56    0.000000  (  0.000000   0.000000   0.000000)
  60:      2945.97    0.000000  (  0.000000   0.000000   0.000000)
  61:      2947.34    0.000000  (  0.000000   0.000000   0.000000)
  62:      2949.69    0.000000  (  0.000000   0.000000   0.000000)
  63:      2952.33    0.000000  (  0.000000   0.000000   0.000000)
  64:      2963.91    0.000000  (  0.000000   0.000000   0.000000)
  65:      2969.20    0.000000  (  0.000000   0.000000   0.000000)
  66:      2971.38    0.000000  (  0.000000   0.000000   0.000000)
  67:      2976.94    0.000000  (  0.000000   0.000000   0.000000)
  68:      2983.13    0.000000  (  0.000000   0.000000   0.000000)

The first frequency considered to be a vibration is 7
The total number of vibrations considered is 62


--------------------------
THERMOCHEMISTRY AT 298.15K
--------------------------

Temperature         ... 298.15 K
Pressure            ... 1.00 atm
Total Mass          ... 194.09 AMU

Throughout the following assumptions are being made:
  (1) The electronic state is orbitally nondegenerate
  (2) There are no thermally accessible electronically excited states
  (3) Hindered rotations indicated by low frequency modes are not
      treated as such but are treated as vibrations and this may
      cause some error
  (4) All equations used are the standard statistical mechanics
      equations for an ideal gas
  (5) All vibrations are strictly harmonic

freq.      18.07  E(vib)   ...       0.57 
freq.      30.23  E(vib)   ...       0.55 
freq.      46.22  E(vib)   ...       0.53 
freq.      70.29  E(vib)   ...       0.50 
freq.      98.91  E(vib)   ...       0.46 
freq.     123.98  E(vib)   ...       0.43 
freq.     181.07  E(vib)   ...       0.37 
freq.     248.53  E(vib)   ...       0.31 
freq.     327.37  E(vib)   ...       0.24 
freq.     373.60  E(vib)   ...       0.21 
freq.     438.90  E(vib)   ...       0.17 
freq.     455.48  E(vib)   ...       0.16 
freq.     533.76  E(vib)   ...       0.13 
freq.     670.72  E(vib)   ...       0.08 
freq.     832.42  E(vib)   ...       0.04 
freq.     867.20  E(vib)   ...       0.04 
freq.     891.59  E(vib)   ...       0.03 
freq.     933.39  E(vib)   ...       0.03 
freq.     934.28  E(vib)   ...       0.03 
freq.     960.51  E(vib)   ...       0.03 
freq.    1006.69  E(vib)   ...       0.02 
freq.    1089.74  E(vib)   ...       0.02 
freq.    1092.44  E(vib)   ...       0.02 
freq.    1115.01  E(vib)   ...       0.01 
freq.    1120.01  E(vib)   ...       0.01 
freq.    1139.83  E(vib)   ...       0.01 
freq.    1140.98  E(vib)   ...       0.01 
freq.    1176.60  E(vib)   ...       0.01 
freq.    1178.75  E(vib)   ...       0.01 
freq.    1179.49  E(vib)   ...       0.01 
freq.    1220.42  E(vib)   ...       0.01 
freq.    1251.04  E(vib)   ...       0.01 
freq.    1251.64  E(vib)   ...       0.01 
freq.    1252.54  E(vib)   ...       0.01 
freq.    1299.22  E(vib)   ...       0.01 
freq.    1333.17  E(vib)   ...       0.01 
freq.    1349.13  E(vib)   ...       0.01 
freq.    1349.88  E(vib)   ...       0.01 
freq.    1357.88  E(vib)   ...       0.01 
freq.    1366.57  E(vib)   ...       0.01 
freq.    1470.62  E(vib)   ...       0.00 
freq.    1475.65  E(vib)   ...       0.00 
freq.    1478.33  E(vib)   ...       0.00 
freq.    1485.69  E(vib)   ...       0.00 
freq.    1488.23  E(vib)   ...       0.00 
freq.    1501.54  E(vib)   ...       0.00 
freq.    1512.06  E(vib)   ...       0.00 
freq.    1512.54  E(vib)   ...       0.00 
freq.    2295.67  E(vib)   ...       0.00 
freq.    2309.56  E(vib)   ...       0.00 
freq.    2531.15  E(vib)   ...       0.00 
freq.    2906.12  E(vib)   ...       0.00 
freq.    2942.56  E(vib)   ...       0.00 
freq.    2945.97  E(vib)   ...       0.00 
freq.    2947.34  E(vib)   ...       0.00 
freq.    2949.69  E(vib)   ...       0.00 
freq.    2952.33  E(vib)   ...       0.00 
freq.    2963.91  E(vib)   ...       0.00 
freq.    2969.20  E(vib)   ...       0.00 
freq.    2971.38  E(vib)   ...       0.00 
freq.    2976.94  E(vib)   ...       0.00 
freq.    2983.13  E(vib)   ...       0.00 

------------
INNER ENERGY
------------

The inner energy is: U= E(el) + E(ZPE) + E(vib) + E(rot) + E(trans)
    E(el)   - is the total energy from the electronic structure calculation
              = E(kin-el) + E(nuc-el) + E(el-el) + E(nuc-nuc)
    E(ZPE)  - the the zero temperature vibrational energy from the frequency calculation
    E(vib)  - the the finite temperature correction to E(ZPE) due to population
              of excited vibrational states
    E(rot)  - is the rotational thermal energy
    E(trans)- is the translational thermal energy

Summary of contributions to the inner energy U:
Electronic energy                ...    -30.57795448 Eh
Zero point energy                ...      0.19336438 Eh     121.34 kcal/mol
Thermal vibrational correction   ...      0.00821375 Eh       5.15 kcal/mol
Thermal rotational correction    ...      0.00141627 Eh       0.89 kcal/mol
Thermal translational correction ...      0.00141627 Eh       0.89 kcal/mol
-----------------------------------------------------------------------
Total thermal energy                    -30.37354381 Eh


Summary of corrections to the electronic energy:
(perhaps to be used in another calculation)
Total thermal correction                  0.01104629 Eh       6.93 kcal/mol
Non-thermal (ZPE) correction              0.19336438 Eh     121.34 kcal/mol
-----------------------------------------------------------------------
Total correction                          0.20441067 Eh     128.27 kcal/mol


--------
ENTHALPY
--------

The enthalpy is H = U + kB*T
                kB is Boltzmann's constant
Total free energy                 ...    -30.37354381 Eh 
Thermal Enthalpy correction       ...      0.00094421 Eh       0.59 kcal/mol
-----------------------------------------------------------------------
Total Enthalpy                    ...    -30.37259961 Eh


Note: Only C1 symmetry has been detected, increase convergence thresholds 
      if your molecule has a higher symmetry. Symmetry factor of 1.0 is   
      used for the rotational entropy correction. 
 

Note: Rotational entropy computed according to Herzberg 
Infrared and Raman Spectra, Chapter V,1, Van Nostrand Reinhold, 1945 
Point Group:  C1, Symmetry Number:   1  
Rotational constants in cm-1:     0.049649     0.018659     0.016245 

Vibrational entropy computed according to the QRRHO of S. Grimme
Chem.Eur.J. 2012 18 9955


-------
ENTROPY
-------

The entropy contributions are T*S = T*(S(el)+S(vib)+S(rot)+S(trans))
     S(el)   - electronic entropy
     S(vib)  - vibrational entropy
     S(rot)  - rotational entropy
     S(trans)- translational entropy
The entropies will be listed as mutliplied by the temperature to get
units of energy

Electronic entropy                ...      0.00000000 Eh      0.00 kcal/mol
Vibrational entropy               ...      0.01544301 Eh      9.69 kcal/mol
Rotational entropy                ...      0.01475297 Eh      9.26 kcal/mol
Translational entropy             ...      0.01981043 Eh     12.43 kcal/mol
-----------------------------------------------------------------------
Final entropy term                ...      0.05000641 Eh     31.38 kcal/mol

In case the symmetry of your molecule has not been determined correctly
or in case you have a reason to use a different symmetry number we print 
out the resulting rotational entropy values for sn=1,12 :
 --------------------------------------------------------
|  sn= 1 | S(rot)=       0.01475297 Eh      9.26 kcal/mol|
|  sn= 2 | S(rot)=       0.01409851 Eh      8.85 kcal/mol|
|  sn= 3 | S(rot)=       0.01371568 Eh      8.61 kcal/mol|
|  sn= 4 | S(rot)=       0.01344405 Eh      8.44 kcal/mol|
|  sn= 5 | S(rot)=       0.01323337 Eh      8.30 kcal/mol|
|  sn= 6 | S(rot)=       0.01306122 Eh      8.20 kcal/mol|
|  sn= 7 | S(rot)=       0.01291567 Eh      8.10 kcal/mol|
|  sn= 8 | S(rot)=       0.01278960 Eh      8.03 kcal/mol|
|  sn= 9 | S(rot)=       0.01267839 Eh      7.96 kcal/mol|
|  sn=10 | S(rot)=       0.01257891 Eh      7.89 kcal/mol|
|  sn=11 | S(rot)=       0.01248892 Eh      7.84 kcal/mol|
|  sn=12 | S(rot)=       0.01240676 Eh      7.79 kcal/mol|
 --------------------------------------------------------


-------------------
GIBBS FREE ENERGY
-------------------

The Gibbs free energy is G = H - T*S

Total enthalpy                    ...    -30.37259961 Eh 
Total entropy correction          ...     -0.05000641 Eh    -31.38 kcal/mol
-----------------------------------------------------------------------
Final Gibbs free energy         ...    -30.42260602 Eh

For completeness - the Gibbs free energy minus the electronic energy
G-E(el)                           ...      0.15534847 Eh     97.48 kcal/mol


Total Time for Numerical Frequencies  :        67.845 sec

Timings for individual modules:

Sum of individual times         ...        0.381 sec (=   0.006 min)
Geometry relaxation             ...        0.262 sec (=   0.004 min)  68.8 %
XTB module                      ...        0.119 sec (=   0.002 min)  31.2 %
                             ****ORCA TERMINATED NORMALLY****
TOTAL RUN TIME: 0 days 0 hours 1 minutes 9 seconds 232 msec
