
                                 *****************
                                 * O   R   C   A *
                                 *****************

           --- An Ab Initio, DFT and Semiempirical electronic structure package ---

                  #######################################################
                  #                        -***-                        #
                  #          Department of theory and spectroscopy      #
                  #               Directorship: Frank Neese             #
                  #        Max Planck Institute fuer Kohlenforschung    #
                  #                Kaiser Wilhelm Platz 1               #
                  #                 D-45470 Muelheim/Ruhr               #
                  #                      Germany                        #
                  #                                                     #
                  #                  All rights reserved                #
                  #                        -***-                        #
                  #######################################################


                         Program Version 4.2.1 -  RELEASE  -


 With contributions from (in alphabetic order):
   Daniel Aravena         : Magnetic Suceptibility
   Michael Atanasov       : Ab Initio Ligand Field Theory (pilot matlab implementation)
   Alexander A. Auer      : GIAO ZORA, VPT2
   Ute Becker             : Parallelization
   Giovanni Bistoni       : ED, misc. LED, open-shell LED, HFLD
   Martin Brehm           : Molecular dynamics
   Dmytro Bykov           : SCF Hessian
   Vijay G. Chilkuri      : MRCI spin determinant printing, contributions to CSF-ICE
   Dipayan Datta          : RHF DLPNO-CCSD density
   Achintya Kumar Dutta   : EOM-CC, STEOM-CC
   Dmitry Ganyushin       : Spin-Orbit,Spin-Spin,Magnetic field MRCI
   Miquel Garcia          : C-PCM Hessian, Gaussian charge scheme
   Yang Guo               : DLPNO-NEVPT2, CIM, IAO-localization
   Andreas Hansen         : Spin unrestricted coupled pair/coupled cluster methods
   Benjamin Helmich-Paris : CASSCF linear response (MC-RPA)
   Lee Huntington         : MR-EOM, pCC
   Robert Izsak           : Overlap fitted RIJCOSX, COSX-SCS-MP3, EOM
   Christian Kollmar      : KDIIS, OOCD, Brueckner-CCSD(T), CCSD density
   Simone Kossmann        : Meta GGA functionals, TD-DFT gradient, OOMP2, MP2 Hessian
   Martin Krupicka        : AUTO-CI
   Lucas Lang             : DCDCAS
   Dagmar Lenk            : GEPOL surface, SMD
   Dimitrios Liakos       : Extrapolation schemes; Compound Job, initial MDCI parallelization
   Dimitrios Manganas     : Further ROCIS development; embedding schemes
   Dimitrios Pantazis     : SARC Basis sets
   Taras Petrenko         : DFT Hessian,TD-DFT gradient, ASA, ECA, R-Raman, ABS, FL, XAS/XES, NRVS
   Peter Pinski           : DLPNO-MP2, DLPNO-MP2 Gradient
   Christoph Reimann      : Effective Core Potentials
   Marius Retegan         : Local ZFS, SOC
   Christoph Riplinger    : Optimizer, TS searches, QM/MM, DLPNO-CCSD(T), (RO)-DLPNO pert. Triples
   Tobias Risthaus        : Range-separated hybrids, TD-DFT gradient, RPA, STAB
   Michael Roemelt        : Original ROCIS implementation
   Masaaki Saitow         : Open-shell DLPNO-CCSD energy and density
   Barbara Sandhoefer     : DKH picture change effects
   Avijit Sen             : IP-ROCIS
   Kantharuban Sivalingam : CASSCF convergence, NEVPT2, FIC-MRCI
   Bernardo de Souza      : ESD, SOC TD-DFT
   Georgi Stoychev        : AutoAux, RI-MP2 NMR
   Willem Van den Heuvel  : Paramagnetic NMR
   Boris Wezisla          : Elementary symmetry handling
   Frank Wennmohs         : Technical directorship


 We gratefully acknowledge several colleagues who have allowed us to
 interface, adapt or use parts of their codes:
   Stefan Grimme, W. Hujo, H. Kruse,             : VdW corrections, initial TS optimization,
                  C. Bannwarth                     DFT functionals, gCP, sTDA/sTD-DF
   Ed Valeev, F. Pavosevic, A. Kumar             : LibInt (2-el integral package), F12 methods
   Garnet Chan, S. Sharma, J. Yang, R. Olivares  : DMRG
   Ulf Ekstrom                                   : XCFun DFT Library
   Mihaly Kallay                                 : mrcc  (arbitrary order and MRCC methods)
   Andreas Klamt, Michael Diedenhofen            : otool_cosmo (COSMO solvation model)
   Jiri Pittner, Ondrej Demel                    : Mk-CCSD
   Frank Weinhold                                : gennbo (NPA and NBO analysis)
   Christopher J. Cramer and Donald G. Truhlar   : smd solvation model
   Lars Goerigk                                  : TD-DFT with DH, B97 family of functionals
   V. Asgeirsson, H. Jonsson                     : NEB implementation
   FAccTs GmbH                                   : IRC, NEB, NEB-TS, Multilevel, MM, QM/MM, CI optimization
   S Lehtola, MJT Oliveira, MAL Marques          : LibXC Library


 Your calculation uses the libint2 library for the computation of 2-el integrals
 For citations please refer to: http://libint.valeyev.net

 Your ORCA version has been built with support for libXC version: 4.2.3
 For citations please refer to: https://tddft.org/programs/libxc/

 This ORCA versions uses:
   CBLAS   interface :  Fast vector & matrix operations
   LAPACKE interface :  Fast linear algebra routines
   SCALAPACK package :  Parallel linear algebra routines




***************************************
The coordinates will be read from file: init.xyz
***************************************


Your calculation utilizes the SMD solvation module
Please cite in your paper:
A.V. Marenich, C.J. Cramer, D.G. Truhlar J. Phys. Chem. B, 113, (2009), 6378 

Your calculation utilizes the semiempirical GFN2-xTB method
Please cite in your paper:
C. Bannwarth, Ehlert S., S. Grimme,  J. Chem. Theory Comput., 15, (2019), 1652.
   

Your calculation utilizes a Nudged-Elastic-Band implementation
 by V.Asgeirsson, C. Riplinger & H. Jonsson
Please cite in your paper:
 V. Asgeirsson et al., in prep. (2019)
   

----- Orbital basis set information -----
Your calculation utilizes the basis: def2-SVP
   F. Weigend and R. Ahlrichs, Phys. Chem. Chem. Phys. 7, 3297 (2005).

================================================================================
                                        WARNINGS
                       Please study these warnings very carefully!
================================================================================


WARNING: The environment variable RSH_COMMAND is not set!
  ===> : All Displacements for the Numerical Hessian calculation
         will be started on localhost

WARNING: Geometry Optimization
  ===> : Switching off AutoStart
         For restart on a previous wavefunction, please use MOREAD

WARNING: Found dipole moment calculation with XTB calculation
  ===> : Switching off dipole moment calculation


INFO   : the flag for use of LIBINT has been found!

================================================================================
                                       INPUT FILE
================================================================================
NAME = optts+numfreq.inp
|  1> ! xTB2 NEB-TS NumFreq IRC
|  2> 
|  3> *xyzfile -1 1 init.xyz
|  4> 
|  5> %cpcm
|  6>  smd true
|  7>  SMDsolvent "METHANOL"
|  8> end
|  9> 
| 10> %neb
| 11>  neb_ts_xyzfile "guess.xyz"
| 12>  neb_end_xyzfile "final.xyz"
| 13> 
| 14>  interpolation XTB2TS
| 15>  # interpolation XTB2
| 16>  preopt_ends true
| 17>  free_end true
| 18>  reparam 35
| 19>  nimages 30
| 20> end
| 21> 
| 22> %geom
| 23>  maxiter 200
| 24> end
| 25> 
| 26> %pal
| 27>  nprocs 6
| 28> end
| 29> 
| 30>                          ****END OF INPUT****
================================================================================


------------------------------------------------------------------------------- 
                         Nudged Elastic Band Calculation                       
------------------------------------------------------------------------------- 

Warning: End points are propagated according to the atomic force perp. to the path:
         the end points need to be placed on opposite sides of the potential energy barrier
Number of images (incl. end points)     ....  30
Number of intermediate images           ....  28
Number of optimized images              ....  30
Optimization of end points before NEB   ....  YES
Use existing gbw files for MO input     ....  NO
Number of atoms                         ....  23
Number of (active) degrees of freedom   ....  69
Constrained atoms                       ....  None


Before the actual NEB run reactant and product are preoptimized.

---------------------------------------------------------------
                        REACTANT OPTIMIZATION            
---------------------------------------------------------------

Geometry optimization settings:
Update method            Update   .... BFGS
Choice of coordinates    CoordSys .... Z-matrix Internals
Initial Hessian          InHess   .... Almoef's Model

Convergence Tolerances:
Energy Change            TolE     ....  5.0000e-06 Eh
Max. Gradient            TolMAXG  ....  3.0000e-04 Eh/bohr
RMS Gradient             TolRMSG  ....  1.0000e-04 Eh/bohr
Max. Displacement        TolMAXD  ....  4.0000e-03 bohr
RMS Displacement         TolRMSD  ....  2.0000e-03 bohr
Strict Convergence                ....  False
------------------------------------------------------------------------------
                        ORCA OPTIMIZATION COORDINATE SETUP
------------------------------------------------------------------------------

The optimization will be done in new redundant internal coordinates
Making redundant internal coordinates   ...  (new redundants) done
Evaluating the initial hessian          ...  (Almloef) done
Evaluating the coordinates              ...  done
Calculating the B-matrix                .... done
Calculating the G-matrix                .... done
Diagonalizing the G-matrix              .... done
The first mode is                       ....   78
The number of degrees of freedom        ....   63

    -----------------------------------------------------------------
                    Redundant Internal Coordinates


    -----------------------------------------------------------------
         Definition                    Initial Value    Approx d2E/dq
    -----------------------------------------------------------------
      1. B(C   1,C   0)                  1.5255         0.379744   
      2. B(C   4,C   1)                  1.5256         0.379728   
      3. B(C   4,C   2)                  1.5251         0.380420   
      4. B(H   5,C   2)                  1.0959         0.352418   
      5. B(H   6,C   2)                  1.0943         0.354509   
      6. B(C   7,C   0)                  1.5245         0.381142   
      7. B(H   8,C   1)                  1.0919         0.357647   
      8. B(H   9,C   1)                  1.0934         0.355610   
      9. B(C  10,C   7)                  1.5139         0.396302   
     10. B(C  10,H   3)                  1.0925         0.356822   
     11. B(C  10,C   2)                  1.5152         0.394460   
     12. B(H  11,C   7)                  1.0946         0.354055   
     13. B(H  12,C   7)                  1.0990         0.348337   
     14. B(H  13,C   4)                  1.0916         0.357964   
     15. B(H  14,C   4)                  1.0942         0.354547   
     16. B(H  15,C   0)                  1.0919         0.357640   
     17. B(H  16,C   0)                  1.0946         0.354109   
     18. B(Br 17,C  10)                  1.9539         0.264554   
     19. B(O  19,H  12)                  2.1702         0.006097   
     20. B(O  19,H   5)                  2.3303         0.003386   
     21. B(O  19,C  18)                  1.3133         0.741633   
     22. B(H  20,C  18)                  1.1350         0.305278   
     23. B(H  21,C  18)                  1.1362         0.303943   
     24. B(H  22,C  18)                  1.1344         0.305917   
     25. A(C   7,C   0,H  15)          109.1859         0.325023   
     26. A(H  15,C   0,H  16)          108.0516         0.289763   
     27. A(C   1,C   0,H  15)          110.1857         0.324827   
     28. A(C   7,C   0,H  16)          109.5712         0.324493   
     29. A(C   1,C   0,H  16)          109.6993         0.324298   
     30. A(C   1,C   0,C   7)          110.1132         0.365623   
     31. A(C   0,C   1,H   8)          110.1235         0.324828   
     32. A(H   8,C   1,H   9)          108.6435         0.289956   
     33. A(C   4,C   1,H   8)          110.1638         0.324825   
     34. A(C   4,C   1,H   9)          108.9083         0.324521   
     35. A(C   0,C   1,C   4)          110.1610         0.365391   
     36. A(C   0,C   1,H   9)          108.8006         0.324523   
     37. A(C   4,C   2,H   5)          110.3164         0.324137   
     38. A(C   4,C   2,C  10)          111.7818         0.367894   
     39. A(H   5,C   2,H   6)          108.3794         0.289147   
     40. A(H   6,C   2,C  10)          110.5634         0.326392   
     41. A(C   4,C   2,H   6)          110.6631         0.324453   
     42. A(H   5,C   2,C  10)          104.9411         0.326074   
     43. A(H  13,C   4,H  14)          108.0796         0.289860   
     44. A(C   1,C   4,H  14)          109.6597         0.324361   
     45. A(C   2,C   4,H  13)          109.2064         0.324970   
     46. A(C   1,C   4,H  13)          110.1650         0.324873   
     47. A(C   2,C   4,H  14)          109.5766         0.324458   
     48. A(C   1,C   4,C   2)          110.1202         0.365502   
     49. A(C   2,H   5,O  19)          140.5402         0.158035   
     50. A(H  11,C   7,H  12)          108.2899         0.288562   
     51. A(C  10,C   7,H  12)          104.5517         0.325699   
     52. A(C   0,C   7,H  12)          110.4881         0.323619   
     53. A(C  10,C   7,H  11)          110.6802         0.326573   
     54. A(C   0,C   7,H  11)          110.7448         0.324485   
     55. A(C   0,C   7,C  10)          111.8642         0.368308   
     56. A(C   2,C  10,H   3)          110.2682         0.326742   
     57. A(H   3,C  10,C   7)          110.1861         0.326992   
     58. A(C   7,C  10,Br 17)          110.1999         0.368002   
     59. A(H   3,C  10,Br 17)          104.4683         0.324642   
     60. A(C   2,C  10,Br 17)          110.0547         0.367708   
     61. A(C   2,C  10,C   7)          111.4450         0.370488   
     62. A(C   7,H  12,O  19)          146.1027         0.167656   
     63. A(H  21,C  18,H  22)          104.3420         0.276202   
     64. A(H  20,C  18,H  22)          104.4415         0.276388   
     65. A(O  19,C  18,H  22)          114.1384         0.351691   
     66. A(H  20,C  18,H  21)          104.3562         0.276114   
     67. A(O  19,C  18,H  21)          114.1790         0.351306   
     68. A(O  19,C  18,H  20)          114.2204         0.351567   
     69. A(H   5,O  19,H  12)           66.4989         0.116239   
     70. A(H  12,O  19,C  18)          124.8480         0.196021   
     71. A(H   5,O  19,C  18)          168.6492         0.182683   
     72. D(H   9,C   1,C   0,H  15)     59.5616         0.011494   
     73. D(H   8,C   1,C   0,C   7)   -179.9096         0.011494   
     74. D(H   9,C   1,C   0,H  16)    178.3977         0.011494   
     75. D(H   8,C   1,C   0,H  15)    -59.4112         0.011494   
     76. D(C   4,C   1,C   0,H  15)    178.8796         0.011494   
     77. D(H   9,C   1,C   0,C   7)    -60.9368         0.011494   
     78. D(C   4,C   1,C   0,C   7)     58.3812         0.011494   
     79. D(H   8,C   1,C   0,H  16)     59.4250         0.011494   
     80. D(C   4,C   1,C   0,H  16)    -62.2843         0.011494   
     81. D(C   2,C   4,C   1,H   9)     60.8225         0.011493   
     82. D(H  13,C   4,C   2,C  10)    177.3825         0.011533   
     83. D(C   2,C   4,C   1,H   8)    179.8848         0.011493   
     84. D(H  13,C   4,C   2,H   5)     61.0222         0.011533   
     85. D(H  14,C   4,C   2,H   6)     59.2987         0.011533   
     86. D(C   1,C   4,C   2,H   6)   -180.0000         0.011533   
     87. D(H  13,C   4,C   1,H   8)     59.3696         0.011493   
     88. D(H  14,C   4,C   1,H   9)   -178.5261         0.011493   
     89. D(H  14,C   4,C   1,H   8)    -59.4638         0.011493   
     90. D(C   2,C   4,C   1,C   0)    -58.4299         0.011493   
     91. D(C   1,C   4,C   2,C  10)     56.2921         0.011533   
     92. D(H  13,C   4,C   1,H   9)    -59.6927         0.011493   
     93. D(H  13,C   4,C   1,C   0)   -178.9451         0.011493   
     94. D(H  14,C   4,C   2,H   5)    179.2305         0.011533   
     95. D(H  14,C   4,C   1,C   0)     62.2215         0.011493   
     96. D(H  14,C   4,C   2,C  10)    -64.4092         0.011533   
     97. D(H  13,C   4,C   2,H   6)    -58.9096         0.011533   
     98. D(C   1,C   4,C   2,H   5)    -60.0682         0.011533   
     99. D(O  19,H   5,C   2,C  10)     -7.2984         0.115266   
    100. D(O  19,H   5,C   2,H   6)   -125.4456         0.115266   
    101. D(O  19,H   5,C   2,C   4)    113.2543         0.115266   
    102. D(C  10,C   7,C   0,C   1)    -56.2561         0.011574   
    103. D(H  12,C   7,C   0,H  15)    -61.3182         0.011574   
    104. D(H  12,C   7,C   0,C   1)     59.7803         0.011574   
    105. D(H  11,C   7,C   0,H  16)    -59.4927         0.011574   
    106. D(H  11,C   7,C   0,H  15)     58.6664         0.011574   
    107. D(H  11,C   7,C   0,C   1)    179.7649         0.011574   
    108. D(C  10,C   7,C   0,H  16)     64.4864         0.011574   
    109. D(H  12,C   7,C   0,H  16)   -179.4772         0.011574   
    110. D(C  10,C   7,C   0,H  15)   -177.3546         0.011574   
    111. D(Br 17,C  10,C   7,H  12)    171.8876         0.012470   
    112. D(Br 17,C  10,C   7,H  11)     55.4936         0.012470   
    113. D(H   3,C  10,C   7,H  12)     57.1219         0.012470   
    114. D(H   3,C  10,C   7,H  11)    -59.2721         0.012470   
    115. D(H   3,C  10,C   7,C   0)    176.7127         0.012470   
    116. D(C   2,C  10,C   7,H  12)    -65.6266         0.012470   
    117. D(C   2,C  10,C   7,H  11)    177.9794         0.012470   
    118. D(C   2,C  10,C   7,C   0)     53.9642         0.012470   
    119. D(Br 17,C  10,C   2,H   6)    -55.1578         0.012359   
    120. D(Br 17,C  10,C   2,H   5)   -171.8153         0.012359   
    121. D(Br 17,C  10,C   2,C   4)     68.6063         0.012359   
    122. D(C   7,C  10,C   2,H   6)   -177.7270         0.012359   
    123. D(C   7,C  10,C   2,H   5)     65.6155         0.012359   
    124. D(C   7,C  10,C   2,C   4)    -53.9630         0.012359   
    125. D(Br 17,C  10,C   7,C   0)    -68.5216         0.012470   
    126. D(H   3,C  10,C   2,H   6)     59.5715         0.012359   
    127. D(H   3,C  10,C   2,H   5)    -57.0860         0.012359   
    128. D(H   3,C  10,C   2,C   4)   -176.6644         0.012359   
    129. D(O  19,H  12,C   7,H  11)    120.2232         0.112055   
    130. D(O  19,H  12,C   7,C  10)      2.1846         0.112055   
    131. D(O  19,H  12,C   7,C   0)   -118.3276         0.112055   
    132. D(C  18,O  19,H  12,C   7)   -146.5018         0.001519   
    133. D(H  12,O  19,H   5,C   2)    -29.6195         0.001506   
    134. D(C  18,O  19,H   5,C   2)    151.8063         0.001506   
    135. D(H  12,O  19,C  18,H  22)    155.5114         0.050166   
    136. D(H  12,O  19,C  18,H  21)     35.5943         0.050166   
    137. D(H  12,O  19,C  18,H  20)    -84.4057         0.050166   
    138. D(H   5,O  19,C  18,H  22)    -26.0819         0.050166   
    139. D(H   5,O  19,C  18,H  21)   -145.9991         0.050166   
    140. D(H   5,O  19,C  18,H  20)     94.0010         0.050166   
    141. D(H   5,O  19,H  12,C   7)     33.8401         0.001519   
    -----------------------------------------------------------------

Number of atoms                         .... 23
Number of degrees of freedom            .... 141

         *************************************************************
         *                GEOMETRY OPTIMIZATION CYCLE   1            *
         *************************************************************
      -----------------------------------------------------------      
     |                   =====================                   |     
     |                           x T B                           |     
     |                   =====================                   |     
     |                         S. Grimme                         |     
     |          Mulliken Center for Theoretical Chemistry        |     
     |                    University of Bonn                     |     
      -----------------------------------------------------------      

   * xtb version 6.3.2 (30e43eb) compiled by 'schneider@apollo14' on 2020-08-08

   xtb is free software: you can redistribute it and/or modify it under
   the terms of the GNU Lesser General Public License as published by
   the Free Software Foundation, either version 3 of the License, or
   (at your option) any later version.
   
   xtb is distributed in the hope that it will be useful,
   but WITHOUT ANY WARRANTY; without even the implied warranty of
   MERCHANTABILITY or FITNESS FOR A PARTICULAR PURPOSE.  See the
   GNU Lesser General Public License for more details.
   
   Cite this work as:
   * S. Grimme, C. Bannwarth, P. Shushkov, J. Chem. Theory Comput., 2017,
     13, 1989-2009. DOI: 10.1021/acs.jctc.7b00118
   * C. Bannwarth, S. Ehlert and S. Grimme., J. Chem. Theory Comput., 2019,
     15, 1652-1671. DOI: 10.1021/acs.jctc.8b01176
   * P. Pracht, E. Caldeweyher, S. Ehlert, S. Grimme, ChemRxiv, 2019, preprint.
     DOI: 10.26434/chemrxiv.8326202.v1
   
   for GFN-FF:
   * S. Spicher and S. Grimme, Angew. Chem. Int. Ed., 2020,
     DOI: 10.1002/anie.202004239
   
   for DFT-D4:
   * E. Caldeweyher, C. Bannwarth and S. Grimme, J. Chem. Phys., 2017,
     147, 034112. DOI: 10.1063/1.4993215
   * E. Caldeweyher, S. Ehlert, A. Hansen, H. Neugebauer, S. Spicher,
     C. Bannwarth and S. Grimme, J. Chem. Phys., 2019, 150, 154122.
     DOI: 10.1063/1.5090222
   
   for sTDA-xTB:
   * S. Grimme and C. Bannwarth, J. Chem. Phys., 2016, 145, 054103.
     DOI: 10.1063/1.4959605
   
   in the mass-spec context:
   * V. Asgeirsson, C. Bauer and S. Grimme, Chem. Sci., 2017, 8, 4879.
     DOI: 10.1039/c7sc00601b
   * J. Koopman and S. Grimme, ACS Omega 2019, 4, 12, 15120-15133.
     DOI: 10.1021/acsomega.9b02011
   
   for metadynamics refer to:
   * S. Grimme, J. Chem. Theory Comput., 2019, 155, 2847-2862
     DOI: 10.1021/acs.jctc.9b00143
   
   with help from (in alphabetical order)
   C. Bannwarth, F. Bohle, G. Brandenburg, E. Caldeweyher, M. Checinski,
   S. Dohm, S. Ehlert, S. Ehrlich, F. März, H. Neugebauer, J. Pisarek,
   P. Pracht, P. Shushkov, and S. Spicher.
   
 * started run on 2021/11/10 at 02:29:42.402     

           -------------------------------------------------
          |                Calculation Setup                |
           -------------------------------------------------

          program call               : /opt/orca/otool_xtb optts+numfreq_reactant_XTB.xyz --grad -c -1 -u 0 -P 6 --namespace optts+numfreq_reactant --gbsa methanol
          calculation namespace      : optts+numfreq_reactant
          coordinate file            : optts+numfreq_reactant_XTB.xyz
          omp threads                :                     6
          number of atoms            :                    23
          number of electrons        :                    56
          charge                     :                    -1
          spin                       :                   0.0
          first test random number   :      0.02790956820584

   ID    Z sym.   atoms
    1    6 C      1-3, 5, 8, 11, 19
    2    1 H      4, 6, 7, 9, 10, 12-17, 21-23
    3   35 Br     18
    4    8 O      20

molecular fragmentation (1/2 indicates fragments):
11111111111111111122222
# atoms in fragment 1/2:    18     5
 fragment masses (1/2) :      163.06       31.03
CMA distance (Bohr)    :   9.056
constraining FC (au)   :  0.0500
########################################################################
[WARNING] Please study the warnings concerning your input carefully
-1- prog_main_parseArguments: Process number higher than OMP_NUM_THREADS, I hope you know what you are doing.
########################################################################

           -------------------------------------------------
          |                 G F N 2 - x T B                 |
           -------------------------------------------------

        Reference                      10.1021/acs.jctc.8b01176
      * Hamiltonian:
        H0-scaling (s, p, d)           1.850000    2.230000    2.230000
        zeta-weighting                 0.500000
      * Dispersion:
        s8                             2.700000
        a1                             0.520000
        a2                             5.000000
        s9                             5.000000
      * Repulsion:
        kExp                           1.500000    1.000000
        rExp                           1.000000
      * Coulomb:
        alpha                          2.000000
        third order                    shell-resolved
        anisotropic                    true
        a3                             3.000000
        a5                             4.000000
        cn-shift                       1.200000
        cn-exp                         4.000000
        max-rad                        5.000000

      * Solvation model:               GBSA
        Solvent                        methanol
        Parameter file                 internal GFN2-xTB/GBSA
        Dielectric constant                3.2700E+01
        Reference state                gsolv [1 M gas/solution]
        Free energy shift                  3.3569E-03 Eh       2.1065E+00 kcal/mol
        Temperature                        2.9815E+02 K
        Density                            7.9200E-01 kg/L
        Solvent mass                       3.2040E+01 g/mol
        Interaction kernel             Still
        Born radius scaling (c1)           1.6087E+00
        Born radii integrator          GBOBC
        Born offset                        5.6550E-04 a0       1.0686E-03 AA
        H-bond correction              true
        Ion screening                  false
        Surface tension                    1.0000E-05 Eh       1.5569E+01 dyn/cm
        Grid points                               230 per atom
q/qsh data taken from xtbrestart
CAMM data taken from xtbrestart

          ...................................................
          :                      SETUP                      :
          :.................................................:
          :  # basis functions                  56          :
          :  # atomic orbitals                  55          :
          :  # shells                           33          :
          :  # electrons                        56          :
          :  max. iterations                   250          :
          :  Hamiltonian                  GFN2-xTB          :
          :  restarted?                       true          :
          :  GBSA solvation                   true          :
          :  PC potential                    false          :
          :  electronic temp.          300.0000000     K    :
          :  accuracy                    1.0000000          :
          :  -> integral cutoff          0.2500000E+02      :
          :  -> integral neglect         0.1000000E-07      :
          :  -> SCF convergence          0.1000000E-05 Eh   :
          :  -> wf. convergence          0.1000000E-03 e    :
          :  Broyden damping             0.4000000          :
          ...................................................

 iter      E             dE          RMSdq      gap      omega  full diag
   1    -30.8372714 -0.308373E+02  0.501E+00    5.55       0.0  T
   2    -30.8800000 -0.427286E-01  0.247E+00    5.24       1.0  T
   3    -30.8958460 -0.158460E-01  0.112E+00    2.75       1.0  T
   4    -30.8973865 -0.154048E-02  0.617E-01    3.11       1.0  T
   5    -30.8985970 -0.121053E-02  0.341E-01    2.88       1.0  T
   6    -30.8988478 -0.250774E-03  0.244E-01    2.91       1.0  T
   7    -30.8990818 -0.234000E-03  0.111E-01    2.90       1.0  T
   8    -30.8991311 -0.493051E-04  0.524E-02    2.90       1.0  T
   9    -30.8991372 -0.608347E-05  0.118E-02    2.85       1.8  T
  10    -30.8991379 -0.690036E-06  0.440E-03    2.85       4.7  T
  11    -30.8991379 -0.334737E-07  0.122E-03    2.85      17.1  T
  12    -30.8991379 -0.478684E-08  0.578E-04    2.85      36.1  T
  13    -30.8991379 -0.101463E-08  0.286E-04    2.85      72.8  T

   *** convergence criteria satisfied after 13 iterations ***

         #    Occupation            Energy/Eh            Energy/eV
      -------------------------------------------------------------
         1        2.0000           -0.8321197             -22.6431
       ...           ...                  ...                  ...
        22        2.0000           -0.4232616             -11.5175
        23        2.0000           -0.4220737             -11.4852
        24        2.0000           -0.4187857             -11.3957
        25        2.0000           -0.4005077             -10.8984
        26        2.0000           -0.3985847             -10.8460
        27        2.0000           -0.3126997              -8.5090
        28        2.0000           -0.3123150              -8.4985 (HOMO)
        29                         -0.2074140              -5.6440 (LUMO)
        30                          0.0380020               1.0341
        31                          0.0402760               1.0960
        32                          0.0473495               1.2884
        33                          0.0585201               1.5924
       ...                                ...                  ...
        55                          0.4115653              11.1993
      -------------------------------------------------------------
                  HL-Gap            0.1049010 Eh            2.8545 eV
             Fermi-level           -0.2598645 Eh           -7.0713 eV

 SCC (total)                   0 d,  0 h,  0 min,  0.037 sec
 SCC setup                      ...        0 min,  0.002 sec (  6.362%)
 Dispersion                     ...        0 min,  0.001 sec (  1.889%)
 classical contributions        ...        0 min,  0.001 sec (  3.125%)
 integral evaluation            ...        0 min,  0.006 sec ( 15.007%)
 iterations                     ...        0 min,  0.019 sec ( 50.449%)
 molecular gradient             ...        0 min,  0.008 sec ( 20.442%)
 printout                       ...        0 min,  0.001 sec (  2.670%)

         :::::::::::::::::::::::::::::::::::::::::::::::::::::
         ::                     SUMMARY                     ::
         :::::::::::::::::::::::::::::::::::::::::::::::::::::
         :: total energy             -30.577954556717 Eh    ::
         :: total w/o Gsasa/hb       -30.566898312030 Eh    ::
         :: gradient norm              0.000153599627 Eh/a0 ::
         :: HOMO-LUMO gap              2.854502353077 eV    ::
         ::.................................................::
         :: SCC energy               -30.899137932450 Eh    ::
         :: -> isotropic ES            0.214575734948 Eh    ::
         :: -> anisotropic ES         -0.014969154676 Eh    ::
         :: -> anisotropic XC         -0.012091677447 Eh    ::
         :: -> dispersion             -0.018996036892 Eh    ::
         :: -> Gsolv                  -0.113495814292 Eh    ::
         ::    -> Gborn               -0.102439569605 Eh    ::
         ::    -> Gsasa               -0.012217393291 Eh    ::
         ::    -> Ghb                 -0.002195780919 Eh    ::
         ::    -> Gshift               0.003356929523 Eh    ::
         :: repulsion energy           0.321047632936 Eh    ::
         :: add. restraining           0.000000000000 Eh    ::
         :: total charge              -1.000000000000 e     ::
         :::::::::::::::::::::::::::::::::::::::::::::::::::::

           -------------------------------------------------
          |                Property Printout                |
           -------------------------------------------------

    * Orbital Energies and Occupations

         #    Occupation            Energy/Eh            Energy/eV
      -------------------------------------------------------------
         1        2.0000           -0.8321197             -22.6431
       ...           ...                  ...                  ...
        16        2.0000           -0.4802601             -13.0685
        17        2.0000           -0.4768995             -12.9771
        18        2.0000           -0.4700834             -12.7916
        19        2.0000           -0.4489991             -12.2179
        20        2.0000           -0.4390398             -11.9469
        21        2.0000           -0.4377238             -11.9111
        22        2.0000           -0.4232616             -11.5175
        23        2.0000           -0.4220737             -11.4852
        24        2.0000           -0.4187857             -11.3957
        25        2.0000           -0.4005077             -10.8984
        26        2.0000           -0.3985847             -10.8460
        27        2.0000           -0.3126997              -8.5090
        28        2.0000           -0.3123150              -8.4985 (HOMO)
        29                         -0.2074140              -5.6440 (LUMO)
        30                          0.0380020               1.0341
        31                          0.0402760               1.0960
        32                          0.0473495               1.2884
        33                          0.0585201               1.5924
        34                          0.0864918               2.3536
        35                          0.0956347               2.6024
        36                          0.1026025               2.7920
        37                          0.1126281               3.0648
        38                          0.1139268               3.1001
        39                          0.1166292               3.1736
       ...                                ...                  ...
        55                          0.4115653              11.1993
      -------------------------------------------------------------
                  HL-Gap            0.1049010 Eh            2.8545 eV
             Fermi-level           -0.2598645 Eh           -7.0713 eV

     #   Z          covCN         q      C6AA      α(0)
     1   6 C        3.806    -0.052    21.500     6.601
     2   6 C        3.806    -0.054    21.543     6.607
     3   6 C        3.880    -0.046    21.352     6.570
     4   1 H        0.926     0.013     2.842     2.636
     5   6 C        3.806    -0.053    21.528     6.605
     6   1 H        0.924     0.045     2.380     2.413
     7   1 H        0.924     0.028     2.616     2.529
     8   6 C        3.879    -0.046    21.345     6.569
     9   1 H        0.924     0.041     2.441     2.443
    10   1 H        0.924     0.022     2.705     2.572
    11   6 C        3.796     0.078    19.286     6.253
    12   1 H        0.924     0.020     2.729     2.584
    13   1 H        0.923     0.047     2.357     2.401
    14   1 H        0.924     0.032     2.553     2.499
    15   1 H        0.924     0.052     2.299     2.371
    16   1 H        0.924     0.028     2.612     2.528
    17   1 H        0.924     0.050     2.325     2.385
    18  35 Br       1.063    -0.219   191.150    22.292
    19   6 C        3.603     0.203    17.884     6.114
    20   8 O        0.855    -0.829    32.485     7.642
    21   1 H        0.916    -0.119     6.267     3.915
    22   1 H        0.916    -0.121     6.379     3.950
    23   1 H        0.916    -0.119     6.283     3.920

 Mol. C6AA /au·bohr⁶  :       5800.797983
 Mol. C8AA /au·bohr⁸  :     154130.302099
 Mol. α(0) /au        :        114.400017


Wiberg/Mayer (AO) data.
largest (>0.10) Wiberg bond orders for each atom

 ---------------------------------------------------------------------------
     #   Z sym  total        # sym  WBO       # sym  WBO       # sym  WBO
 ---------------------------------------------------------------------------
     1   6 C    3.997 --     2 C    1.009     8 C    1.009    16 H    0.977
                            17 H    0.973
     2   6 C    3.998 --     5 C    1.009     1 C    1.009    10 H    0.978
                             9 H    0.977
     3   6 C    3.994 --    11 C    1.013     5 C    1.009     7 H    0.977
                             6 H    0.959
     4   1 H    1.000 --    11 C    0.976
     5   6 C    3.997 --     2 C    1.009     3 C    1.009    14 H    0.977
                            15 H    0.973
     6   1 H    0.998 --     3 C    0.959
     7   1 H    0.999 --     3 C    0.977
     8   6 C    3.994 --    11 C    1.014     1 C    1.009    12 H    0.977
                            13 H    0.950
     9   1 H    0.998 --     2 C    0.977
    10   1 H    1.000 --     2 C    0.978
    11   6 C    3.943 --     8 C    1.014     3 C    1.013     4 H    0.976
                            18 Br   0.901
    12   1 H    1.000 --     8 C    0.977
    13   1 H    0.998 --     8 C    0.950
    14   1 H    0.999 --     5 C    0.977
    15   1 H    0.997 --     5 C    0.973
    16   1 H    0.999 --     1 C    0.977
    17   1 H    0.997 --     1 C    0.973
    18  35 Br   0.976 --    11 C    0.901
    19   6 C    3.977 --    20 O    1.170    23 H    0.935    21 H    0.935
                            22 H    0.934
    20   8 O    1.350 --    19 C    1.170
    21   1 H    0.986 --    19 C    0.935
    22   1 H    0.985 --    19 C    0.934
    23   1 H    0.986 --    19 C    0.935
 ---------------------------------------------------------------------------

Topologies differ in total number of bonds
Writing topology from bond orders to xtbtopo.mol

molecular dipole:
                 x           y           z       tot (Debye)
 q only:       -4.123       2.024       7.730
   full:       -2.989       1.579       6.280      18.128
molecular quadrupole (traceless):
                xx          xy          yy          xz          yz          zz
 q only:        7.689      15.828      40.955      60.739     -25.424     -48.645
  q+dip:        0.580      13.733      39.301      57.077     -21.058     -39.881
   full:        0.886      13.530      39.013      56.489     -20.752     -39.898


           -------------------------------------------------
          | TOTAL ENERGY              -30.577954556717 Eh   |
          | GRADIENT NORM               0.000153599627 Eh/α |
          | HOMO-LUMO GAP               2.854502353077 eV   |
           -------------------------------------------------

------------------------------------------------------------------------
 * finished run on 2021/11/10 at 02:29:42.457     
------------------------------------------------------------------------
 total:
 * wall-time:     0 d,  0 h,  0 min,  0.055 sec
 *  cpu-time:     0 d,  0 h,  0 min,  0.418 sec
 * ratio c/w:     7.578 speedup
 SCF:
 * wall-time:     0 d,  0 h,  0 min,  0.039 sec
 *  cpu-time:     0 d,  0 h,  0 min,  0.285 sec
 * ratio c/w:     7.361 speedup


-------------------------   --------------------
FINAL SINGLE POINT ENERGY       -30.577954556720
-------------------------   --------------------

------------------------------------------------------------------------------
                         ORCA GEOMETRY RELAXATION STEP
------------------------------------------------------------------------------

Reading the OPT-File                    .... done
Getting information on internals        .... done
Copying old internal coords+grads       .... done
Making the new internal coordinates     .... (new redundants).... done
Validating the new internal coordinates .... (new redundants).... done
Calculating the B-matrix                .... done
Calculating the G,G- and P matrices     .... done
Transforming gradient to internals      .... done
Projecting the internal gradient        .... done
Number of atoms                         ....  23
Number of internal coordinates          .... 141
Current Energy                          ....   -30.577954557 Eh
Current gradient norm                   ....     0.000153600 Eh/bohr
Maximum allowed component of the step   ....  0.300
Current trust radius                    ....  0.300
Evaluating the initial hessian          ....  (Almloef) done
Projecting the Hessian                  .... done
Forming the augmented Hessian           .... done
Diagonalizing the augmented Hessian     .... done
Last element of RFO vector              ....  0.999999321
Lowest eigenvalues of augmented Hessian:
 -0.000000051  0.008855163  0.014120654  0.015861197  0.022942841
Length of the computed step             ....  0.001165691
The final length of the internal step   ....  0.001165691
Converting the step to cartesian space:
 Initial RMS(Int)=    0.0000981689
Transforming coordinates:
 Iter   0:  RMS(Cart)=    0.0002190772 RMS(Int)=    0.0000981704
 Iter   1:  RMS(Cart)=    0.0000000254 RMS(Int)=    0.0000000165
done
Storing new coordinates                 .... done

                                .--------------------.
          ----------------------|Geometry convergence|-------------------------
          Item                value                   Tolerance       Converged
          ---------------------------------------------------------------------
          RMS gradient        0.0000061619            0.0001000000      YES
          MAX gradient        0.0000328359            0.0003000000      YES
          RMS step            0.0000981689            0.0020000000      YES
          MAX step            0.0005203639            0.0040000000      YES
          ........................................................
          Max(Bonds)      0.0003      Max(Angles)    0.01
          Max(Dihed)        0.02      Max(Improp)    0.00
          ---------------------------------------------------------------------

                    ***********************HURRAY********************
                    ***        THE OPTIMIZATION HAS CONVERGED     ***
                    *************************************************


    ---------------------------------------------------------------------------
                         Redundant Internal Coordinates

                          --- Optimized Parameters ---  
                            (Angstroem and degrees)

        Definition                    OldVal   dE/dq     Step     FinalVal
    ----------------------------------------------------------------------------
     1. B(C   1,C   0)                1.5255  0.000002  0.0000    1.5255   
     2. B(C   4,C   1)                1.5256  0.000002  0.0000    1.5256   
     3. B(C   4,C   2)                1.5251 -0.000000  0.0000    1.5251   
     4. B(H   5,C   2)                1.0959  0.000003 -0.0000    1.0959   
     5. B(H   6,C   2)                1.0943 -0.000001  0.0000    1.0943   
     6. B(C   7,C   0)                1.5245 -0.000002  0.0000    1.5245   
     7. B(H   8,C   1)                1.0919  0.000001 -0.0000    1.0919   
     8. B(H   9,C   1)                1.0934 -0.000001  0.0000    1.0934   
     9. B(C  10,C   7)                1.5139 -0.000003 -0.0000    1.5139   
    10. B(C  10,H   3)                1.0925  0.000002 -0.0000    1.0925   
    11. B(C  10,C   2)                1.5152 -0.000002 -0.0000    1.5152   
    12. B(H  11,C   7)                1.0946  0.000001 -0.0000    1.0946   
    13. B(H  12,C   7)                1.0990 -0.000004  0.0000    1.0990   
    14. B(H  13,C   4)                1.0916 -0.000001  0.0000    1.0916   
    15. B(H  14,C   4)                1.0942  0.000001 -0.0000    1.0942   
    16. B(H  15,C   0)                1.0919 -0.000001  0.0000    1.0919   
    17. B(H  16,C   0)                1.0946  0.000000 -0.0000    1.0946   
    18. B(Br 17,C  10)                1.9539 -0.000003  0.0000    1.9539   
    19. B(O  19,H  12)                2.1702 -0.000003 -0.0000    2.1702   
    20. B(O  19,H   5)                2.3303  0.000004 -0.0003    2.3301   
    21. B(O  19,C  18)                1.3133 -0.000033  0.0000    1.3134   
    22. B(H  20,C  18)                1.1350  0.000005 -0.0000    1.1349   
    23. B(H  21,C  18)                1.1362  0.000010 -0.0000    1.1361   
    24. B(H  22,C  18)                1.1344  0.000009 -0.0000    1.1344   
    25. A(C   7,C   0,H  15)          109.19 -0.000002    0.00    109.19   
    26. A(H  15,C   0,H  16)          108.05  0.000002   -0.00    108.05   
    27. A(C   1,C   0,H  15)          110.19  0.000002   -0.00    110.18   
    28. A(C   7,C   0,H  16)          109.57 -0.000003    0.00    109.57   
    29. A(C   1,C   0,H  16)          109.70 -0.000001    0.00    109.70   
    30. A(C   1,C   0,C   7)          110.11  0.000002   -0.00    110.11   
    31. A(C   0,C   1,H   8)          110.12 -0.000000   -0.00    110.12   
    32. A(H   8,C   1,H   9)          108.64 -0.000002    0.00    108.64   
    33. A(C   4,C   1,H   8)          110.16  0.000002   -0.00    110.16   
    34. A(C   4,C   1,H   9)          108.91  0.000003   -0.00    108.91   
    35. A(C   0,C   1,C   4)          110.16 -0.000005    0.00    110.16   
    36. A(C   0,C   1,H   9)          108.80  0.000002   -0.00    108.80   
    37. A(C   4,C   2,H   5)          110.32  0.000007   -0.00    110.31   
    38. A(C   4,C   2,C  10)          111.78 -0.000006   -0.00    111.78   
    39. A(H   5,C   2,H   6)          108.38 -0.000003    0.00    108.38   
    40. A(H   6,C   2,C  10)          110.56  0.000003    0.00    110.56   
    41. A(C   4,C   2,H   6)          110.66 -0.000001    0.00    110.66   
    42. A(H   5,C   2,C  10)          104.94  0.000000    0.00    104.94   
    43. A(H  13,C   4,H  14)          108.08  0.000002   -0.00    108.08   
    44. A(C   1,C   4,H  14)          109.66 -0.000002    0.00    109.66   
    45. A(C   2,C   4,H  13)          109.21 -0.000002   -0.00    109.21   
    46. A(C   1,C   4,H  13)          110.16  0.000001   -0.00    110.16   
    47. A(C   2,C   4,H  14)          109.58 -0.000003    0.00    109.58   
    48. A(C   1,C   4,C   2)          110.12  0.000004   -0.00    110.12   
    49. A(C   2,H   5,O  19)          140.54 -0.000011    0.01    140.55   
    50. A(H  11,C   7,H  12)          108.29 -0.000003    0.00    108.29   
    51. A(C  10,C   7,H  12)          104.55  0.000002   -0.00    104.55   
    52. A(C   0,C   7,H  12)          110.49  0.000003   -0.00    110.49   
    53. A(C  10,C   7,H  11)          110.68 -0.000000    0.00    110.68   
    54. A(C   0,C   7,H  11)          110.74 -0.000000    0.00    110.75   
    55. A(C   0,C   7,C  10)          111.86 -0.000003   -0.00    111.86   
    56. A(C   2,C  10,H   3)          110.27 -0.000003    0.00    110.27   
    57. A(H   3,C  10,C   7)          110.19 -0.000001    0.00    110.19   
    58. A(C   7,C  10,Br 17)          110.20 -0.000005    0.00    110.20   
    59. A(H   3,C  10,Br 17)          104.47  0.000003   -0.00    104.47   
    60. A(C   2,C  10,Br 17)          110.05 -0.000001   -0.00    110.05   
    61. A(C   2,C  10,C   7)          111.45  0.000007   -0.00    111.44   
    62. A(C   7,H  12,O  19)          146.10 -0.000009    0.00    146.11   
    63. A(H  21,C  18,H  22)          104.34 -0.000022    0.00    104.35   
    64. A(H  20,C  18,H  22)          104.44 -0.000013    0.00    104.44   
    65. A(O  19,C  18,H  22)          114.14  0.000020   -0.00    114.14   
    66. A(H  20,C  18,H  21)          104.36  0.000004   -0.00    104.35   
    67. A(O  19,C  18,H  21)          114.18  0.000014   -0.00    114.18   
    68. A(O  19,C  18,H  20)          114.22 -0.000007    0.00    114.22   
    69. A(H   5,O  19,H  12)           66.50  0.000008   -0.00     66.50   
    70. A(H  12,O  19,C  18)          124.85 -0.000012    0.00    124.85   
    71. A(H   5,O  19,C  18)          168.65  0.000004   -0.00    168.65   
    72. D(H   9,C   1,C   0,H  15)     59.56 -0.000001   -0.00     59.56   
    73. D(H   8,C   1,C   0,C   7)   -179.91  0.000000   -0.00   -179.91   
    74. D(H   9,C   1,C   0,H  16)    178.40  0.000002   -0.00    178.39   
    75. D(H   8,C   1,C   0,H  15)    -59.41  0.000000   -0.00    -59.41   
    76. D(C   4,C   1,C   0,H  15)    178.88  0.000000   -0.00    178.88   
    77. D(H   9,C   1,C   0,C   7)    -60.94 -0.000001   -0.00    -60.94   
    78. D(C   4,C   1,C   0,C   7)     58.38  0.000000   -0.00     58.38   
    79. D(H   8,C   1,C   0,H  16)     59.42  0.000003   -0.00     59.42   
    80. D(C   4,C   1,C   0,H  16)    -62.28  0.000003   -0.01    -62.29   
    81. D(C   2,C   4,C   1,H   9)     60.82  0.000000    0.00     60.83   
    82. D(H  13,C   4,C   2,C  10)    177.38  0.000001   -0.00    177.38   
    83. D(C   2,C   4,C   1,H   8)    179.88  0.000000    0.00    179.89   
    84. D(H  13,C   4,C   2,H   5)     61.02  0.000001   -0.00     61.02   
    85. D(H  14,C   4,C   2,H   6)     59.30  0.000000   -0.00     59.30   
    86. D(C   1,C   4,C   2,H   6)   -180.00 -0.000002    0.00   -180.00   
    87. D(H  13,C   4,C   1,H   8)     59.37 -0.000001    0.00     59.37   
    88. D(H  14,C   4,C   1,H   9)   -178.53 -0.000003    0.01   -178.52   
    89. D(H  14,C   4,C   1,H   8)    -59.46 -0.000002    0.01    -59.46   
    90. D(C   2,C   4,C   1,C   0)    -58.43 -0.000001    0.00    -58.43   
    91. D(C   1,C   4,C   2,C  10)     56.29 -0.000001    0.00     56.29   
    92. D(H  13,C   4,C   1,H   9)    -59.69 -0.000001    0.01    -59.69   
    93. D(H  13,C   4,C   1,C   0)   -178.95 -0.000002    0.01   -178.94   
    94. D(H  14,C   4,C   2,H   5)    179.23  0.000000   -0.00    179.23   
    95. D(H  14,C   4,C   1,C   0)     62.22 -0.000004    0.01     62.23   
    96. D(H  14,C   4,C   2,C  10)    -64.41  0.000001   -0.00    -64.41   
    97. D(H  13,C   4,C   2,H   6)    -58.91  0.000001   -0.00    -58.91   
    98. D(C   1,C   4,C   2,H   5)    -60.07 -0.000002    0.00    -60.07   
    99. D(O  19,H   5,C   2,C  10)     -7.30 -0.000005    0.00     -7.29   
   100. D(O  19,H   5,C   2,H   6)   -125.45 -0.000007    0.00   -125.44   
   101. D(O  19,H   5,C   2,C   4)    113.25 -0.000008    0.00    113.26   
   102. D(C  10,C   7,C   0,C   1)    -56.26 -0.000000   -0.00    -56.26   
   103. D(H  12,C   7,C   0,H  15)    -61.32  0.000001   -0.00    -61.32   
   104. D(H  12,C   7,C   0,C   1)     59.78  0.000003   -0.00     59.78   
   105. D(H  11,C   7,C   0,H  16)    -59.49  0.000001   -0.00    -59.49   
   106. D(H  11,C   7,C   0,H  15)     58.67 -0.000000   -0.00     58.66   
   107. D(H  11,C   7,C   0,C   1)    179.76  0.000002   -0.00    179.76   
   108. D(C  10,C   7,C   0,H  16)     64.49 -0.000001   -0.00     64.49   
   109. D(H  12,C   7,C   0,H  16)   -179.48  0.000002   -0.00   -179.48   
   110. D(C  10,C   7,C   0,H  15)   -177.35 -0.000003   -0.00   -177.36   
   111. D(Br 17,C  10,C   7,H  12)    171.89 -0.000004    0.01    171.90   
   112. D(Br 17,C  10,C   7,H  11)     55.49 -0.000002    0.01     55.50   
   113. D(H   3,C  10,C   7,H  12)     57.12 -0.000004    0.01     57.13   
   114. D(H   3,C  10,C   7,H  11)    -59.27 -0.000003    0.01    -59.26   
   115. D(H   3,C  10,C   7,C   0)    176.71 -0.000000    0.01    176.72   
   116. D(C   2,C  10,C   7,H  12)    -65.63 -0.000004    0.01    -65.62   
   117. D(C   2,C  10,C   7,H  11)    177.98 -0.000002    0.01    177.99   
   118. D(C   2,C  10,C   7,C   0)     53.96  0.000000    0.01     53.97   
   119. D(Br 17,C  10,C   2,H   6)    -55.16  0.000002   -0.01    -55.17   
   120. D(Br 17,C  10,C   2,H   5)   -171.82  0.000004   -0.01   -171.82   
   121. D(Br 17,C  10,C   2,C   4)     68.61 -0.000001   -0.01     68.60   
   122. D(C   7,C  10,C   2,H   6)   -177.73  0.000005   -0.01   -177.73   
   123. D(C   7,C  10,C   2,H   5)     65.62  0.000007   -0.01     65.61   
   124. D(C   7,C  10,C   2,C   4)    -53.96  0.000002   -0.01    -53.97   
   125. D(Br 17,C  10,C   7,C   0)    -68.52  0.000000    0.01    -68.51   
   126. D(H   3,C  10,C   2,H   6)     59.57  0.000004   -0.01     59.56   
   127. D(H   3,C  10,C   2,H   5)    -57.09  0.000006   -0.01    -57.10   
   128. D(H   3,C  10,C   2,C   4)   -176.66  0.000001   -0.01   -176.67   
   129. D(O  19,H  12,C   7,H  11)    120.22 -0.000005    0.00    120.23   
   130. D(O  19,H  12,C   7,C  10)      2.18 -0.000005    0.00      2.19   
   131. D(O  19,H  12,C   7,C   0)   -118.33 -0.000005    0.00   -118.32   
   132. D(C  18,O  19,H  12,C   7)   -146.50  0.000004   -0.00   -146.51   
   133. D(H  12,O  19,H   5,C   2)    -29.62  0.000004   -0.00    -29.62   
   134. D(C  18,O  19,H   5,C   2)    151.81  0.000002   -0.00    151.81   
   135. D(H  12,O  19,C  18,H  22)    155.51 -0.000014    0.02    155.53   
   136. D(H  12,O  19,C  18,H  21)     35.59 -0.000010    0.01     35.61   
   137. D(H  12,O  19,C  18,H  20)    -84.41 -0.000021    0.02    -84.39   
   138. D(H   5,O  19,C  18,H  22)    -26.08 -0.000012    0.01    -26.07   
   139. D(H   5,O  19,C  18,H  21)   -146.00 -0.000008    0.01   -145.99   
   140. D(H   5,O  19,C  18,H  20)     94.00 -0.000019    0.02     94.02   
   141. D(H   5,O  19,H  12,C   7)     33.84  0.000003   -0.00     33.84   
    ----------------------------------------------------------------------------
                 *******************************************************
                 *** FINAL ENERGY EVALUATION AT THE STATIONARY POINT ***
                 ***               (AFTER    1 CYCLES)               ***
                 *******************************************************
      -----------------------------------------------------------      
     |                   =====================                   |     
     |                           x T B                           |     
     |                   =====================                   |     
     |                         S. Grimme                         |     
     |          Mulliken Center for Theoretical Chemistry        |     
     |                    University of Bonn                     |     
      -----------------------------------------------------------      

   * xtb version 6.3.2 (30e43eb) compiled by 'schneider@apollo14' on 2020-08-08

   xtb is free software: you can redistribute it and/or modify it under
   the terms of the GNU Lesser General Public License as published by
   the Free Software Foundation, either version 3 of the License, or
   (at your option) any later version.
   
   xtb is distributed in the hope that it will be useful,
   but WITHOUT ANY WARRANTY; without even the implied warranty of
   MERCHANTABILITY or FITNESS FOR A PARTICULAR PURPOSE.  See the
   GNU Lesser General Public License for more details.
   
   Cite this work as:
   * S. Grimme, C. Bannwarth, P. Shushkov, J. Chem. Theory Comput., 2017,
     13, 1989-2009. DOI: 10.1021/acs.jctc.7b00118
   * C. Bannwarth, S. Ehlert and S. Grimme., J. Chem. Theory Comput., 2019,
     15, 1652-1671. DOI: 10.1021/acs.jctc.8b01176
   * P. Pracht, E. Caldeweyher, S. Ehlert, S. Grimme, ChemRxiv, 2019, preprint.
     DOI: 10.26434/chemrxiv.8326202.v1
   
   for GFN-FF:
   * S. Spicher and S. Grimme, Angew. Chem. Int. Ed., 2020,
     DOI: 10.1002/anie.202004239
   
   for DFT-D4:
   * E. Caldeweyher, C. Bannwarth and S. Grimme, J. Chem. Phys., 2017,
     147, 034112. DOI: 10.1063/1.4993215
   * E. Caldeweyher, S. Ehlert, A. Hansen, H. Neugebauer, S. Spicher,
     C. Bannwarth and S. Grimme, J. Chem. Phys., 2019, 150, 154122.
     DOI: 10.1063/1.5090222
   
   for sTDA-xTB:
   * S. Grimme and C. Bannwarth, J. Chem. Phys., 2016, 145, 054103.
     DOI: 10.1063/1.4959605
   
   in the mass-spec context:
   * V. Asgeirsson, C. Bauer and S. Grimme, Chem. Sci., 2017, 8, 4879.
     DOI: 10.1039/c7sc00601b
   * J. Koopman and S. Grimme, ACS Omega 2019, 4, 12, 15120-15133.
     DOI: 10.1021/acsomega.9b02011
   
   for metadynamics refer to:
   * S. Grimme, J. Chem. Theory Comput., 2019, 155, 2847-2862
     DOI: 10.1021/acs.jctc.9b00143
   
   with help from (in alphabetical order)
   C. Bannwarth, F. Bohle, G. Brandenburg, E. Caldeweyher, M. Checinski,
   S. Dohm, S. Ehlert, S. Ehrlich, F. März, H. Neugebauer, J. Pisarek,
   P. Pracht, P. Shushkov, and S. Spicher.
   
 * started run on 2021/11/10 at 02:29:42.745     

           -------------------------------------------------
          |                Calculation Setup                |
           -------------------------------------------------

          program call               : /opt/orca/otool_xtb optts+numfreq_reactant_XTB.xyz --grad -c -1 -u 0 -P 6 --namespace optts+numfreq_reactant --gbsa methanol
          calculation namespace      : optts+numfreq_reactant
          coordinate file            : optts+numfreq_reactant_XTB.xyz
          omp threads                :                     6
          number of atoms            :                    23
          number of electrons        :                    56
          charge                     :                    -1
          spin                       :                   0.0
          first test random number   :      0.97765380792123

   ID    Z sym.   atoms
    1    6 C      1-3, 5, 8, 11, 19
    2    1 H      4, 6, 7, 9, 10, 12-17, 21-23
    3   35 Br     18
    4    8 O      20

molecular fragmentation (1/2 indicates fragments):
11111111111111111122222
# atoms in fragment 1/2:    18     5
 fragment masses (1/2) :      163.06       31.03
CMA distance (Bohr)    :   9.056
constraining FC (au)   :  0.0500
########################################################################
[WARNING] Please study the warnings concerning your input carefully
-1- prog_main_parseArguments: Process number higher than OMP_NUM_THREADS, I hope you know what you are doing.
########################################################################

           -------------------------------------------------
          |                 G F N 2 - x T B                 |
           -------------------------------------------------

        Reference                      10.1021/acs.jctc.8b01176
      * Hamiltonian:
        H0-scaling (s, p, d)           1.850000    2.230000    2.230000
        zeta-weighting                 0.500000
      * Dispersion:
        s8                             2.700000
        a1                             0.520000
        a2                             5.000000
        s9                             5.000000
      * Repulsion:
        kExp                           1.500000    1.000000
        rExp                           1.000000
      * Coulomb:
        alpha                          2.000000
        third order                    shell-resolved
        anisotropic                    true
        a3                             3.000000
        a5                             4.000000
        cn-shift                       1.200000
        cn-exp                         4.000000
        max-rad                        5.000000

      * Solvation model:               GBSA
        Solvent                        methanol
        Parameter file                 internal GFN2-xTB/GBSA
        Dielectric constant                3.2700E+01
        Reference state                gsolv [1 M gas/solution]
        Free energy shift                  3.3569E-03 Eh       2.1065E+00 kcal/mol
        Temperature                        2.9815E+02 K
        Density                            7.9200E-01 kg/L
        Solvent mass                       3.2040E+01 g/mol
        Interaction kernel             Still
        Born radius scaling (c1)           1.6087E+00
        Born radii integrator          GBOBC
        Born offset                        5.6550E-04 a0       1.0686E-03 AA
        H-bond correction              true
        Ion screening                  false
        Surface tension                    1.0000E-05 Eh       1.5569E+01 dyn/cm
        Grid points                               230 per atom
q/qsh data taken from xtbrestart
CAMM data taken from xtbrestart

          ...................................................
          :                      SETUP                      :
          :.................................................:
          :  # basis functions                  56          :
          :  # atomic orbitals                  55          :
          :  # shells                           33          :
          :  # electrons                        56          :
          :  max. iterations                   250          :
          :  Hamiltonian                  GFN2-xTB          :
          :  restarted?                       true          :
          :  GBSA solvation                   true          :
          :  PC potential                    false          :
          :  electronic temp.          300.0000000     K    :
          :  accuracy                    1.0000000          :
          :  -> integral cutoff          0.2500000E+02      :
          :  -> integral neglect         0.1000000E-07      :
          :  -> SCF convergence          0.1000000E-05 Eh   :
          :  -> wf. convergence          0.1000000E-03 e    :
          :  Broyden damping             0.4000000          :
          ...................................................

 iter      E             dE          RMSdq      gap      omega  full diag
   1    -30.8372706 -0.308373E+02  0.501E+00    5.55       0.0  T
   2    -30.8800000 -0.427294E-01  0.247E+00    5.23       1.0  T
   3    -30.8958464 -0.158464E-01  0.112E+00    2.75       1.0  T
   4    -30.8973873 -0.154088E-02  0.617E-01    3.11       1.0  T
   5    -30.8985974 -0.121009E-02  0.341E-01    2.88       1.0  T
   6    -30.8988482 -0.250784E-03  0.244E-01    2.91       1.0  T
   7    -30.8990821 -0.233982E-03  0.111E-01    2.90       1.0  T
   8    -30.8991315 -0.493077E-04  0.524E-02    2.90       1.0  T
   9    -30.8991375 -0.608451E-05  0.118E-02    2.85       1.8  T
  10    -30.8991382 -0.689848E-06  0.440E-03    2.85       4.7  T
  11    -30.8991383 -0.334577E-07  0.122E-03    2.85      17.1  T
  12    -30.8991383 -0.478834E-08  0.577E-04    2.85      36.1  T
  13    -30.8991383 -0.101273E-08  0.286E-04    2.85      72.9  T

   *** convergence criteria satisfied after 13 iterations ***

         #    Occupation            Energy/Eh            Energy/eV
      -------------------------------------------------------------
         1        2.0000           -0.8321185             -22.6431
       ...           ...                  ...                  ...
        22        2.0000           -0.4232605             -11.5175
        23        2.0000           -0.4220729             -11.4852
        24        2.0000           -0.4187828             -11.3957
        25        2.0000           -0.4005065             -10.8983
        26        2.0000           -0.3985838             -10.8460
        27        2.0000           -0.3126937              -8.5088
        28        2.0000           -0.3123087              -8.4984 (HOMO)
        29                         -0.2074139              -5.6440 (LUMO)
        30                          0.0380013               1.0341
        31                          0.0402796               1.0961
        32                          0.0473476               1.2884
        33                          0.0585226               1.5925
       ...                                ...                  ...
        55                          0.4115636              11.1992
      -------------------------------------------------------------
                  HL-Gap            0.1048948 Eh            2.8543 eV
             Fermi-level           -0.2598613 Eh           -7.0712 eV

 SCC (total)                   0 d,  0 h,  0 min,  0.026 sec
 SCC setup                      ...        0 min,  0.001 sec (  5.229%)
 Dispersion                     ...        0 min,  0.000 sec (  0.540%)
 classical contributions        ...        0 min,  0.000 sec (  0.600%)
 integral evaluation            ...        0 min,  0.004 sec ( 15.317%)
 iterations                     ...        0 min,  0.014 sec ( 55.436%)
 molecular gradient             ...        0 min,  0.006 sec ( 21.964%)
 printout                       ...        0 min,  0.000 sec (  0.859%)

         :::::::::::::::::::::::::::::::::::::::::::::::::::::
         ::                     SUMMARY                     ::
         :::::::::::::::::::::::::::::::::::::::::::::::::::::
         :: total energy             -30.577954604381 Eh    ::
         :: total w/o Gsasa/hb       -30.566898741664 Eh    ::
         :: gradient norm              0.000145338182 Eh/a0 ::
         :: HOMO-LUMO gap              2.854332279079 eV    ::
         ::.................................................::
         :: SCC energy               -30.899138267609 Eh    ::
         :: -> isotropic ES            0.214580540446 Eh    ::
         :: -> anisotropic ES         -0.014969639049 Eh    ::
         :: -> anisotropic XC         -0.012091505975 Eh    ::
         :: -> dispersion             -0.018996134132 Eh    ::
         :: -> Gsolv                  -0.113494560668 Eh    ::
         ::    -> Gborn               -0.102438697951 Eh    ::
         ::    -> Gsasa               -0.012217337539 Eh    ::
         ::    -> Ghb                 -0.002195454700 Eh    ::
         ::    -> Gshift               0.003356929523 Eh    ::
         :: repulsion energy           0.321047921501 Eh    ::
         :: add. restraining           0.000000000000 Eh    ::
         :: total charge              -1.000000000000 e     ::
         :::::::::::::::::::::::::::::::::::::::::::::::::::::

           -------------------------------------------------
          |                Property Printout                |
           -------------------------------------------------

    * Orbital Energies and Occupations

         #    Occupation            Energy/Eh            Energy/eV
      -------------------------------------------------------------
         1        2.0000           -0.8321185             -22.6431
       ...           ...                  ...                  ...
        16        2.0000           -0.4802575             -13.0685
        17        2.0000           -0.4768991             -12.9771
        18        2.0000           -0.4700828             -12.7916
        19        2.0000           -0.4489979             -12.2179
        20        2.0000           -0.4390353             -11.9468
        21        2.0000           -0.4377209             -11.9110
        22        2.0000           -0.4232605             -11.5175
        23        2.0000           -0.4220729             -11.4852
        24        2.0000           -0.4187828             -11.3957
        25        2.0000           -0.4005065             -10.8983
        26        2.0000           -0.3985838             -10.8460
        27        2.0000           -0.3126937              -8.5088
        28        2.0000           -0.3123087              -8.4984 (HOMO)
        29                         -0.2074139              -5.6440 (LUMO)
        30                          0.0380013               1.0341
        31                          0.0402796               1.0961
        32                          0.0473476               1.2884
        33                          0.0585226               1.5925
        34                          0.0864905               2.3535
        35                          0.0956338               2.6023
        36                          0.1026010               2.7919
        37                          0.1126334               3.0649
        38                          0.1139357               3.1003
        39                          0.1166315               3.1737
       ...                                ...                  ...
        55                          0.4115636              11.1992
      -------------------------------------------------------------
                  HL-Gap            0.1048948 Eh            2.8543 eV
             Fermi-level           -0.2598613 Eh           -7.0712 eV

     #   Z          covCN         q      C6AA      α(0)
     1   6 C        3.806    -0.052    21.500     6.601
     2   6 C        3.806    -0.054    21.543     6.607
     3   6 C        3.880    -0.046    21.352     6.570
     4   1 H        0.926     0.013     2.842     2.636
     5   6 C        3.806    -0.053    21.528     6.605
     6   1 H        0.924     0.045     2.380     2.413
     7   1 H        0.924     0.028     2.616     2.529
     8   6 C        3.879    -0.046    21.345     6.569
     9   1 H        0.924     0.041     2.441     2.443
    10   1 H        0.924     0.022     2.705     2.572
    11   6 C        3.796     0.078    19.286     6.253
    12   1 H        0.924     0.020     2.729     2.584
    13   1 H        0.923     0.047     2.356     2.401
    14   1 H        0.924     0.032     2.553     2.499
    15   1 H        0.924     0.052     2.299     2.371
    16   1 H        0.924     0.028     2.612     2.528
    17   1 H        0.924     0.050     2.325     2.385
    18  35 Br       1.063    -0.219   191.150    22.292
    19   6 C        3.603     0.203    17.884     6.114
    20   8 O        0.855    -0.829    32.486     7.642
    21   1 H        0.916    -0.119     6.267     3.915
    22   1 H        0.916    -0.121     6.379     3.950
    23   1 H        0.916    -0.119     6.282     3.920

 Mol. C6AA /au·bohr⁶  :       5800.757471
 Mol. C8AA /au·bohr⁸  :     154129.670993
 Mol. α(0) /au        :        114.399573


Wiberg/Mayer (AO) data.
largest (>0.10) Wiberg bond orders for each atom

 ---------------------------------------------------------------------------
     #   Z sym  total        # sym  WBO       # sym  WBO       # sym  WBO
 ---------------------------------------------------------------------------
     1   6 C    3.997 --     2 C    1.009     8 C    1.009    16 H    0.977
                            17 H    0.973
     2   6 C    3.998 --     5 C    1.009     1 C    1.009    10 H    0.978
                             9 H    0.977
     3   6 C    3.994 --    11 C    1.013     5 C    1.009     7 H    0.977
                             6 H    0.959
     4   1 H    1.000 --    11 C    0.976
     5   6 C    3.997 --     2 C    1.009     3 C    1.009    14 H    0.977
                            15 H    0.973
     6   1 H    0.998 --     3 C    0.959
     7   1 H    0.999 --     3 C    0.977
     8   6 C    3.994 --    11 C    1.014     1 C    1.009    12 H    0.977
                            13 H    0.950
     9   1 H    0.998 --     2 C    0.977
    10   1 H    1.000 --     2 C    0.978
    11   6 C    3.943 --     8 C    1.014     3 C    1.013     4 H    0.976
                            18 Br   0.901
    12   1 H    1.000 --     8 C    0.977
    13   1 H    0.998 --     8 C    0.950
    14   1 H    0.999 --     5 C    0.977
    15   1 H    0.997 --     5 C    0.973
    16   1 H    0.999 --     1 C    0.977
    17   1 H    0.997 --     1 C    0.973
    18  35 Br   0.976 --    11 C    0.901
    19   6 C    3.977 --    20 O    1.170    23 H    0.935    21 H    0.935
                            22 H    0.934
    20   8 O    1.350 --    19 C    1.170
    21   1 H    0.986 --    19 C    0.935
    22   1 H    0.985 --    19 C    0.934
    23   1 H    0.986 --    19 C    0.935
 ---------------------------------------------------------------------------

Topologies differ in total number of bonds
Writing topology from bond orders to xtbtopo.mol

molecular dipole:
                 x           y           z       tot (Debye)
 q only:       -4.123       2.024       7.730
   full:       -2.990       1.578       6.280      18.127
molecular quadrupole (traceless):
                xx          xy          yy          xz          yz          zz
 q only:        7.687      15.826      40.954      60.737     -25.420     -48.641
  q+dip:        0.580      13.733      39.299      57.077     -21.055     -39.879
   full:        0.885      13.529      39.011      56.488     -20.750     -39.896


           -------------------------------------------------
          | TOTAL ENERGY              -30.577954604381 Eh   |
          | GRADIENT NORM               0.000145338182 Eh/α |
          | HOMO-LUMO GAP               2.854332279079 eV   |
           -------------------------------------------------

------------------------------------------------------------------------
 * finished run on 2021/11/10 at 02:29:42.790     
------------------------------------------------------------------------
 total:
 * wall-time:     0 d,  0 h,  0 min,  0.045 sec
 *  cpu-time:     0 d,  0 h,  0 min,  0.355 sec
 * ratio c/w:     7.954 speedup
 SCF:
 * wall-time:     0 d,  0 h,  0 min,  0.026 sec
 *  cpu-time:     0 d,  0 h,  0 min,  0.203 sec
 * ratio c/w:     7.715 speedup


-------------------------   --------------------
FINAL SINGLE POINT ENERGY       -30.577954604380
-------------------------   --------------------

                                *** OPTIMIZATION RUN DONE ***

---------------------------------------------------------------
                        PRODUCT OPTIMIZATION            
---------------------------------------------------------------

Geometry optimization settings:
Update method            Update   .... BFGS
Choice of coordinates    CoordSys .... Z-matrix Internals
Initial Hessian          InHess   .... Almoef's Model

Convergence Tolerances:
Energy Change            TolE     ....  5.0000e-06 Eh
Max. Gradient            TolMAXG  ....  3.0000e-04 Eh/bohr
RMS Gradient             TolRMSG  ....  1.0000e-04 Eh/bohr
Max. Displacement        TolMAXD  ....  4.0000e-03 bohr
RMS Displacement         TolRMSD  ....  2.0000e-03 bohr
Strict Convergence                ....  False
------------------------------------------------------------------------------
                        ORCA OPTIMIZATION COORDINATE SETUP
------------------------------------------------------------------------------

The optimization will be done in new redundant internal coordinates
Making redundant internal coordinates   ...  (new redundants) done
Evaluating the initial hessian          ...  (Almloef) done
Evaluating the coordinates              ...  done
Calculating the B-matrix                .... done
Calculating the G-matrix                .... done
Diagonalizing the G-matrix              .... done
The first mode is                       ....   93
The number of degrees of freedom        ....   63

    -----------------------------------------------------------------
                    Redundant Internal Coordinates


    -----------------------------------------------------------------
         Definition                    Initial Value    Approx d2E/dq
    -----------------------------------------------------------------
      1. B(C   1,C   0)                  1.5254         0.379959   
      2. B(C   4,C   1)                  1.5253         0.380061   
      3. B(C   4,C   2)                  1.5258         0.379317   
      4. B(H   5,C   2)                  1.0924         0.356970   
      5. B(H   6,C   2)                  1.0922         0.357150   
      6. B(C   7,C   0)                  1.5250         0.380530   
      7. B(H   8,C   1)                  1.0914         0.358240   
      8. B(H   9,C   1)                  1.0918         0.357728   
      9. B(C  10,C   7)                  1.5291         0.374842   
     10. B(C  10,H   3)                  1.1042         0.341739   
     11. B(C  10,C   2)                  1.5326         0.370027   
     12. B(H  11,C   7)                  1.0912         0.358469   
     13. B(H  12,C   7)                  1.0913         0.358322   
     14. B(H  13,C   4)                  1.0919         0.357575   
     15. B(H  14,C   4)                  1.0937         0.355213   
     16. B(H  15,C   0)                  1.0914         0.358318   
     17. B(H  16,C   0)                  1.0931         0.356007   
     18. B(Br 17,H  14)                  4.8227         0.000001   
     19. B(Br 17,C  10)                  5.3028         0.000001   
     20. B(Br 17,H   6)                  5.2665         0.000000   
     21. B(Br 17,H   3)                  4.2544         0.000011   
     22. B(C  18,Br 17)                  5.2971         0.000001   
     23. B(O  19,C  18)                  1.4062         0.527265   
     24. B(O  19,C  10)                  1.4239         0.494028   
     25. B(H  20,Br 17)                  4.2923         0.000009   
     26. B(H  20,C  18)                  1.0975         0.350367   
     27. B(H  21,C  18)                  1.0957         0.352630   
     28. B(H  22,C  18)                  1.0888         0.361714   
     29. A(C   1,C   0,H  16)          109.3248         0.324613   
     30. A(C   1,C   0,C   7)          110.5063         0.365558   
     31. A(C   7,C   0,H  15)          109.5456         0.325038   
     32. A(C   7,C   0,H  16)          109.1048         0.324693   
     33. A(C   1,C   0,H  15)          110.2489         0.324958   
     34. A(H  15,C   0,H  16)          108.0635         0.290092   
     35. A(C   4,C   1,H   8)          109.7381         0.324961   
     36. A(C   0,C   1,H   9)          109.4174         0.324870   
     37. A(C   4,C   1,H   9)          109.3061         0.324884   
     38. A(H   8,C   1,H   9)          108.3077         0.290302   
     39. A(C   0,C   1,C   4)          110.1235         0.365481   
     40. A(C   0,C   1,H   8)          109.9175         0.324946   
     41. A(C   4,C   2,H   5)          110.3411         0.324667   
     42. A(C   4,C   2,C  10)          110.4615         0.363706   
     43. A(H   6,C   2,C  10)          109.7052         0.323374   
     44. A(C   4,C   2,H   6)          109.4892         0.324693   
     45. A(H   5,C   2,C  10)          108.4080         0.323348   
     46. A(H   5,C   2,H   6)          108.3993         0.290066   
     47. A(H  13,C   4,H  14)          107.7778         0.289896   
     48. A(C   2,C   4,H  13)          109.4559         0.324757   
     49. A(C   1,C   4,H  14)          109.5998         0.324508   
     50. A(C   1,C   4,H  13)          110.2610         0.324862   
     51. A(C   1,C   4,C   2)          110.8542         0.365375   
     52. A(C   2,C   4,H  14)          108.8257         0.324404   
     53. A(H  11,C   7,H  12)          108.0284         0.290406   
     54. A(C  10,C   7,H  12)          108.0100         0.324236   
     55. A(C   0,C   7,H  12)          110.3919         0.325039   
     56. A(C  10,C   7,H  11)          108.7281         0.324257   
     57. A(C   0,C   7,H  11)          110.7151         0.325061   
     58. A(C   0,C   7,C  10)          110.8726         0.364711   
     59. A(C   2,C  10,H   3)          108.8997         0.321046   
     60. A(C   7,C  10,Br 17)          125.2731         0.106015   
     61. A(H   3,C  10,Br 17)           16.3173         0.103411   
     62. A(C   2,C  10,Br 17)           96.9696         0.105965   
     63. A(H   3,C  10,C   7)          109.5974         0.321726   
     64. A(C   7,C  10,O  19)          106.8101         0.379084   
[...]
   8:        59.12    0.000000  (  0.000000   0.000000   0.000000)
   9:        89.48    0.000000  (  0.000000   0.000000   0.000000)
  10:       115.33    0.000000  (  0.000000   0.000000   0.000000)
  11:       145.21    0.000000  (  0.000000   0.000000   0.000000)
  12:       169.61    0.000000  (  0.000000   0.000000   0.000000)
  13:       198.08    0.000000  (  0.000000   0.000000   0.000000)
  14:       263.80    0.000000  (  0.000000   0.000000   0.000000)
  15:       285.50    0.000000  (  0.000000   0.000000   0.000000)
  16:       296.70    0.000000  (  0.000000   0.000000   0.000000)
  17:       367.63    0.000000  (  0.000000   0.000000   0.000000)
  18:       439.07    0.000000  (  0.000000   0.000000   0.000000)
  19:       452.86    0.000000  (  0.000000   0.000000   0.000000)
  20:       615.34    0.000000  (  0.000000   0.000000   0.000000)
  21:       810.30    0.000000  (  0.000000   0.000000   0.000000)
  22:       852.89    0.000000  (  0.000000   0.000000   0.000000)
  23:       878.89    0.000000  (  0.000000   0.000000   0.000000)
  24:       925.36    0.000000  (  0.000000   0.000000   0.000000)
  25:       927.19    0.000000  (  0.000000   0.000000   0.000000)
  26:       947.30    0.000000  (  0.000000   0.000000   0.000000)
  27:       994.79    0.000000  (  0.000000   0.000000   0.000000)
  28:      1077.72    0.000000  (  0.000000   0.000000   0.000000)
  29:      1088.48    0.000000  (  0.000000   0.000000   0.000000)
  30:      1096.84    0.000000  (  0.000000   0.000000   0.000000)
  31:      1105.06    0.000000  (  0.000000   0.000000   0.000000)
  32:      1114.35    0.000000  (  0.000000   0.000000   0.000000)
  33:      1132.28    0.000000  (  0.000000   0.000000   0.000000)
  34:      1139.05    0.000000  (  0.000000   0.000000   0.000000)
  35:      1162.41    0.000000  (  0.000000   0.000000   0.000000)
  36:      1165.73    0.000000  (  0.000000   0.000000   0.000000)
  37:      1174.94    0.000000  (  0.000000   0.000000   0.000000)
  38:      1229.28    0.000000  (  0.000000   0.000000   0.000000)
  39:      1247.14    0.000000  (  0.000000   0.000000   0.000000)
  40:      1249.91    0.000000  (  0.000000   0.000000   0.000000)
  41:      1287.24    0.000000  (  0.000000   0.000000   0.000000)
  42:      1319.87    0.000000  (  0.000000   0.000000   0.000000)
  43:      1331.97    0.000000  (  0.000000   0.000000   0.000000)
  44:      1342.00    0.000000  (  0.000000   0.000000   0.000000)
  45:      1348.32    0.000000  (  0.000000   0.000000   0.000000)
  46:      1353.36    0.000000  (  0.000000   0.000000   0.000000)
  47:      1444.98    0.000000  (  0.000000   0.000000   0.000000)
  48:      1460.63    0.000000  (  0.000000   0.000000   0.000000)
  49:      1465.37    0.000000  (  0.000000   0.000000   0.000000)
  50:      1475.97    0.000000  (  0.000000   0.000000   0.000000)
  51:      1485.39    0.000000  (  0.000000   0.000000   0.000000)
  52:      1499.04    0.000000  (  0.000000   0.000000   0.000000)
  53:      1512.35    0.000000  (  0.000000   0.000000   0.000000)
  54:      1521.16    0.000000  (  0.000000   0.000000   0.000000)
  55:      2550.86    0.000000  (  0.000000   0.000000   0.000000)
  56:      2609.46    0.000000  (  0.000000   0.000000   0.000000)
  57:      2717.27    0.000000  (  0.000000   0.000000   0.000000)
  58:      2938.59    0.000000  (  0.000000   0.000000   0.000000)
  59:      2945.24    0.000000  (  0.000000   0.000000   0.000000)
  60:      2954.96    0.000000  (  0.000000   0.000000   0.000000)
  61:      2958.03    0.000000  (  0.000000   0.000000   0.000000)
  62:      2960.65    0.000000  (  0.000000   0.000000   0.000000)
  63:      2963.92    0.000000  (  0.000000   0.000000   0.000000)
  64:      2967.07    0.000000  (  0.000000   0.000000   0.000000)
  65:      2976.40    0.000000  (  0.000000   0.000000   0.000000)
  66:      2979.23    0.000000  (  0.000000   0.000000   0.000000)
  67:      2982.34    0.000000  (  0.000000   0.000000   0.000000)
  68:      3116.30    0.000000  (  0.000000   0.000000   0.000000)

The first frequency considered to be a vibration is 7
The total number of vibrations considered is 62


--------------------------
THERMOCHEMISTRY AT 298.15K
--------------------------

Temperature         ... 298.15 K
Pressure            ... 1.00 atm
Total Mass          ... 194.09 AMU

Throughout the following assumptions are being made:
  (1) The electronic state is orbitally nondegenerate
  (2) There are no thermally accessible electronically excited states
  (3) Hindered rotations indicated by low frequency modes are not
      treated as such but are treated as vibrations and this may
      cause some error
  (4) All equations used are the standard statistical mechanics
      equations for an ideal gas
  (5) All vibrations are strictly harmonic

freq.      47.77  E(vib)   ...       0.53 
freq.      59.12  E(vib)   ...       0.51 
freq.      89.48  E(vib)   ...       0.47 
freq.     115.33  E(vib)   ...       0.44 
freq.     145.21  E(vib)   ...       0.41 
freq.     169.61  E(vib)   ...       0.38 
freq.     198.08  E(vib)   ...       0.35 
freq.     263.80  E(vib)   ...       0.29 
freq.     285.50  E(vib)   ...       0.28 
freq.     296.70  E(vib)   ...       0.27 
freq.     367.63  E(vib)   ...       0.21 
freq.     439.07  E(vib)   ...       0.17 
freq.     452.86  E(vib)   ...       0.16 
freq.     615.34  E(vib)   ...       0.10 
freq.     810.30  E(vib)   ...       0.05 
freq.     852.89  E(vib)   ...       0.04 
freq.     878.89  E(vib)   ...       0.04 
freq.     925.36  E(vib)   ...       0.03 
freq.     927.19  E(vib)   ...       0.03 
freq.     947.30  E(vib)   ...       0.03 
freq.     994.79  E(vib)   ...       0.02 
freq.    1077.72  E(vib)   ...       0.02 
freq.    1088.48  E(vib)   ...       0.02 
freq.    1096.84  E(vib)   ...       0.02 
freq.    1105.06  E(vib)   ...       0.02 
freq.    1114.35  E(vib)   ...       0.01 
freq.    1132.28  E(vib)   ...       0.01 
freq.    1139.05  E(vib)   ...       0.01 
freq.    1162.41  E(vib)   ...       0.01 
freq.    1165.73  E(vib)   ...       0.01 
freq.    1174.94  E(vib)   ...       0.01 
freq.    1229.28  E(vib)   ...       0.01 
freq.    1247.14  E(vib)   ...       0.01 
freq.    1249.91  E(vib)   ...       0.01 
freq.    1287.24  E(vib)   ...       0.01 
freq.    1319.87  E(vib)   ...       0.01 
freq.    1331.97  E(vib)   ...       0.01 
freq.    1342.00  E(vib)   ...       0.01 
freq.    1348.32  E(vib)   ...       0.01 
freq.    1353.36  E(vib)   ...       0.01 
freq.    1444.98  E(vib)   ...       0.00 
freq.    1460.63  E(vib)   ...       0.00 
freq.    1465.37  E(vib)   ...       0.00 
freq.    1475.97  E(vib)   ...       0.00 
freq.    1485.39  E(vib)   ...       0.00 
freq.    1499.04  E(vib)   ...       0.00 
freq.    1512.35  E(vib)   ...       0.00 
freq.    1521.16  E(vib)   ...       0.00 
freq.    2550.86  E(vib)   ...       0.00 
freq.    2609.46  E(vib)   ...       0.00 
freq.    2717.27  E(vib)   ...       0.00 
freq.    2938.59  E(vib)   ...       0.00 
freq.    2945.24  E(vib)   ...       0.00 
freq.    2954.96  E(vib)   ...       0.00 
freq.    2958.03  E(vib)   ...       0.00 
freq.    2960.65  E(vib)   ...       0.00 
freq.    2963.92  E(vib)   ...       0.00 
freq.    2967.07  E(vib)   ...       0.00 
freq.    2976.40  E(vib)   ...       0.00 
freq.    2979.23  E(vib)   ...       0.00 
freq.    2982.34  E(vib)   ...       0.00 
freq.    3116.30  E(vib)   ...       0.00 

------------
INNER ENERGY
------------

The inner energy is: U= E(el) + E(ZPE) + E(vib) + E(rot) + E(trans)
    E(el)   - is the total energy from the electronic structure calculation
              = E(kin-el) + E(nuc-el) + E(el-el) + E(nuc-nuc)
    E(ZPE)  - the the zero temperature vibrational energy from the frequency calculation
    E(vib)  - the the finite temperature correction to E(ZPE) due to population
              of excited vibrational states
    E(rot)  - is the rotational thermal energy
    E(trans)- is the translational thermal energy

Summary of contributions to the inner energy U:
Electronic energy                ...    -30.55836645 Eh
Zero point energy                ...      0.19440374 Eh     121.99 kcal/mol
Thermal vibrational correction   ...      0.00805124 Eh       5.05 kcal/mol
Thermal rotational correction    ...      0.00141627 Eh       0.89 kcal/mol
Thermal translational correction ...      0.00141627 Eh       0.89 kcal/mol
-----------------------------------------------------------------------
Total thermal energy                    -30.35307892 Eh


Summary of corrections to the electronic energy:
(perhaps to be used in another calculation)
Total thermal correction                  0.01088379 Eh       6.83 kcal/mol
Non-thermal (ZPE) correction              0.19440374 Eh     121.99 kcal/mol
-----------------------------------------------------------------------
Total correction                          0.20528753 Eh     128.82 kcal/mol


--------
ENTHALPY
--------

The enthalpy is H = U + kB*T
                kB is Boltzmann's constant
Total free energy                 ...    -30.35307892 Eh 
Thermal Enthalpy correction       ...      0.00094421 Eh       0.59 kcal/mol
-----------------------------------------------------------------------
Total Enthalpy                    ...    -30.35213471 Eh


Note: Only C1 symmetry has been detected, increase convergence thresholds 
      if your molecule has a higher symmetry. Symmetry factor of 1.0 is   
      used for the rotational entropy correction. 
 

Note: Rotational entropy computed according to Herzberg 
Infrared and Raman Spectra, Chapter V,1, Van Nostrand Reinhold, 1945 
Point Group:  C1, Symmetry Number:   1  
Rotational constants in cm-1:     0.039595     0.026011     0.019580 

Vibrational entropy computed according to the QRRHO of S. Grimme
Chem.Eur.J. 2012 18 9955


-------
ENTROPY
-------

The entropy contributions are T*S = T*(S(el)+S(vib)+S(rot)+S(trans))
     S(el)   - electronic entropy
     S(vib)  - vibrational entropy
     S(rot)  - rotational entropy
     S(trans)- translational entropy
The entropies will be listed as mutliplied by the temperature to get
units of energy

Electronic entropy                ...      0.00000000 Eh      0.00 kcal/mol
Vibrational entropy               ...      0.01439462 Eh      9.03 kcal/mol
Rotational entropy                ...      0.01461484 Eh      9.17 kcal/mol
Translational entropy             ...      0.01981043 Eh     12.43 kcal/mol
-----------------------------------------------------------------------
Final entropy term                ...      0.04881989 Eh     30.63 kcal/mol

In case the symmetry of your molecule has not been determined correctly
or in case you have a reason to use a different symmetry number we print 
out the resulting rotational entropy values for sn=1,12 :
 --------------------------------------------------------
|  sn= 1 | S(rot)=       0.01461484 Eh      9.17 kcal/mol|
|  sn= 2 | S(rot)=       0.01396038 Eh      8.76 kcal/mol|
|  sn= 3 | S(rot)=       0.01357755 Eh      8.52 kcal/mol|
|  sn= 4 | S(rot)=       0.01330592 Eh      8.35 kcal/mol|
|  sn= 5 | S(rot)=       0.01309524 Eh      8.22 kcal/mol|
|  sn= 6 | S(rot)=       0.01292309 Eh      8.11 kcal/mol|
|  sn= 7 | S(rot)=       0.01277755 Eh      8.02 kcal/mol|
|  sn= 8 | S(rot)=       0.01265147 Eh      7.94 kcal/mol|
|  sn= 9 | S(rot)=       0.01254026 Eh      7.87 kcal/mol|
|  sn=10 | S(rot)=       0.01244078 Eh      7.81 kcal/mol|
|  sn=11 | S(rot)=       0.01235079 Eh      7.75 kcal/mol|
|  sn=12 | S(rot)=       0.01226864 Eh      7.70 kcal/mol|
 --------------------------------------------------------


-------------------
GIBBS FREE ENERGY
-------------------

The Gibbs free energy is G = H - T*S

Total enthalpy                    ...    -30.35213471 Eh 
Total entropy correction          ...     -0.04881989 Eh    -30.63 kcal/mol
-----------------------------------------------------------------------
Final Gibbs free energy         ...    -30.40095460 Eh

For completeness - the Gibbs free energy minus the electronic energy
G-E(el)                           ...      0.15741185 Eh     98.78 kcal/mol


Total Time for Numerical Frequencies  :        49.481 sec



------------------------------------------------------------------------------- 
                    Intrinsic Reaction Coordinate Calculation                  
------------------------------------------------------------------------------- 

System:
Nr. of atoms                        .... 23
Algorithm: SD (steepest descent step) plus correction
Settings:
Max. no of cycles        MaxIter    .... 20
Direction                           .... Forward and backward
Initial displacement Hessian type   .... Read
Hessian Filename                    .... optts+numfreq_TSOpt.hess
Following Hessian mode              .... 0
Initial displacement type           .... Energy
  Initial displacement energy change.... 2.000 mEh
Coordinate system following type    .... Cartesian
Length of steepest descent step     .... 0.150 bohr
Do parabolic fit 
  if SD step is uphill              .... YES
Do Correction to SD step            .... YES
Scaling for length of correction
  compared to SD step               .... 0.333
Do parabolic fit to SD correction   .... YES
Only interpolate for parabolic fit  .... YES
Do update to length of
  SD step and correction            .... YES
Convergence Tolerances:
  Max. Gradient            TolMAXG  ....  2.0000e-03 Eh/bohr
  RMS Gradient             TolRMSG  ....  5.0000e-04 Eh/bohr
Storing full IRC trajectory in      .... optts+numfreq_TSOpt_IRC_Full_trj.xyz
Storing forward trajectory in       .... optts+numfreq_TSOpt_IRC_F_trj.xyz
Storing backward trajectory in      .... optts+numfreq_TSOpt_IRC_B_trj.xyz


 ...good, the file optts+numfreq_TSOpt.hess exists
Reading the hessian file           ...... done
Determining length of initial displacement:
  Requested energy change (quadratic behavior): 2.000 mEh
  Resulting scaling factor for initial displacement along normalized TS mode: 0.2697

         *************************************************************
         *                          FORWARD IRC                      *
         *************************************************************

Iteration    E(Eh)      dE(kcal/mol)  max(|G|)   RMS(G) 
Convergence thresholds                0.002000  0.000500            
    0       -30.560100   -1.087970    0.011404  0.002256
    1       -30.563115   -2.979930    0.013481  0.002769
    2       -30.566406   -5.044624    0.009812  0.002630
    3       -30.569234   -6.819525    0.006263  0.002004
    4       -30.571317   -8.126314    0.004970  0.001586
    5       -30.573006   -9.186308    0.004513  0.001281
    6       -30.574357   -10.034154    0.003375  0.001045
    7       -30.575394   -10.684639    0.003063  0.000884
    8       -30.575669   -10.857396    0.003454  0.000974
    9       -30.575780   -10.927038    0.002476  0.000745
   10       -30.575975   -11.049743    0.002383  0.000648
   11       -30.576168   -11.170581    0.002142  0.000614
   12       -30.576341   -11.279120    0.002062  0.000553
   13       -30.576504   -11.381597    0.001851  0.000519
   14       -30.576651   -11.473600    0.001765  0.000466

                      ***********************HURRAY********************
                      ***            THE IRC HAS CONVERGED          ***
                      *************************************************


         *************************************************************
         *                          BACKWARD IRC                     *
         *************************************************************

Iteration    E(Eh)      dE(kcal/mol)  max(|G|)   RMS(G) 
Convergence thresholds                0.002000  0.000500            
    0       -30.560499   -1.338097    0.013812  0.002926
    1       -30.565427   -4.430342    0.029550  0.005141
    2       -30.572560   -8.906805    0.035978  0.006700
    3       -30.582133   -14.913895    0.047278  0.008348
    4       -30.592111   -21.174805    0.037603  0.008180
    5       -30.601839   -27.279138    0.028258  0.007292
    6       -30.609818   -32.286179    0.019672  0.005600
    7       -30.615750   -36.008796    0.017591  0.004340
    8       -30.620548   -39.019201    0.015640  0.003692
    9       -30.624404   -41.439243    0.013907  0.003033
   10       -30.627726   -43.523807    0.012293  0.002589
   11       -30.630457   -45.237564    0.010773  0.002115
   12       -30.632775   -46.691761    0.009458  0.001782
   13       -30.634672   -47.882108    0.008324  0.001468
   14       -30.636242   -48.867797    0.006992  0.001193
   15       -30.637516   -49.667137    0.005858  0.000976
   16       -30.638564   -50.324713    0.004939  0.000887
   17       -30.638899   -50.535083    0.004647  0.001028
   18       -30.639019   -50.610422    0.004560  0.000797
   19       -30.639235   -50.745734    0.004379  0.000721

         *************************************************************
         *  MAXIMUM NUMBER OF ITERATIONS REACHED - STOPPING IRC RUN  *
         *************************************************************


---------------------------------------------------------------
                       IRC PATH SUMMARY              
---------------------------------------------------------------
All gradients are in Eh/Bohr.

Step        E(Eh)      dE(kcal/mol)  max(|G|)   RMS(G) 
   1       -30.639235   -50.745734    0.004379  0.000721
   2       -30.639019   -50.610422    0.004560  0.000797
   3       -30.638899   -50.535083    0.004647  0.001028
   4       -30.638564   -50.324713    0.004939  0.000887
   5       -30.637516   -49.667137    0.005858  0.000976
   6       -30.636242   -48.867797    0.006992  0.001193
   7       -30.634672   -47.882108    0.008324  0.001468
   8       -30.632775   -46.691761    0.009458  0.001782
   9       -30.630457   -45.237564    0.010773  0.002115
  10       -30.627726   -43.523807    0.012293  0.002589
  11       -30.624404   -41.439243    0.013907  0.003033
  12       -30.620548   -39.019201    0.015640  0.003692
  13       -30.615750   -36.008796    0.017591  0.004340
  14       -30.609818   -32.286179    0.019672  0.005600
  15       -30.601839   -27.279138    0.028258  0.007292
  16       -30.592111   -21.174805    0.037603  0.008180
  17       -30.582133   -14.913895    0.047278  0.008348
  18       -30.572560   -8.906805    0.035978  0.006700
  19       -30.565427   -4.430342    0.029550  0.005141
  20       -30.560499   -1.338097    0.013812  0.002926
  21       -30.558366    0.000000    0.000303  0.000089 <= TS
  22       -30.560100   -1.087970    0.011404  0.002256
  23       -30.563115   -2.979930    0.013481  0.002769
  24       -30.566406   -5.044624    0.009812  0.002630
  25       -30.569234   -6.819525    0.006263  0.002004
  26       -30.571317   -8.126314    0.004970  0.001586
  27       -30.573006   -9.186308    0.004513  0.001281
  28       -30.574357   -10.034154    0.003375  0.001045
  29       -30.575394   -10.684639    0.003063  0.000884
  30       -30.575669   -10.857396    0.003454  0.000974
  31       -30.575780   -10.927038    0.002476  0.000745
  32       -30.575975   -11.049743    0.002383  0.000648
  33       -30.576168   -11.170581    0.002142  0.000614
  34       -30.576341   -11.279120    0.002062  0.000553
  35       -30.576504   -11.381597    0.001851  0.000519
  36       -30.576651   -11.473600    0.001765  0.000466

Timings for individual modules:

Sum of individual times         ...      378.273 sec (=   6.305 min)
Geometry relaxation             ...        5.781 sec (=   0.096 min)   1.5 %
XTB module                      ...       13.182 sec (=   0.220 min)   3.5 %
                             ****ORCA TERMINATED NORMALLY****
TOTAL RUN TIME: 0 days 0 hours 24 minutes 7 seconds 309 msec
