(SLURM) JOB ID:         130

                                 *****************
                                 * O   R   C   A *
                                 *****************

           --- An Ab Initio, DFT and Semiempirical electronic structure package ---

                  #######################################################
                  #                        -***-                        #
                  #          Department of theory and spectroscopy      #
                  #               Directorship: Frank Neese             #
                  #        Max Planck Institute fuer Kohlenforschung    #
                  #                Kaiser Wilhelm Platz 1               #
                  #                 D-45470 Muelheim/Ruhr               #
                  #                      Germany                        #
                  #                                                     #
                  #                  All rights reserved                #
                  #                        -***-                        #
                  #######################################################


                         Program Version 4.2.1 -  RELEASE  -


 With contributions from (in alphabetic order):
   Daniel Aravena         : Magnetic Suceptibility
   Michael Atanasov       : Ab Initio Ligand Field Theory (pilot matlab implementation)
   Alexander A. Auer      : GIAO ZORA, VPT2
   Ute Becker             : Parallelization
   Giovanni Bistoni       : ED, misc. LED, open-shell LED, HFLD
   Martin Brehm           : Molecular dynamics
   Dmytro Bykov           : SCF Hessian
   Vijay G. Chilkuri      : MRCI spin determinant printing, contributions to CSF-ICE
   Dipayan Datta          : RHF DLPNO-CCSD density
   Achintya Kumar Dutta   : EOM-CC, STEOM-CC
   Dmitry Ganyushin       : Spin-Orbit,Spin-Spin,Magnetic field MRCI
   Miquel Garcia          : C-PCM Hessian, Gaussian charge scheme
   Yang Guo               : DLPNO-NEVPT2, CIM, IAO-localization
   Andreas Hansen         : Spin unrestricted coupled pair/coupled cluster methods
   Benjamin Helmich-Paris : CASSCF linear response (MC-RPA)
   Lee Huntington         : MR-EOM, pCC
   Robert Izsak           : Overlap fitted RIJCOSX, COSX-SCS-MP3, EOM
   Christian Kollmar      : KDIIS, OOCD, Brueckner-CCSD(T), CCSD density
   Simone Kossmann        : Meta GGA functionals, TD-DFT gradient, OOMP2, MP2 Hessian
   Martin Krupicka        : AUTO-CI
   Lucas Lang             : DCDCAS
   Dagmar Lenk            : GEPOL surface, SMD
   Dimitrios Liakos       : Extrapolation schemes; Compound Job, initial MDCI parallelization
   Dimitrios Manganas     : Further ROCIS development; embedding schemes
   Dimitrios Pantazis     : SARC Basis sets
   Taras Petrenko         : DFT Hessian,TD-DFT gradient, ASA, ECA, R-Raman, ABS, FL, XAS/XES, NRVS
   Peter Pinski           : DLPNO-MP2, DLPNO-MP2 Gradient
   Christoph Reimann      : Effective Core Potentials
   Marius Retegan         : Local ZFS, SOC
   Christoph Riplinger    : Optimizer, TS searches, QM/MM, DLPNO-CCSD(T), (RO)-DLPNO pert. Triples
   Tobias Risthaus        : Range-separated hybrids, TD-DFT gradient, RPA, STAB
   Michael Roemelt        : Original ROCIS implementation
   Masaaki Saitow         : Open-shell DLPNO-CCSD energy and density
   Barbara Sandhoefer     : DKH picture change effects
   Avijit Sen             : IP-ROCIS
   Kantharuban Sivalingam : CASSCF convergence, NEVPT2, FIC-MRCI
   Bernardo de Souza      : ESD, SOC TD-DFT
   Georgi Stoychev        : AutoAux, RI-MP2 NMR
   Willem Van den Heuvel  : Paramagnetic NMR
   Boris Wezisla          : Elementary symmetry handling
   Frank Wennmohs         : Technical directorship


 We gratefully acknowledge several colleagues who have allowed us to
 interface, adapt or use parts of their codes:
   Stefan Grimme, W. Hujo, H. Kruse,             : VdW corrections, initial TS optimization,
                  C. Bannwarth                     DFT functionals, gCP, sTDA/sTD-DF
   Ed Valeev, F. Pavosevic, A. Kumar             : LibInt (2-el integral package), F12 methods
   Garnet Chan, S. Sharma, J. Yang, R. Olivares  : DMRG
   Ulf Ekstrom                                   : XCFun DFT Library
   Mihaly Kallay                                 : mrcc  (arbitrary order and MRCC methods)
   Andreas Klamt, Michael Diedenhofen            : otool_cosmo (COSMO solvation model)
   Jiri Pittner, Ondrej Demel                    : Mk-CCSD
   Frank Weinhold                                : gennbo (NPA and NBO analysis)
   Christopher J. Cramer and Donald G. Truhlar   : smd solvation model
   Lars Goerigk                                  : TD-DFT with DH, B97 family of functionals
   V. Asgeirsson, H. Jonsson                     : NEB implementation
   FAccTs GmbH                                   : IRC, NEB, NEB-TS, Multilevel, MM, QM/MM, CI optimization
   S Lehtola, MJT Oliveira, MAL Marques          : LibXC Library


 Your calculation uses the libint2 library for the computation of 2-el integrals
 For citations please refer to: http://libint.valeyev.net

 Your ORCA version has been built with support for libXC version: 4.2.3
 For citations please refer to: https://tddft.org/programs/libxc/

 This ORCA versions uses:
   CBLAS   interface :  Fast vector & matrix operations
   LAPACKE interface :  Fast linear algebra routines
   SCALAPACK package :  Parallel linear algebra routines




***************************************
The coordinates will be read from file: init.xyz
***************************************


Your calculation utilizes the SMD solvation module
Please cite in your paper:
A.V. Marenich, C.J. Cramer, D.G. Truhlar J. Phys. Chem. B, 113, (2009), 6378 

Your calculation utilizes the semiempirical GFN2-xTB method
Please cite in your paper:
C. Bannwarth, Ehlert S., S. Grimme,  J. Chem. Theory Comput., 15, (2019), 1652.
   

----- Orbital basis set information -----
Your calculation utilizes the basis: def2-SVP
   F. Weigend and R. Ahlrichs, Phys. Chem. Chem. Phys. 7, 3297 (2005).

================================================================================
                                        WARNINGS
                       Please study these warnings very carefully!
================================================================================

WARNING: Gradients needed for Numerical Frequencies
  ===> : Setting RunTyp to EnGrad

WARNING: The environment variable RSH_COMMAND is not set!
  ===> : All Displacements for the Numerical Hessian calculation
         will be started on localhost

WARNING: Found dipole moment calculation with XTB calculation
  ===> : Switching off dipole moment calculation


INFO   : the flag for use of LIBINT has been found!

================================================================================
                                       INPUT FILE
================================================================================
NAME = /tmp/slurm-scratch/freq.130/freq.inp
|  1> ! XTB2 NumFreq
|  2> %maxcore 1450
|  3> 
|  4> * xyzfile 0 1 init.xyz
|  5> 
|  6> %cpcm
|  7>  smd true
|  8>  smdsolvent "ch2cl2"
|  9> end
| 10> %pal nprocs 8 end
| 11> 
| 12>                          ****END OF INPUT****
================================================================================

                     *******************************
                     * Energy+Gradient Calculation *
                     *******************************

      -----------------------------------------------------------      
     |                   =====================                   |     
     |                           x T B                           |     
     |                   =====================                   |     
     |                         S. Grimme                         |     
     |          Mulliken Center for Theoretical Chemistry        |     
     |                    University of Bonn                     |     
      -----------------------------------------------------------      

   * xtb version 6.3.0 (preview) compiled by 'ehlert@majestix' on 2020-01-15

   This program is distributed in the hope that it will be useful,
   but WITHOUT ANY WARRANTY; without even the implied warranty of
   MERCHANTABILITY or FITNESS FOR A PARTICULAR PURPOSE.
   
   FOR NON-COMMERCIAL, ACADEMIA USE ONLY.
   
   Cite this work as:
   * S. Grimme, C. Bannwarth, P. Shushkov, J. Chem. Theory Comput., 2017,
     13, 1989-2009. DOI: 10.1021/acs.jctc.7b00118
   * C. Bannwarth, S. Ehlert and S. Grimme., J. Chem. Theory Comput., 2019,
     15, 1652-1671. DOI: 10.1021/acs.jctc.8b01176
   * P. Pracht, E. Caldeweyher, S. Ehlert, S. Grimme, ChemRxiv, 2019, preprint.
     DOI: 10.26434/chemrxiv.8326202.v1
   * S. Grimme, S. Spicher unpublished
   
   for DFT-D4:
   * E. Caldeweyher, C. Bannwarth and S. Grimme, J. Chem. Phys., 2017,
     147, 034112. DOI: 10.1063/1.4993215
   * E. Caldeweyher, S. Ehlert, A. Hansen, H. Neugebauer, S. Spicher,
     C. Bannwarth and S. Grimme, J. Chem. Phys., 2019, 150, 154122.
     DOI: 10.1063/1.5090222
   
   for sTDA-xTB:
   * S. Grimme and C. Bannwarth, J. Chem. Phys., 2016, 145, 054103.
     DOI: 10.1063/1.4959605
   
   in the mass-spec context:
   * V. Asgeirsson, C. Bauer and S. Grimme, Chem. Sci., 2017, 8, 4879.
     DOI: 10.1039/c7sc00601b
   
   for metadynamics refer to:
   * S. Grimme, J. Chem. Theory Comput., 2019, 155, 2847-2862
     DOI: 10.1021/acs.jctc.9b00143
   
   with help from (in alphabetical order)
   C. Bannwarth, F. Bohle, G. Brandenburg, E. Caldeweyher, M. Checinski,
   S. Dohm, S. Ehlert, S. Ehrlich, F. März, H. Neugebauer, J. Pisarek,
   P. Pracht, P. Shushkov, and S. Spicher.
   
 * started run on 2020/08/23 at 09:22:51.504     

           -------------------------------------------------
          |                Calculation Setup                |
           -------------------------------------------------

          program call               : /opt/orca/otool_xtb /tmp/slurm-scratch/freq.130/freq_XTB.xyz --grad -c 0 -u 0 -P 8 --namespace /tmp/slurm-scratch/freq.130/freq --gbsa CH2Cl2
          hostname                   : headnode-pbs
          calculation namespace      : /tmp/slurm-scratch/freq.130/freq
          coordinate file            : /tmp/slurm-scratch/freq.130/freq_XTB.xyz
          omp threads                :                     8
          number of atoms            :                    36
          number of electrons        :                    88
          charge                     :                     0
          spin                       :                   0.0
          first test random number   :      0.31645505125573


molecular fragmentation (1/2 indicates fragments):
111111111121222212112222222222222222
# atoms in fragment 1/2:    14    22
 fragment masses (1/2) :      106.12      109.17
CMA distance (Bohr)    :   9.284
constraining FC (au)   :  0.0500

########################################################################
# WARNING! Please study the warnings concerning your input carefully
#  - Process number higher than OMP_NUM_THREADS, I hope you know what you are doing.
########################################################################

           ------------------------------------------------- 
          |                 G F N 2 - x T B                 |
          | Geometry, Frequencies, Noncovalent interactions |
          |            JCTC 2019 parametrisation            |
           ------------------------------------------------- 
             k(s)              :                1.8500
             k(p)              :                2.2300
             k(d)              :                2.2300
             k(f)              :                2.0000
             kEN (H0ij)        :               -2.0000
             D4 a1             :                0.5200
             D4 a2             :                5.0000
             D4 s6             :                1.0000
             D4 s8             :                2.7000
             D4 s9             :                5.0000
             alphaj            :                2.0000

  Z AO/shell   Hii/eV     exponent
  1     Wed Apr 25 08:07:45 CEST 2018   EN: 2.200 GM2: 0.406  GM3: 0.0800  RAES: 1.40
     1s    -10.707211    1.230000
  6     Wed Apr 25 08:07:45 CEST 2018   EN: 2.550 GM2: 0.538  GM3: 0.1500  RAES: 3.00
     2s    -13.970922    2.096432
     2p    -10.063292    1.800000
  7     Wed Apr 25 08:07:45 CEST 2018   EN: 3.040 GM2: 0.461  GM3:-0.0640  RAES: 1.90
     2s    -16.686243    2.339881
     2p    -12.523956    2.014332
  8     Wed Apr 25 08:07:45 CEST 2018   EN: 3.440 GM2: 0.452  GM3:-0.0517  RAES: 1.80
     2s    -20.229985    2.439742
     2p    -15.503117    2.137023

 Solvent             : CH2Cl2
 Using internal parameter file: .param_gbsa2_CH2Cl2
 Gsolv ref. state (COSMO-RS): gsolv [1 M gas/solution]
 temperature (mdtemp)       :    298.150000000000     
 dielectric constant        :    8.93000000000000     
 rho                        :    1.33000000000000     
 mass                       :    84.9300000000000     
 surface tension            :    15.5689454083859     
 probe radius               :   0.719875900000000     
 Gshift (Eh)                :   4.440829173451759E-003
 c1                         :    1.49173776000000     
 soset                      :   0.000000000000000E+000
 HB correction              :  F
           ------------------------------------------------- 
          |        Self-Consistent Charge Iterations        |
           ------------------------------------------------- 

          ...................................................
          :                      SETUP                      :
          :.................................................:
          :  # basis functions                  81          :
          :  # atomic orbitals                  81          :
          :  # shells                           51          :
          :  # electrons                        88          :
          :  max. iterations                   250          :
          :  Hamiltonian                  GFN2-xTB          :
          :  GBSA solvation                   true          :
          :  PC potential                    false          :
          :  electronic temp.          300.0000000     K    :
          :  accuracy                    1.0000000          :
          :  -> integral cutoff          0.2500000E+02      :
          :  -> integral neglect         0.1000000E-07      :
          :  -> SCF convergence          0.1000000E-05 Eh   :
          :  -> wf. convergence          0.1000000E-03 e    :
          :  Broyden damping             0.4000000          :
          ...................................................
  Checking positiv definite overlap ...  done.
 

 iter      E             dE          RMSdq      gap      omega  full diag
   1    -49.9161390 -0.499161E+02  0.419E+00    2.40       0.0  T
   2    -49.9771696 -0.610306E-01  0.229E+00    2.26       1.0  T
   3    -49.9765070  0.662673E-03  0.101E+00    2.42       1.0  T
   4    -49.9828960 -0.638900E-02  0.205E-01    2.19       1.0  T
   5    -49.9834961 -0.600165E-03  0.747E-02    2.21       1.0  T
   6    -49.9835634 -0.672998E-04  0.372E-02    2.22       1.0  T
   7    -49.9835775 -0.140543E-04  0.136E-02    2.22       1.2  T
   8    -49.9835781 -0.657341E-06  0.378E-03    2.23       4.4  T
   9    -49.9835782 -0.106449E-06  0.154E-03    2.22      10.8  T
  10    -49.9835782 -0.142210E-07  0.737E-04    2.22      22.6  T
  11    -49.9835783 -0.322596E-08  0.310E-04    2.22      53.8  T

   *** convergence criteria satisfied after 11 iterations ***

         #    Occupation            Energy/Eh            Energy/eV
      -------------------------------------------------------------
         1        2.0000           -0.7256640             -19.7463
       ...           ...                  ...                  ...
        38        2.0000           -0.4345986             -11.8260
        39        2.0000           -0.4320644             -11.7571
        40        2.0000           -0.4247504             -11.5580
        41        2.0000           -0.4226748             -11.5016
        42        2.0000           -0.4195617             -11.4169
        43        2.0000           -0.4117464             -11.2042
        44        2.0000           -0.3830472             -10.4232 (HOMO)
        45                         -0.3013100              -8.1991 (LUMO)
        46                         -0.2385610              -6.4916
        47                         -0.2072811              -5.6404
        48                         -0.0996599              -2.7119
        49                          0.0079854               0.2173
       ...                                ...                  ...
        81                          0.6428775              17.4936
      -------------------------------------------------------------
                  HL-Gap            0.0817373 Eh            2.2242 eV
             Fermi-level           -0.3421786 Eh           -9.3112 eV

 SCC (total)                   0 d,  0 h,  0 min,  0.223 sec
 SCC setup                      ...        0 min,  0.007 sec (  3.370%)
 Dispersion                     ...        0 min,  0.012 sec (  5.582%)
 integral evaluation            ...        0 min,  0.030 sec ( 13.653%)
 zeroth order Hamiltonian       ...        0 min,  0.000 sec (  0.013%)
 iterations                     ...        0 min,  0.158 sec ( 70.824%)
 molecular gradient             ...        0 min,  0.013 sec (  5.710%)
 printout                       ...        0 min,  0.002 sec (  0.791%)

         :::::::::::::::::::::::::::::::::::::::::::::::::::::
         ::                     SUMMARY                     ::
         :::::::::::::::::::::::::::::::::::::::::::::::::::::
         :: total energy             -49.350502106728 Eh    ::
         :: total w/o Gsasa/hb       -49.331297269898 Eh    ::
         :: gradient norm              0.025778826332 Eh/a0 ::
         :: HOMO-LUMO gap              2.224184510155 eV    ::
         ::.................................................::
         :: SCC energy               -50.002783089403 Eh    ::
         :: -> isotropic ES            0.114967804391 Eh    ::
         :: -> anisotropic ES         -0.005076471104 Eh    ::
         :: -> anisotropic XC          0.024231419625 Eh    ::
         :: -> dispersion             -0.026533820354 Eh    ::
         :: -> Gsolv                  -0.029715556118 Eh    ::
         ::    -> Gborn               -0.010510719288 Eh    ::
         ::    -> Gsasa               -0.023645666003 Eh    ::
         ::    -> Ghb                  0.000000000000 Eh    ::
         ::    -> Gshift               0.004440829173 Eh    ::
         :: repulsion energy           0.651947236332 Eh    ::
         :: add. restraining           0.000000000000 Eh    ::
         :::::::::::::::::::::::::::::::::::::::::::::::::::::

           -------------------------------------------------
          |                Property Printout                |
           -------------------------------------------------

    * Orbital Energies and Occupations

         #    Occupation            Energy/Eh            Energy/eV
      -------------------------------------------------------------
         1        2.0000           -0.7256640             -19.7463
       ...           ...                  ...                  ...
        32        2.0000           -0.4693841             -12.7726
        33        2.0000           -0.4507525             -12.2656
        34        2.0000           -0.4492250             -12.2240
        35        2.0000           -0.4478912             -12.1877
        36        2.0000           -0.4382446             -11.9252
        37        2.0000           -0.4374739             -11.9043
        38        2.0000           -0.4345986             -11.8260
        39        2.0000           -0.4320644             -11.7571
        40        2.0000           -0.4247504             -11.5580
        41        2.0000           -0.4226748             -11.5016
        42        2.0000           -0.4195617             -11.4169
        43        2.0000           -0.4117464             -11.2042
        44        2.0000           -0.3830472             -10.4232 (HOMO)
        45                         -0.3013100              -8.1991 (LUMO)
        46                         -0.2385610              -6.4916
        47                         -0.2072811              -5.6404
        48                         -0.0996599              -2.7119
        49                          0.0079854               0.2173
        50                          0.0576912               1.5699
        51                          0.0891260               2.4252
        52                          0.0906833               2.4676
        53                          0.1059536               2.8831
        54                          0.1146728               3.1204
        55                          0.1189405               3.2365
       ...                                ...                  ...
        81                          0.6428775              17.4936
      -------------------------------------------------------------
                  HL-Gap            0.0817373 Eh            2.2242 eV
             Fermi-level           -0.3421786 Eh           -9.3112 eV

     #   Z        covCN         q      C6AA      α(0)
     1   6 C      2.969    -0.006    28.171     8.706
     2   6 C      2.922    -0.020    28.500     8.755
     3   6 C      2.913    -0.023    28.574     8.765
     4   6 C      2.917    -0.014    28.370     8.734
     5   6 C      2.914    -0.024    28.607     8.771
     6   6 C      2.918    -0.012    28.304     8.724
     7   6 C      2.769     0.208    23.582     7.953
     8   1 H      0.925     0.057     2.231     2.336
     9   1 H      0.926     0.057     2.240     2.340
    10   1 H      0.925     0.056     2.248     2.345
    11   1 H      0.801     0.308     0.698     1.313
    12   8 O      0.856    -0.406    21.793     6.259
    13   1 H      0.803     0.316     0.676     1.291
    14   1 H      0.805     0.287     0.761     1.371
    15   1 H      0.860     0.174     1.249     1.751
    16   1 H      0.860     0.144     1.443     1.882
    17   1 H      0.923     0.043     2.405     2.425
    18   1 H      0.805     0.273     0.808     1.412
    19   1 H      0.925     0.055     2.254     2.348
    20   1 H      0.925     0.053     2.286     2.364
    21   7 N      2.628    -0.376    29.704     8.094
    22   6 C      3.731     0.019    20.344     6.438
    23   1 H      0.924     0.034     2.531     2.488
    24   1 H      0.924     0.012     2.855     2.642
    25   6 C      3.802    -0.067    21.778     6.644
    26   1 H      0.924     0.033     2.543     2.494
    27   1 H      0.924     0.048     2.339     2.392
    28   6 C      3.800    -0.054    21.543     6.608
    29   1 H      0.924     0.032     2.554     2.499
    30   1 H      0.924     0.031     2.576     2.510
    31   6 C      3.750    -0.103    22.524     6.769
    32   1 H      0.924     0.037     2.489     2.467
    33   1 H      0.924     0.037     2.494     2.470
    34   1 H      0.924     0.035     2.512     2.478
    35   8 O      1.606    -0.626    25.809     6.857
    36   8 O      1.608    -0.621    25.702     6.842

 Mol. C6AA /au·bohr⁶  :      10933.538111
 Mol. C8AA /au·bohr⁸  :     240404.798654
 Mol. α(0) /au        :        160.538213


Wiberg/Mayer (AO) data.
largest (>0.10) Wiberg bond orders for each atom
          total WBO             WBO to atom ...
     1  C   3.989        C    2 1.361    C    6 1.356    C    7 1.091
     2  C   3.988        C    3 1.459    C    1 1.361    H    8 0.966    C    5 0.103
     3  C   3.991        C    2 1.459    C    4 1.430    H   19 0.969    C    6 0.104
     4  C   3.988        C    3 1.430    C    5 1.421    H   10 0.970
     5  C   3.991        C    6 1.468    C    4 1.421    H   20 0.969    C    2 0.103
     6  C   3.988        C    5 1.468    C    1 1.356    H    9 0.967    C    3 0.104
     7  C   3.904        O   12 1.783    C    1 1.091    H   17 0.933
     8  H   0.997        C    2 0.966
     9  H   0.997        C    6 0.967
    10  H   0.996        C    4 0.970
    11  H   0.905        O   35 0.836
    12  O   2.058        C    7 1.783
    13  H   0.900        O   36 0.854
    14  H   0.918        O   36 0.916
    15  H   0.970        N   21 0.938
    16  H   0.979        N   21 0.966
    17  H   0.998        C    7 0.933
    18  H   0.926        O   35 0.924
    19  H   0.997        C    3 0.969
    20  H   0.997        C    5 0.969
    21  N   3.064        C   22 1.011    H   16 0.966    H   15 0.938
    22  C   3.982        N   21 1.011    C   25 1.007    H   23 0.977    H   24 0.972
    23  H   0.999        C   22 0.977
    24  H   1.000        C   22 0.972
    25  C   3.995        C   28 1.007    C   22 1.007    H   27 0.974    H   26 0.973
    26  H   0.999        C   25 0.973
    27  H   0.998        C   25 0.974
    28  C   3.997        C   31 1.019    C   25 1.007    H   29 0.978    H   30 0.978
    29  H   0.999        C   28 0.978
    30  H   0.999        C   28 0.978
    31  C   3.996        C   28 1.019    H   34 0.988    H   32 0.987    H   33 0.987
    32  H   0.999        C   31 0.987
    33  H   0.998        C   31 0.987
    34  H   0.999        C   31 0.988
    35  O   1.810        H   18 0.924    H   11 0.836
    36  O   1.826        H   14 0.916    H   13 0.854

molecular dipole:
                 x           y           z       tot (Debye)
 q only:        0.052       1.486      -1.078
   full:        0.333       1.170      -1.175       4.299
molecular quadrupole (traceless):
                xx          xy          yy          xz          yz          zz
 q only:       13.116       1.431     -14.836      -0.270      -0.638       1.720
  q+dip:       17.440      -3.456     -14.526       1.812      -1.879      -2.913
   full:       16.022      -3.254     -16.015       0.334      -1.531      -0.007

           -------------------------------------------------
          |                Property Printout                |
           -------------------------------------------------

    * Orbital Energies and Occupations

         #    Occupation            Energy/Eh            Energy/eV
      -------------------------------------------------------------
         1        2.0000           -0.7256640             -19.7463
       ...           ...                  ...                  ...
        32        2.0000           -0.4693841             -12.7726
        33        2.0000           -0.4507525             -12.2656
        34        2.0000           -0.4492250             -12.2240
        35        2.0000           -0.4478912             -12.1877
        36        2.0000           -0.4382446             -11.9252
        37        2.0000           -0.4374739             -11.9043
        38        2.0000           -0.4345986             -11.8260
        39        2.0000           -0.4320644             -11.7571
        40        2.0000           -0.4247504             -11.5580
        41        2.0000           -0.4226748             -11.5016
        42        2.0000           -0.4195617             -11.4169
        43        2.0000           -0.4117464             -11.2042
        44        2.0000           -0.3830472             -10.4232 (HOMO)
        45                         -0.3013100              -8.1991 (LUMO)
        46                         -0.2385610              -6.4916
        47                         -0.2072811              -5.6404
        48                         -0.0996599              -2.7119
        49                          0.0079854               0.2173
        50                          0.0576912               1.5699
        51                          0.0891260               2.4252
        52                          0.0906833               2.4676
        53                          0.1059536               2.8831
        54                          0.1146728               3.1204
        55                          0.1189405               3.2365
       ...                                ...                  ...
        81                          0.6428775              17.4936
      -------------------------------------------------------------
                  HL-Gap            0.0817373 Eh            2.2242 eV
             Fermi-level           -0.3421786 Eh           -9.3112 eV

     #   Z        covCN         q      C6AA      α(0)
     1   6 C      2.969    -0.006    28.171     8.706
     2   6 C      2.922    -0.020    28.500     8.755
     3   6 C      2.913    -0.023    28.574     8.765
     4   6 C      2.917    -0.014    28.370     8.734
     5   6 C      2.914    -0.024    28.607     8.771
     6   6 C      2.918    -0.012    28.304     8.724
     7   6 C      2.769     0.208    23.582     7.953
     8   1 H      0.925     0.057     2.231     2.336
     9   1 H      0.926     0.057     2.240     2.340
    10   1 H      0.925     0.056     2.248     2.345
    11   1 H      0.801     0.308     0.698     1.313
    12   8 O      0.856    -0.406    21.793     6.259
    13   1 H      0.803     0.316     0.676     1.291
    14   1 H      0.805     0.287     0.761     1.371
    15   1 H      0.860     0.174     1.249     1.751
    16   1 H      0.860     0.144     1.443     1.882
    17   1 H      0.923     0.043     2.405     2.425
    18   1 H      0.805     0.273     0.808     1.412
    19   1 H      0.925     0.055     2.254     2.348
    20   1 H      0.925     0.053     2.286     2.364
    21   7 N      2.628    -0.376    29.704     8.094
    22   6 C      3.731     0.019    20.344     6.438
    23   1 H      0.924     0.034     2.531     2.488
    24   1 H      0.924     0.012     2.855     2.642
    25   6 C      3.802    -0.067    21.778     6.644
    26   1 H      0.924     0.033     2.543     2.494
    27   1 H      0.924     0.048     2.339     2.392
    28   6 C      3.800    -0.054    21.543     6.608
    29   1 H      0.924     0.032     2.554     2.499
    30   1 H      0.924     0.031     2.576     2.510
    31   6 C      3.750    -0.103    22.524     6.769
    32   1 H      0.924     0.037     2.489     2.467
    33   1 H      0.924     0.037     2.494     2.470
    34   1 H      0.924     0.035     2.512     2.478
    35   8 O      1.606    -0.626    25.809     6.857
    36   8 O      1.608    -0.621    25.702     6.842

 Mol. C6AA /au·bohr⁶  :      10933.538111
 Mol. C8AA /au·bohr⁸  :     240404.798654
 Mol. α(0) /au        :        160.538213


Wiberg/Mayer (AO) data.
largest (>0.10) Wiberg bond orders for each atom
          total WBO             WBO to atom ...
     1  C   3.989        C    2 1.361    C    6 1.356    C    7 1.091
     2  C   3.988        C    3 1.459    C    1 1.361    H    8 0.966    C    5 0.103
     3  C   3.991        C    2 1.459    C    4 1.430    H   19 0.969    C    6 0.104
     4  C   3.988        C    3 1.430    C    5 1.421    H   10 0.970
     5  C   3.991        C    6 1.468    C    4 1.421    H   20 0.969    C    2 0.103
     6  C   3.988        C    5 1.468    C    1 1.356    H    9 0.967    C    3 0.104
     7  C   3.904        O   12 1.783    C    1 1.091    H   17 0.933
     8  H   0.997        C    2 0.966
     9  H   0.997        C    6 0.967
    10  H   0.996        C    4 0.970
    11  H   0.905        O   35 0.836
    12  O   2.058        C    7 1.783
    13  H   0.900        O   36 0.854
    14  H   0.918        O   36 0.916
    15  H   0.970        N   21 0.938
    16  H   0.979        N   21 0.966
    17  H   0.998        C    7 0.933
    18  H   0.926        O   35 0.924
    19  H   0.997        C    3 0.969
    20  H   0.997        C    5 0.969
    21  N   3.064        C   22 1.011    H   16 0.966    H   15 0.938
    22  C   3.982        N   21 1.011    C   25 1.007    H   23 0.977    H   24 0.972
    23  H   0.999        C   22 0.977
    24  H   1.000        C   22 0.972
    25  C   3.995        C   28 1.007    C   22 1.007    H   27 0.974    H   26 0.973
    26  H   0.999        C   25 0.973
    27  H   0.998        C   25 0.974
    28  C   3.997        C   31 1.019    C   25 1.007    H   29 0.978    H   30 0.978
    29  H   0.999        C   28 0.978
    30  H   0.999        C   28 0.978
    31  C   3.996        C   28 1.019    H   34 0.988    H   32 0.987    H   33 0.987
    32  H   0.999        C   31 0.987
    33  H   0.998        C   31 0.987
    34  H   0.999        C   31 0.988
    35  O   1.810        H   18 0.924    H   11 0.836
    36  O   1.826        H   14 0.916    H   13 0.854

molecular dipole:
                 x           y           z       tot (Debye)
 q only:        0.052       1.486      -1.078
   full:        0.333       1.170      -1.175       4.299
molecular quadrupole (traceless):
                xx          xy          yy          xz          yz          zz
 q only:       13.116       1.431     -14.836      -0.270      -0.638       1.720
  q+dip:       17.440      -3.456     -14.526       1.812      -1.879      -2.913
   full:       16.022      -3.254     -16.015       0.334      -1.531      -0.007


           -------------------------------------------------
          | TOTAL ENERGY              -49.350502106728 Eh   |
          | GRADIENT NORM               0.025778826332 Eh/α |
          | HOMO-LUMO GAP               2.224184510155 eV   |
           -------------------------------------------------

------------------------------------------------------------------------
 * finished run on 2020/08/23 at 09:22:51.987     
------------------------------------------------------------------------
 total:
 * wall-time:     0 d,  0 h,  0 min,  0.482 sec
 *  cpu-time:     0 d,  0 h,  0 min,  2.199 sec
 * ratio c/w:     4.559 speedup
 SCF:
 * wall-time:     0 d,  0 h,  0 min,  0.246 sec
 *  cpu-time:     0 d,  0 h,  0 min,  1.204 sec
 * ratio c/w:     4.905 speedup


-------------------------   --------------------
FINAL SINGLE POINT ENERGY       -49.350502106730
-------------------------   --------------------


----------------------------------------------------------------------------
                           ORCA NUMERICAL FREQUENCIES
                              (8-process run)
----------------------------------------------------------------------------

Number of atoms                ... 36
Central differences            ... used
Number of displacements        ... 216
Numerical increment            ... 5.000e-03 bohr
IR-spectrum generation         ... on
Raman-spectrum generation      ... off
Surface Crossing Hessian       ... off
List of participating nodes    ...  /tmp/slurm-scratch/freq.130/freq.hostnames

The output will be reduced. Please look at the following files:
SCF program output             ... >/tmp/slurm-scratch/freq.130/freq.lastscf
Integral program output        ... >/tmp/slurm-scratch/freq.130/freq.lastint
Gradient program output        ... >/tmp/slurm-scratch/freq.130/freq.lastgrad
Dipole moment program output   ... >/tmp/slurm-scratch/freq.130/freq.lastmom
AutoCI program output          ... >/tmp/slurm-scratch/freq.130/freq.lastautoci


         <<< Energy and Gradient at the input geometry >>>

        <<< Energy and Gradient at displaced geometries >>>
             <<<Displacing   3/coordinate 2 (+)>>>
             <<<Displacing   2/coordinate 2 (+)>>>
             <<<Displacing   1/coordinate 3 (+)>>>
             <<<Displacing   2/coordinate 1 (+)>>>
             <<<Displacing   1/coordinate 2 (+)>>>
             <<<Displacing   3/coordinate 1 (+)>>>
             <<<Displacing   1/coordinate 1 (+)>>>
             <<<Displacing   2/coordinate 3 (+)>>>
             <<<Displacing   3/coordinate 1 (-)>>>
             <<<Displacing   1/coordinate 1 (-)>>>
             <<<Displacing   3/coordinate 2 (-)>>>
             <<<Displacing   2/coordinate 1 (-)>>>
             <<<Displacing   2/coordinate 3 (-)>>>
             <<<Displacing   2/coordinate 2 (-)>>>
             <<<Displacing   1/coordinate 2 (-)>>>
             <<<Displacing   1/coordinate 3 (-)>>>
             <<<Displacing   3/coordinate 3 (+)>>>
             <<<Displacing   3/coordinate 3 (-)>>>
             <<<Displacing   5/coordinate 3 (+)>>>
             <<<Displacing   4/coordinate 3 (+)>>>
             <<<Displacing   6/coordinate 1 (+)>>>
             <<<Displacing   5/coordinate 1 (+)>>>
             <<<Displacing   4/coordinate 2 (+)>>>
             <<<Displacing   5/coordinate 2 (+)>>>
             <<<Displacing   5/coordinate 3 (-)>>>
             <<<Displacing   5/coordinate 1 (-)>>>
             <<<Displacing   6/coordinate 1 (-)>>>
             <<<Displacing   4/coordinate 3 (-)>>>
             <<<Displacing   4/coordinate 2 (-)>>>
             <<<Displacing   5/coordinate 2 (-)>>>
             <<<Displacing   4/coordinate 1 (+)>>>
             <<<Displacing   4/coordinate 1 (-)>>>
             <<<Displacing   6/coordinate 2 (+)>>>
             <<<Displacing   6/coordinate 2 (-)>>>
             <<<Displacing   6/coordinate 3 (+)>>>
             <<<Displacing   6/coordinate 3 (-)>>>
             <<<Displacing   7/coordinate 2 (+)>>>
             <<<Displacing   7/coordinate 3 (+)>>>
             <<<Displacing   7/coordinate 1 (+)>>>
             <<<Displacing   7/coordinate 2 (-)>>>
             <<<Displacing   7/coordinate 3 (-)>>>
             <<<Displacing   8/coordinate 3 (+)>>>
             <<<Displacing   7/coordinate 1 (-)>>>
             <<<Displacing   8/coordinate 1 (+)>>>
             <<<Displacing   8/coordinate 3 (-)>>>
             <<<Displacing   8/coordinate 1 (-)>>>
             <<<Displacing   8/coordinate 2 (+)>>>
             <<<Displacing   8/coordinate 2 (-)>>>
             <<<Displacing   9/coordinate 1 (+)>>>
             <<<Displacing   9/coordinate 1 (-)>>>
             <<<Displacing   9/coordinate 2 (+)>>>
             <<<Displacing   9/coordinate 3 (+)>>>
             <<<Displacing   9/coordinate 2 (-)>>>
             <<<Displacing   9/coordinate 3 (-)>>>
             <<<Displacing  10/coordinate 2 (+)>>>
             <<<Displacing  10/coordinate 3 (+)>>>
             <<<Displacing  10/coordinate 2 (-)>>>
             <<<Displacing  11/coordinate 2 (+)>>>
             <<<Displacing  10/coordinate 3 (-)>>>
             <<<Displacing  11/coordinate 2 (-)>>>
             <<<Displacing  10/coordinate 1 (+)>>>
             <<<Displacing  10/coordinate 1 (-)>>>
             <<<Displacing  11/coordinate 1 (+)>>>
             <<<Displacing  11/coordinate 1 (-)>>>
             <<<Displacing  11/coordinate 3 (+)>>>
             <<<Displacing  11/coordinate 3 (-)>>>
             <<<Displacing  12/coordinate 1 (+)>>>
             <<<Displacing  12/coordinate 3 (+)>>>
             <<<Displacing  12/coordinate 1 (-)>>>
             <<<Displacing  13/coordinate 1 (+)>>>
             <<<Displacing  12/coordinate 3 (-)>>>
             <<<Displacing  13/coordinate 1 (-)>>>
             <<<Displacing  12/coordinate 2 (+)>>>
             <<<Displacing  12/coordinate 2 (-)>>>
             <<<Displacing  13/coordinate 2 (+)>>>
             <<<Displacing  13/coordinate 2 (-)>>>
             <<<Displacing  13/coordinate 3 (+)>>>
             <<<Displacing  13/coordinate 3 (-)>>>
             <<<Displacing  14/coordinate 1 (+)>>>
             <<<Displacing  14/coordinate 1 (-)>>>
             <<<Displacing  14/coordinate 2 (+)>>>
             <<<Displacing  14/coordinate 2 (-)>>>
             <<<Displacing  14/coordinate 3 (+)>>>
             <<<Displacing  14/coordinate 3 (-)>>>
             <<<Displacing  15/coordinate 1 (+)>>>
             <<<Displacing  15/coordinate 1 (-)>>>
             <<<Displacing  15/coordinate 2 (+)>>>
             <<<Displacing  15/coordinate 2 (-)>>>
             <<<Displacing  15/coordinate 3 (+)>>>
             <<<Displacing  15/coordinate 3 (-)>>>
             <<<Displacing  16/coordinate 2 (+)>>>
             <<<Displacing  16/coordinate 2 (-)>>>
             <<<Displacing  16/coordinate 1 (+)>>>
             <<<Displacing  16/coordinate 1 (-)>>>
             <<<Displacing  16/coordinate 3 (+)>>>
             <<<Displacing  16/coordinate 3 (-)>>>
             <<<Displacing  17/coordinate 1 (+)>>>
             <<<Displacing  17/coordinate 1 (-)>>>
             <<<Displacing  17/coordinate 2 (+)>>>
             <<<Displacing  18/coordinate 1 (+)>>>
             <<<Displacing  17/coordinate 2 (-)>>>
             <<<Displacing  18/coordinate 1 (-)>>>
             <<<Displacing  17/coordinate 3 (+)>>>
             <<<Displacing  17/coordinate 3 (-)>>>
             <<<Displacing  18/coordinate 2 (+)>>>
             <<<Displacing  18/coordinate 2 (-)>>>
             <<<Displacing  19/coordinate 1 (+)>>>
             <<<Displacing  19/coordinate 1 (-)>>>
             <<<Displacing  18/coordinate 3 (+)>>>
             <<<Displacing  18/coordinate 3 (-)>>>
             <<<Displacing  19/coordinate 2 (+)>>>
             <<<Displacing  19/coordinate 2 (-)>>>
             <<<Displacing  19/coordinate 3 (+)>>>
             <<<Displacing  19/coordinate 3 (-)>>>
             <<<Displacing  20/coordinate 1 (+)>>>
             <<<Displacing  20/coordinate 1 (-)>>>
             <<<Displacing  20/coordinate 2 (+)>>>
             <<<Displacing  20/coordinate 2 (-)>>>
             <<<Displacing  20/coordinate 3 (+)>>>
             <<<Displacing  20/coordinate 3 (-)>>>
             <<<Displacing  21/coordinate 1 (+)>>>
             <<<Displacing  21/coordinate 1 (-)>>>
             <<<Displacing  21/coordinate 3 (+)>>>
             <<<Displacing  21/coordinate 3 (-)>>>
             <<<Displacing  22/coordinate 1 (+)>>>
             <<<Displacing  21/coordinate 2 (+)>>>
             <<<Displacing  22/coordinate 1 (-)>>>
             <<<Displacing  21/coordinate 2 (-)>>>
             <<<Displacing  23/coordinate 1 (+)>>>
             <<<Displacing  23/coordinate 1 (-)>>>
             <<<Displacing  22/coordinate 3 (+)>>>
             <<<Displacing  22/coordinate 3 (-)>>>
             <<<Displacing  22/coordinate 2 (+)>>>
             <<<Displacing  22/coordinate 2 (-)>>>
             <<<Displacing  23/coordinate 3 (+)>>>
             <<<Displacing  23/coordinate 3 (-)>>>
             <<<Displacing  23/coordinate 2 (+)>>>
             <<<Displacing  23/coordinate 2 (-)>>>
             <<<Displacing  24/coordinate 2 (+)>>>
             <<<Displacing  24/coordinate 2 (-)>>>
             <<<Displacing  24/coordinate 1 (+)>>>
             <<<Displacing  24/coordinate 1 (-)>>>
             <<<Displacing  24/coordinate 3 (+)>>>
             <<<Displacing  24/coordinate 3 (-)>>>
             <<<Displacing  25/coordinate 1 (+)>>>
             <<<Displacing  25/coordinate 1 (-)>>>
             <<<Displacing  25/coordinate 3 (+)>>>
             <<<Displacing  25/coordinate 2 (+)>>>
             <<<Displacing  25/coordinate 3 (-)>>>
             <<<Displacing  25/coordinate 2 (-)>>>
             <<<Displacing  26/coordinate 2 (+)>>>
             <<<Displacing  26/coordinate 1 (+)>>>
             <<<Displacing  26/coordinate 2 (-)>>>
             <<<Displacing  26/coordinate 1 (-)>>>
             <<<Displacing  26/coordinate 3 (+)>>>
             <<<Displacing  26/coordinate 3 (-)>>>
             <<<Displacing  27/coordinate 1 (+)>>>
             <<<Displacing  27/coordinate 1 (-)>>>
             <<<Displacing  27/coordinate 2 (+)>>>
             <<<Displacing  27/coordinate 2 (-)>>>
             <<<Displacing  27/coordinate 3 (+)>>>
             <<<Displacing  27/coordinate 3 (-)>>>
             <<<Displacing  28/coordinate 2 (+)>>>
             <<<Displacing  28/coordinate 2 (-)>>>
             <<<Displacing  28/coordinate 1 (+)>>>
             <<<Displacing  28/coordinate 3 (+)>>>
             <<<Displacing  28/coordinate 1 (-)>>>
             <<<Displacing  29/coordinate 1 (+)>>>
             <<<Displacing  28/coordinate 3 (-)>>>
             <<<Displacing  29/coordinate 2 (+)>>>
             <<<Displacing  29/coordinate 1 (-)>>>
             <<<Displacing  29/coordinate 2 (-)>>>
             <<<Displacing  30/coordinate 1 (+)>>>
             <<<Displacing  30/coordinate 2 (+)>>>
             <<<Displacing  30/coordinate 1 (-)>>>
             <<<Displacing  29/coordinate 3 (+)>>>
             <<<Displacing  30/coordinate 2 (-)>>>
             <<<Displacing  29/coordinate 3 (-)>>>
             <<<Displacing  30/coordinate 3 (+)>>>
             <<<Displacing  31/coordinate 1 (+)>>>
             <<<Displacing  30/coordinate 3 (-)>>>
             <<<Displacing  31/coordinate 1 (-)>>>
             <<<Displacing  31/coordinate 3 (+)>>>
             <<<Displacing  32/coordinate 1 (+)>>>
             <<<Displacing  31/coordinate 3 (-)>>>
             <<<Displacing  31/coordinate 2 (+)>>>
             <<<Displacing  32/coordinate 1 (-)>>>
             <<<Displacing  31/coordinate 2 (-)>>>
             <<<Displacing  32/coordinate 2 (+)>>>
             <<<Displacing  32/coordinate 3 (+)>>>
             <<<Displacing  32/coordinate 2 (-)>>>
             <<<Displacing  32/coordinate 3 (-)>>>
             <<<Displacing  33/coordinate 1 (+)>>>
             <<<Displacing  33/coordinate 1 (-)>>>
             <<<Displacing  33/coordinate 2 (+)>>>
             <<<Displacing  33/coordinate 2 (-)>>>
             <<<Displacing  34/coordinate 1 (+)>>>
             <<<Displacing  34/coordinate 1 (-)>>>
             <<<Displacing  34/coordinate 3 (+)>>>
             <<<Displacing  34/coordinate 3 (-)>>>
             <<<Displacing  33/coordinate 3 (+)>>>
             <<<Displacing  33/coordinate 3 (-)>>>
             <<<Displacing  34/coordinate 2 (+)>>>
             <<<Displacing  34/coordinate 2 (-)>>>
             <<<Displacing  35/coordinate 1 (+)>>>
             <<<Displacing  35/coordinate 2 (+)>>>
             <<<Displacing  35/coordinate 1 (-)>>>
             <<<Displacing  35/coordinate 2 (-)>>>
             <<<Displacing  35/coordinate 3 (+)>>>
             <<<Displacing  35/coordinate 3 (-)>>>
             <<<Displacing  36/coordinate 2 (+)>>>
             <<<Displacing  36/coordinate 2 (-)>>>
             <<<Displacing  36/coordinate 3 (+)>>>
             <<<Displacing  36/coordinate 3 (-)>>>
             <<<Displacing  36/coordinate 1 (+)>>>
             <<<Displacing  36/coordinate 1 (-)>>>

-----------------------
VIBRATIONAL FREQUENCIES
-----------------------

Scaling factor for frequencies =  1.000000000 (already applied!)

   0:         0.00 cm**-1
   1:         0.00 cm**-1
   2:         0.00 cm**-1
   3:         0.00 cm**-1
   4:         0.00 cm**-1
   5:         0.00 cm**-1
   6:       -10.89 cm**-1 ***imaginary mode***
   7:        27.25 cm**-1
   8:        38.76 cm**-1
   9:        42.31 cm**-1
  10:        52.45 cm**-1
  11:        54.11 cm**-1
  12:        60.81 cm**-1
  13:        67.62 cm**-1
  14:        81.99 cm**-1
  15:       109.23 cm**-1
  16:       124.86 cm**-1
  17:       132.07 cm**-1
  18:       143.28 cm**-1
  19:       152.65 cm**-1
  20:       198.26 cm**-1
  21:       231.19 cm**-1
  22:       239.76 cm**-1
  23:       251.30 cm**-1
  24:       259.51 cm**-1
  25:       263.60 cm**-1
  26:       277.23 cm**-1
  27:       374.08 cm**-1
  28:       379.68 cm**-1
  29:       394.04 cm**-1
  30:       418.50 cm**-1
  31:       426.63 cm**-1
  32:       440.68 cm**-1
  33:       449.11 cm**-1
  34:       473.65 cm**-1
  35:       585.55 cm**-1
  36:       627.10 cm**-1
  37:       651.24 cm**-1
  38:       656.83 cm**-1
  39:       723.24 cm**-1
  40:       740.02 cm**-1
  41:       779.47 cm**-1
  42:       827.72 cm**-1
  43:       830.61 cm**-1
  44:       870.01 cm**-1
  45:       902.90 cm**-1
  46:       922.01 cm**-1
  47:       930.22 cm**-1
  48:       933.75 cm**-1
  49:       935.13 cm**-1
  50:       939.56 cm**-1
  51:       984.46 cm**-1
  52:      1003.10 cm**-1
  53:      1007.20 cm**-1
  54:      1062.51 cm**-1
  55:      1064.53 cm**-1
  56:      1095.06 cm**-1
  57:      1112.41 cm**-1
  58:      1122.49 cm**-1
  59:      1152.21 cm**-1
  60:      1176.36 cm**-1
  61:      1179.03 cm**-1
  62:      1204.67 cm**-1
  63:      1214.99 cm**-1
  64:      1239.18 cm**-1
  65:      1269.06 cm**-1
  66:      1276.50 cm**-1
  67:      1278.68 cm**-1
  68:      1290.83 cm**-1
  69:      1306.56 cm**-1
  70:      1351.45 cm**-1
  71:      1364.83 cm**-1
  72:      1378.72 cm**-1
  73:      1426.42 cm**-1
  74:      1427.17 cm**-1
  75:      1447.61 cm**-1
  76:      1491.75 cm**-1
  77:      1505.35 cm**-1
  78:      1508.12 cm**-1
  79:      1511.58 cm**-1
  80:      1514.52 cm**-1
  81:      1545.35 cm**-1
  82:      1548.89 cm**-1
  83:      1561.04 cm**-1
  84:      1564.37 cm**-1
  85:      1566.95 cm**-1
  86:      1652.13 cm**-1
  87:      2871.87 cm**-1
  88:      2883.55 cm**-1
  89:      2933.83 cm**-1
  90:      2946.01 cm**-1
  91:      2966.64 cm**-1
  92:      2973.62 cm**-1
  93:      2974.56 cm**-1
  94:      2979.11 cm**-1
  95:      2979.40 cm**-1
  96:      2985.56 cm**-1
  97:      2998.00 cm**-1
  98:      3059.94 cm**-1
  99:      3062.27 cm**-1
 100:      3069.29 cm**-1
 101:      3077.00 cm**-1
 102:      3081.57 cm**-1
 103:      3261.00 cm**-1
 104:      3327.83 cm**-1
 105:      3413.48 cm**-1
 106:      3582.58 cm**-1
 107:      3597.58 cm**-1


------------
NORMAL MODES
------------

These modes are the cartesian displacements weighted by the diagonal matrix
M(i,i)=1/sqrt(m[i]) where m[i] is the mass of the displaced atom
Thus, these vectors are normalized but *not* orthogonal

                  0          1          2          3          4          5    
      0       0.000000   0.000000   0.000000   0.000000   0.000000   0.000000
      1       0.000000   0.000000   0.000000   0.000000   0.000000   0.000000
      2       0.000000   0.000000   0.000000   0.000000   0.000000   0.000000
      3       0.000000   0.000000   0.000000   0.000000   0.000000   0.000000
      4       0.000000   0.000000   0.000000   0.000000   0.000000   0.000000
      5       0.000000   0.000000   0.000000   0.000000   0.000000   0.000000
      6       0.000000   0.000000   0.000000   0.000000   0.000000   0.000000
      7       0.000000   0.000000   0.000000   0.000000   0.000000   0.000000
      8       0.000000   0.000000   0.000000   0.000000   0.000000   0.000000
      9       0.000000   0.000000   0.000000   0.000000   0.000000   0.000000
     10       0.000000   0.000000   0.000000   0.000000   0.000000   0.000000
     11       0.000000   0.000000   0.000000   0.000000   0.000000   0.000000
     12       0.000000   0.000000   0.000000   0.000000   0.000000   0.000000
     13       0.000000   0.000000   0.000000   0.000000   0.000000   0.000000
     14       0.000000   0.000000   0.000000   0.000000   0.000000   0.000000
     15       0.000000   0.000000   0.000000   0.000000   0.000000   0.000000
     16       0.000000   0.000000   0.000000   0.000000   0.000000   0.000000
     17       0.000000   0.000000   0.000000   0.000000   0.000000   0.000000
     18       0.000000   0.000000   0.000000   0.000000   0.000000   0.000000
     19       0.000000   0.000000   0.000000   0.000000   0.000000   0.000000
     20       0.000000   0.000000   0.000000   0.000000   0.000000   0.000000
     21       0.000000   0.000000   0.000000   0.000000   0.000000   0.000000
     22       0.000000   0.000000   0.000000   0.000000   0.000000   0.000000
     23       0.000000   0.000000   0.000000   0.000000   0.000000   0.000000
     24       0.000000   0.000000   0.000000   0.000000   0.000000   0.000000
     25       0.000000   0.000000   0.000000   0.000000   0.000000   0.000000
     26       0.000000   0.000000   0.000000   0.000000   0.000000   0.000000
     27       0.000000   0.000000   0.000000   0.000000   0.000000   0.000000
     28       0.000000   0.000000   0.000000   0.000000   0.000000   0.000000
     29       0.000000   0.000000   0.000000   0.000000   0.000000   0.000000
     30       0.000000   0.000000   0.000000   0.000000   0.000000   0.000000
     31       0.000000   0.000000   0.000000   0.000000   0.000000   0.000000
     32       0.000000   0.000000   0.000000   0.000000   0.000000   0.000000
     33       0.000000   0.000000   0.000000   0.000000   0.000000   0.000000
     34       0.000000   0.000000   0.000000   0.000000   0.000000   0.000000
     35       0.000000   0.000000   0.000000   0.000000   0.000000   0.000000
     36       0.000000   0.000000   0.000000   0.000000   0.000000   0.000000
     37       0.000000   0.000000   0.000000   0.000000   0.000000   0.000000
     38       0.000000   0.000000   0.000000   0.000000   0.000000   0.000000
     39       0.000000   0.000000   0.000000   0.000000   0.000000   0.000000
     40       0.000000   0.000000   0.000000   0.000000   0.000000   0.000000
     41       0.000000   0.000000   0.000000   0.000000   0.000000   0.000000
     42       0.000000   0.000000   0.000000   0.000000   0.000000   0.000000
     43       0.000000   0.000000   0.000000   0.000000   0.000000   0.000000
     44       0.000000   0.000000   0.000000   0.000000   0.000000   0.000000
     45       0.000000   0.000000   0.000000   0.000000   0.000000   0.000000
     46       0.000000   0.000000   0.000000   0.000000   0.000000   0.000000
     47       0.000000   0.000000   0.000000   0.000000   0.000000   0.000000
     48       0.000000   0.000000   0.000000   0.000000   0.000000   0.000000
     49       0.000000   0.000000   0.000000   0.000000   0.000000   0.000000
     50       0.000000   0.000000   0.000000   0.000000   0.000000   0.000000
     51       0.000000   0.000000   0.000000   0.000000   0.000000   0.000000
     52       0.000000   0.000000   0.000000   0.000000   0.000000   0.000000
     53       0.000000   0.000000   0.000000   0.000000   0.000000   0.000000
     54       0.000000   0.000000   0.000000   0.000000   0.000000   0.000000
     55       0.000000   0.000000   0.000000   0.000000   0.000000   0.000000
     56       0.000000   0.000000   0.000000   0.000000   0.000000   0.000000
     57       0.000000   0.000000   0.000000   0.000000   0.000000   0.000000
     58       0.000000   0.000000   0.000000   0.000000   0.000000   0.000000
     59       0.000000   0.000000   0.000000   0.000000   0.000000   0.000000
     60       0.000000   0.000000   0.000000   0.000000   0.000000   0.000000
     61       0.000000   0.000000   0.000000   0.000000   0.000000   0.000000
     62       0.000000   0.000000   0.000000   0.000000   0.000000   0.000000
     63       0.000000   0.000000   0.000000   0.000000   0.000000   0.000000
     64       0.000000   0.000000   0.000000   0.000000   0.000000   0.000000
     65       0.000000   0.000000   0.000000   0.000000   0.000000   0.000000
     66       0.000000   0.000000   0.000000   0.000000   0.000000   0.000000
     67       0.000000   0.000000   0.000000   0.000000   0.000000   0.000000
     68       0.000000   0.000000   0.000000   0.000000   0.000000   0.000000
     69       0.000000   0.000000   0.000000   0.000000   0.000000   0.000000
     70       0.000000   0.000000   0.000000   0.000000   0.000000   0.000000
     71       0.000000   0.000000   0.000000   0.000000   0.000000   0.000000
     72       0.000000   0.000000   0.000000   0.000000   0.000000   0.000000
     73       0.000000   0.000000   0.000000   0.000000   0.000000   0.000000
     74       0.000000   0.000000   0.000000   0.000000   0.000000   0.000000
     75       0.000000   0.000000   0.000000   0.000000   0.000000   0.000000
     76       0.000000   0.000000   0.000000   0.000000   0.000000   0.000000
     77       0.000000   0.000000   0.000000   0.000000   0.000000   0.000000
     78       0.000000   0.000000   0.000000   0.000000   0.000000   0.000000
     79       0.000000   0.000000   0.000000   0.000000   0.000000   0.000000
     80       0.000000   0.000000   0.000000   0.000000   0.000000   0.000000
     81       0.000000   0.000000   0.000000   0.000000   0.000000   0.000000
     82       0.000000   0.000000   0.000000   0.000000   0.000000   0.000000
     83       0.000000   0.000000   0.000000   0.000000   0.000000   0.000000
     84       0.000000   0.000000   0.000000   0.000000   0.000000   0.000000
     85       0.000000   0.000000   0.000000   0.000000   0.000000   0.000000
     86       0.000000   0.000000   0.000000   0.000000   0.000000   0.000000
     87       0.000000   0.000000   0.000000   0.000000   0.000000   0.000000
     88       0.000000   0.000000   0.000000   0.000000   0.000000   0.000000
     89       0.000000   0.000000   0.000000   0.000000   0.000000   0.000000
     90       0.000000   0.000000   0.000000   0.000000   0.000000   0.000000
     91       0.000000   0.000000   0.000000   0.000000   0.000000   0.000000
     92       0.000000   0.000000   0.000000   0.000000   0.000000   0.000000
     93       0.000000   0.000000   0.000000   0.000000   0.000000   0.000000
     94       0.000000   0.000000   0.000000   0.000000   0.000000   0.000000
     95       0.000000   0.000000   0.000000   0.000000   0.000000   0.000000
     96       0.000000   0.000000   0.000000   0.000000   0.000000   0.000000
     97       0.000000   0.000000   0.000000   0.000000   0.000000   0.000000
     98       0.000000   0.000000   0.000000   0.000000   0.000000   0.000000
     99       0.000000   0.000000   0.000000   0.000000   0.000000   0.000000
    100       0.000000   0.000000   0.000000   0.000000   0.000000   0.000000
    101       0.000000   0.000000   0.000000   0.000000   0.000000   0.000000
    102       0.000000   0.000000   0.000000   0.000000   0.000000   0.000000
    103       0.000000   0.000000   0.000000   0.000000   0.000000   0.000000
    104       0.000000   0.000000   0.000000   0.000000   0.000000   0.000000
    105       0.000000   0.000000   0.000000   0.000000   0.000000   0.000000
    106       0.000000   0.000000   0.000000   0.000000   0.000000   0.000000
    107       0.000000   0.000000   0.000000   0.000000   0.000000   0.000000
                  6          7          8          9         10         11    
      0      -0.056663   0.071691  -0.032252   0.012633   0.023970  -0.015528
      1       0.030338  -0.016891  -0.056719  -0.076448   0.009150   0.004177
      2      -0.066475   0.020888   0.006456  -0.012326  -0.114268   0.005028
      3      -0.066282   0.117672   0.005285   0.013251  -0.013080  -0.052484
      4       0.036810  -0.039107  -0.076855  -0.066107   0.031482   0.035284
      5      -0.060235   0.029259  -0.005244   0.124240  -0.065969   0.170133
      6      -0.063567   0.161485   0.036756   0.031557  -0.067153  -0.045641
      7       0.024076  -0.014466  -0.059343  -0.033105   0.044007   0.042470
      8      -0.096007   0.020633  -0.012055   0.178317   0.051936   0.176858
      9      -0.052035   0.161005   0.032622   0.047465  -0.085881  -0.003302
     10       0.006353   0.032910  -0.022346  -0.008941   0.035357   0.018862
     11      -0.134819   0.004017  -0.010075   0.106524   0.128127   0.020594
     12      -0.042292   0.116301  -0.003614   0.044821  -0.050240   0.031385
     13       0.000431   0.055348  -0.002991  -0.017709   0.013488  -0.011392
     14      -0.142697  -0.004818  -0.001005  -0.020200   0.084866  -0.138790
     15      -0.043959   0.072107  -0.036225   0.028350   0.004263   0.025936
     16       0.011536   0.030701  -0.019730  -0.052660   0.000532  -0.019011
     17      -0.112332   0.002922   0.008323  -0.083704  -0.035805  -0.149565
     18      -0.061871   0.021935  -0.069483  -0.005001   0.069769  -0.022236
     19       0.045649  -0.045462  -0.076477  -0.102782   0.004059  -0.003019
     20      -0.019431   0.031885   0.018698  -0.059801  -0.211564  -0.001357
     21      -0.075463   0.117315   0.007498  -0.000784   0.000937  -0.085275
     22       0.050560  -0.074726  -0.105083  -0.084552   0.038680   0.052606
     23      -0.028916   0.042555  -0.006081   0.183063  -0.122031   0.290111
     24      -0.036033   0.037560  -0.064584   0.027598   0.032051   0.053101
     25       0.007292   0.047241  -0.005112  -0.060303  -0.016006  -0.042237
     26      -0.117512  -0.003637   0.016633  -0.184675  -0.070650  -0.274303
     27      -0.050766   0.195665   0.057726   0.061195  -0.128484   0.002652
     28      -0.002791   0.052670  -0.008561   0.017592   0.045783   0.024112
     29      -0.159416  -0.002002  -0.015746   0.150672   0.221898   0.024052
     30       0.127992  -0.007626   0.056680  -0.033018   0.133958  -0.073450
     31      -0.037995  -0.072208   0.099790   0.238779   0.065719  -0.075455
     32       0.290271   0.067441  -0.068542   0.134226  -0.041871   0.018616
     33      -0.043553  -0.020125  -0.114348   0.004933   0.093262  -0.006210
     34       0.038437  -0.030429  -0.058415  -0.112663  -0.005460  -0.014817
     35      -0.041309   0.023782   0.047627  -0.167406  -0.235560  -0.099577
     36      -0.027746  -0.059138  -0.158446   0.071670  -0.039632  -0.091279
     37       0.048442  -0.070351  -0.108188  -0.051959  -0.050489  -0.045220
     38      -0.018350   0.039929   0.008571  -0.148381   0.091252   0.082006
     39      -0.014308  -0.076961  -0.208960   0.143980  -0.018932  -0.110437
     40       0.069858  -0.117407  -0.180501   0.076065  -0.250464  -0.203778
     41       0.000645   0.029018  -0.066624  -0.058733   0.290651   0.151213
     42       0.015332   0.002482  -0.021469  -0.136829   0.000207   0.046067
     43      -0.022097  -0.029690   0.041181   0.071274  -0.054351   0.065145
     44       0.020018  -0.012490  -0.153256  -0.020337   0.138116   0.003203
     45       0.204391   0.092386  -0.015798  -0.151777   0.074350   0.037550
     46      -0.153147  -0.037561  -0.019503   0.069786  -0.005859   0.112435
     47       0.006837  -0.021062  -0.156791  -0.019813   0.130875   0.000819
     48      -0.086693   0.024315  -0.057641  -0.027942   0.075848  -0.046959
     49       0.070476  -0.083936  -0.113015  -0.105334   0.015174   0.004337
     50       0.073823   0.052982   0.001443   0.047049  -0.246604   0.101007
     51       0.135668  -0.006299   0.048247  -0.035989   0.139364  -0.068727
     52      -0.027841  -0.094688   0.171453   0.377773   0.162331  -0.247982
     53       0.233026   0.062107   0.015242   0.142003  -0.142251   0.015123
     54      -0.070716   0.195607   0.064498   0.032621  -0.095080  -0.072146
     55       0.027911  -0.031334  -0.074076  -0.025691   0.061097   0.066045
     56      -0.092377   0.026891  -0.019077   0.277683   0.087423   0.300882
     57      -0.033004   0.116413  -0.006319   0.056545  -0.065567   0.063825
     58      -0.012736   0.091523   0.025010   0.002393   0.007345  -0.029650
     59      -0.173770  -0.017568  -0.000104  -0.072115   0.146325  -0.257889
     60       0.122222   0.029004   0.008234  -0.130616   0.053661   0.043234
     61      -0.086156  -0.032121   0.013188   0.070701  -0.032548   0.089405
     62       0.057648  -0.014100  -0.135209  -0.020543   0.113872  -0.015748
     63       0.130418  -0.002554   0.042692  -0.104128   0.059348   0.044773
     64      -0.112439   0.008434  -0.035027   0.030899  -0.055005   0.086323
     65      -0.025731  -0.075053  -0.104199  -0.013780   0.035430  -0.021662
     66       0.267753   0.040735   0.104956  -0.104607   0.137659   0.029440
     67      -0.203470  -0.011183  -0.136178   0.046818  -0.068753   0.112322
     68       0.007858  -0.069934  -0.053360  -0.023230   0.031786  -0.034806
     69       0.092922   0.009080   0.005495  -0.121910   0.039294   0.046296
     70      -0.128791   0.039969  -0.065976   0.000353  -0.067505   0.080979
     71      -0.199429  -0.149668  -0.201414   0.016207  -0.038490   0.013195
     72       0.018182  -0.110163   0.055576  -0.054072  -0.015754   0.074634
     73      -0.005015   0.034979   0.091373   0.007979  -0.038033   0.056635
     74       0.073019  -0.044490   0.000236  -0.036629   0.055266  -0.049433
     75      -0.096283  -0.113213   0.048182  -0.065018  -0.043255   0.071798
     76       0.079149   0.048796   0.195129  -0.006057  -0.027790   0.038890
     77       0.044070  -0.052540  -0.061515  -0.025988   0.054486  -0.038180
     78       0.050150  -0.141867   0.065526  -0.030505  -0.025554   0.086679
     79       0.001184  -0.020599   0.088165   0.044754  -0.062943   0.078903
     80       0.224180   0.010467   0.067815  -0.059208   0.103399  -0.074186
     81       0.022807  -0.169653   0.072169  -0.021668  -0.046768   0.097882
     82      -0.024292   0.116193   0.086825  -0.041995  -0.001459   0.023331
     83       0.007827  -0.078174   0.097919  -0.043630   0.011739  -0.053039
     84       0.101562  -0.175309   0.059695  -0.006631  -0.022525   0.103614
     85      -0.059379   0.121767   0.008630  -0.033712  -0.008345   0.032972
     86       0.011992  -0.080334   0.146438  -0.051660   0.010733  -0.059790
     87      -0.003127  -0.133098   0.066190  -0.044671  -0.034812   0.081858
     88      -0.037452   0.172094   0.087463  -0.075822   0.025733  -0.002550
     89      -0.075840  -0.109695   0.063727  -0.028928  -0.034231  -0.033663
     90      -0.036199  -0.268765   0.114728   0.017651  -0.126211   0.138989
     91       0.014644   0.115835   0.181164  -0.056463   0.010719   0.008965
     92       0.047187  -0.068808   0.174732  -0.059949   0.030157  -0.069532
     93      -0.022423  -0.310737   0.124389   0.035067  -0.143208   0.160293
     94       0.015117   0.060139   0.183878  -0.031506  -0.019357   0.038373
     95       0.114230  -0.042843   0.211332  -0.077784   0.072119  -0.087523
     96      -0.037708  -0.310198   0.128446   0.034470  -0.149712   0.158559
     97       0.011277   0.176496   0.171421  -0.082787   0.042273  -0.021715
     98       0.015897  -0.089221   0.237147  -0.060302   0.002571  -0.070686
     99      -0.090227  -0.258037   0.123419   0.011380  -0.144626   0.128909
    100       0.045814   0.109705   0.256840  -0.065263   0.017550   0.000737
    101       0.040302  -0.067589   0.131537  -0.053926   0.029846  -0.063021
    102       0.128663  -0.017237   0.079489   0.013077   0.178250  -0.138576
    103      -0.025237  -0.082817   0.136300   0.316223   0.115258  -0.165691
    104       0.384488   0.093722  -0.042114   0.216976  -0.127439   0.041370
    105      -0.025466  -0.068511  -0.163150   0.106156  -0.115009  -0.131983
    106       0.057434  -0.085125  -0.129150   0.027522  -0.112604  -0.082387
    107      -0.009695   0.040657  -0.023741  -0.095087   0.240820   0.154761
                 12         13         14         15         16         17    
      0      -0.013433  -0.092070   0.009930   0.004100  -0.004675  -0.084012
      1      -0.047698  -0.066734  -0.008578   0.004889   0.000051   0.046020
      2      -0.083088  -0.001695   0.007959   0.011719  -0.004747   0.228846
      3       0.062879  -0.018071   0.014172   0.001721  -0.001789  -0.047176
      4      -0.092890  -0.097066  -0.011863   0.005394  -0.001486   0.020107
      5      -0.183045   0.093125  -0.006874   0.005887  -0.005952   0.136062
      6       0.083962   0.071223   0.014591   0.000067   0.001951   0.030304
      7      -0.048333  -0.038209  -0.012666   0.000899   0.000345  -0.023714
      8      -0.103876   0.098313  -0.009007  -0.003052  -0.007520  -0.098818
      9       0.026022   0.087103   0.010057   0.000674   0.002003   0.055565
     10       0.045417   0.049988  -0.009745  -0.003771   0.004025  -0.029824
     11       0.086352   0.003089   0.007720  -0.003481  -0.008855  -0.193693
     12      -0.048840   0.013444   0.005585   0.002092  -0.000976  -0.010013
     13       0.091693   0.080744  -0.006151  -0.003712   0.005586   0.019081
     14       0.185327  -0.090743   0.024723   0.006408  -0.008722  -0.001499
     15      -0.068410  -0.076797   0.005922   0.004153  -0.004576  -0.077490
     16       0.045055   0.022623  -0.006266   0.000494   0.003873   0.055409
     17       0.098378  -0.092094   0.023628   0.013473  -0.006660   0.201571
     18      -0.042275  -0.167090   0.012265   0.006230  -0.006181  -0.056198
     19      -0.086908  -0.119488  -0.006584   0.003806  -0.000410   0.025887
     20      -0.141188  -0.009494   0.005098   0.005643   0.000045   0.134726
     21       0.106294  -0.031945   0.016968   0.000902  -0.001878  -0.061073
     22      -0.161667  -0.165647  -0.013813   0.008999  -0.003558   0.020286
     23      -0.327447   0.167524  -0.018121   0.006791  -0.005178   0.189402
     24      -0.127775  -0.135976   0.002892   0.006133  -0.007886  -0.118913
     25       0.080344   0.045926  -0.003789  -0.000035   0.005490   0.084342
     26       0.173984  -0.165973   0.035786   0.019433  -0.006503   0.309350
     27       0.039620   0.157161   0.009608  -0.000233   0.004578   0.122725
     28       0.082461   0.094734  -0.010034  -0.007362   0.005216  -0.070881
     29       0.157101   0.002767   0.007697  -0.011011  -0.009986  -0.402757
     30      -0.068975   0.120669  -0.082218   0.019531  -0.036128   0.018102
     31      -0.058519  -0.026805   0.029376  -0.002842   0.034964   0.009323
     32       0.095511  -0.086866  -0.006985   0.001535   0.011842  -0.022059
     33      -0.070083  -0.227816   0.023989   0.009436  -0.006702   0.068318
     34      -0.077104  -0.098324  -0.012849   0.001664   0.000670  -0.047204
     35      -0.163337  -0.014560  -0.018774  -0.015891   0.007994  -0.309370
     36      -0.019192  -0.035737   0.034825  -0.025982   0.008066   0.059893
     37      -0.015794   0.089906   0.033615  -0.075733  -0.032893  -0.040977
     38      -0.043369   0.004556   0.019300  -0.103444  -0.033138  -0.126509
     39       0.012196   0.041936   0.111371  -0.091592  -0.029738   0.120560
     40       0.018811   0.364187   0.130161  -0.169621  -0.078444  -0.114888
     41       0.014880   0.007487   0.136744  -0.196063  -0.090468   0.083942
     42       0.052437   0.098906  -0.160724   0.070706   0.063652   0.003543
     43       0.069328  -0.002919   0.041862   0.047929   0.006324  -0.007232
     44       0.015516   0.121293   0.010648   0.018831   0.098973   0.011366
     45       0.017672   0.149547  -0.024649   0.068110  -0.014266   0.007225
     46       0.063044  -0.010787   0.024365  -0.038863   0.095873   0.005387
     47       0.019662   0.121940  -0.004761   0.020341   0.105253   0.010800
     48      -0.032790  -0.152882   0.005895   0.003629  -0.005038  -0.128955
     49      -0.121392  -0.177172   0.002545   0.004984  -0.000717   0.076740
     50      -0.141775  -0.014521   0.024601   0.015955  -0.002984   0.401087
     51      -0.057219   0.120538  -0.078818   0.023369  -0.031777   0.002580
     52      -0.198294  -0.027681  -0.034673  -0.008613   0.007868   0.038010
     53       0.008085  -0.101550  -0.026711  -0.033819  -0.017043   0.141132
     54       0.142427   0.128561   0.017867  -0.001453   0.005058   0.074596
     55      -0.084523  -0.061373  -0.015431   0.001135  -0.001248  -0.056010
     56      -0.182121   0.173038  -0.022275  -0.009829  -0.007629  -0.219901
     57      -0.093466   0.026276   0.001788   0.002102  -0.000864  -0.000910
     58       0.163980   0.148216  -0.003202  -0.007110   0.007882   0.021494
     59       0.333305  -0.163562   0.038372   0.007485  -0.010020  -0.038040
     60       0.019615   0.113911  -0.044480   0.044125   0.016182   0.008351
     61       0.066402  -0.009400   0.034662   0.006766   0.048525  -0.000850
     62       0.021759   0.125152   0.003253   0.053445   0.070329   0.006234
     63      -0.000030   0.092048   0.029026   0.008909   0.009916   0.012114
     64       0.102029   0.016972  -0.095772   0.071615   0.061857  -0.006619
     65       0.057291   0.082515  -0.104299   0.093428   0.083444  -0.000072
     66      -0.075844   0.108712   0.271282   0.032352  -0.088429   0.004807
     67       0.147877   0.030968  -0.241177  -0.029471   0.177776   0.011206
     68       0.041455   0.071663  -0.054323   0.148865   0.028975  -0.009456
     69       0.029518   0.103536  -0.076711   0.025514   0.038550   0.012093
     70       0.124963   0.037162  -0.190020   0.118461   0.069653  -0.010403
     71       0.141222   0.060726  -0.355241  -0.021994   0.238496   0.020074
     72       0.043505   0.024292  -0.050636  -0.082156   0.069818   0.020892
     73       0.047522  -0.003371   0.075437   0.182910  -0.079929  -0.027128
     74       0.008261   0.070969   0.044719   0.193750  -0.039369  -0.018036
     75       0.088422  -0.015346  -0.282534  -0.345334   0.068514   0.063936
     76       0.005101  -0.022675   0.219348   0.263150  -0.181483  -0.041805
     77       0.025339   0.090677   0.002643   0.195390   0.022984  -0.017682
     78       0.030941   0.022185   0.059559   0.040878   0.082181  -0.000988
     79       0.047270  -0.012912   0.166519   0.296632  -0.041157  -0.048247
     80      -0.060489   0.097202   0.275602   0.395678  -0.127362  -0.049325
     81       0.048685   0.004970   0.037477   0.017767   0.083615  -0.003728
     82       0.046097   0.009295  -0.076381  -0.008422  -0.115085   0.014611
     83       0.032742  -0.006270  -0.066026  -0.024627  -0.115747   0.009917
     84       0.009034   0.040814   0.245036   0.223561   0.273560  -0.045755
     85       0.074714   0.031704  -0.182048   0.025913  -0.289931   0.025735
     86       0.024193  -0.026840  -0.047085  -0.087952  -0.051837   0.012154
     87       0.056206   0.005981  -0.073666  -0.101384   0.025309   0.023750
     88       0.041428   0.016920  -0.176494  -0.147034  -0.121241   0.044913
     89       0.089990  -0.031677  -0.247805  -0.097127  -0.389116   0.033309
     90       0.100336  -0.061515   0.002718   0.009075  -0.093151  -0.013665
     91       0.011958  -0.017390   0.037129  -0.077068   0.108044   0.005470
     92      -0.001623  -0.022340   0.034750  -0.082943   0.092683   0.003009
     93       0.098868  -0.068776   0.078635   0.090866  -0.033475  -0.033871
     94       0.022373  -0.030278   0.093311   0.014032   0.111780  -0.015015
     95      -0.053098  -0.004278   0.179225  -0.056998   0.377772  -0.012090
     96       0.108239  -0.077188   0.042826   0.056011  -0.087412  -0.027599
     97       0.003169  -0.001762  -0.033419  -0.172925   0.087110   0.028848
     98       0.017152  -0.070241  -0.009421  -0.206431   0.027608   0.012170
     99       0.133804  -0.088310  -0.138219  -0.126273  -0.292400   0.011749
    100      -0.014279  -0.040096   0.134429  -0.125334   0.291450  -0.004223
    101       0.006444  -0.004736   0.008087  -0.030663   0.029861   0.003496
    102      -0.121211   0.128498  -0.102134   0.022688  -0.042520   0.025321
    103      -0.126976  -0.033544  -0.006384  -0.007781   0.020082   0.017413
    104       0.144732  -0.205666  -0.035096  -0.033950   0.002625  -0.040766
    105       0.001301   0.058850   0.049886  -0.048407  -0.003184   0.022460
    106       0.042109   0.244577   0.081854  -0.132477  -0.062874  -0.041279
    107       0.010541   0.000869   0.082661  -0.157686  -0.068129   0.022053
                 18         19         20         21         22         23    
      0       0.014941   0.129595   0.008708   0.008540   0.003311  -0.056983
      1       0.001248   0.007991   0.005738   0.002326   0.014751  -0.038321
      2      -0.001810   0.045638   0.007931  -0.004968   0.036482  -0.003769
      3       0.006148   0.068527   0.003091   0.006094  -0.011448  -0.029208
      4       0.005110   0.032738   0.008360   0.002711   0.025496  -0.050638
      5      -0.000490   0.019286   0.007429  -0.010718   0.070996   0.015574
      6      -0.006929  -0.014380  -0.003247  -0.000931  -0.009930   0.021315
      7      -0.000699  -0.030702   0.002633   0.000949   0.008774  -0.022426
      8       0.005448  -0.008799   0.002565  -0.005062   0.026344   0.016068
      9      -0.007489  -0.010246  -0.000567  -0.005300   0.020488   0.025711
     10      -0.012089  -0.130426  -0.007224  -0.000579  -0.026782   0.018510
     11       0.011098   0.007283  -0.004532   0.012442  -0.080939  -0.011796
     12       0.003044   0.055875   0.004433   0.001804   0.006681  -0.014632
     13      -0.017810  -0.161359  -0.009238  -0.004738  -0.014108   0.038098
     14       0.007736   0.049621   0.001456   0.004170  -0.005898  -0.012293
     15       0.015274   0.134203   0.009090   0.010866  -0.009877  -0.063670
     16      -0.011500  -0.095547  -0.001984  -0.004034   0.013732   0.005376
     17       0.001636   0.070374   0.010631  -0.009656   0.086696  -0.003943
     18       0.009404   0.092598   0.005670  -0.003193   0.029980   0.024462
     19       0.000125  -0.007889  -0.001394   0.002981  -0.025954   0.009595
     20      -0.001023   0.012852  -0.007622   0.020432  -0.134928  -0.027520
     21       0.006812   0.066083   0.002205   0.007335  -0.021114  -0.030169
     22       0.012087   0.095258   0.014694   0.005957   0.039099  -0.085728
     23      -0.004399   0.006237   0.008332  -0.017248   0.103352   0.030462
     24       0.026379   0.213839   0.015456   0.017123  -0.010433  -0.107374
     25      -0.016986  -0.131443  -0.004803  -0.007391   0.017061   0.026385
     26       0.001165   0.108120   0.014912  -0.013120   0.125688  -0.013552
     27      -0.016491  -0.063761  -0.002960  -0.013185   0.046387   0.058543
     28      -0.015360  -0.173598  -0.012487   0.000976  -0.056754   0.033260
     29       0.017227  -0.015490  -0.013850   0.028718  -0.196544  -0.027063
     30      -0.192517   0.042553   0.119591  -0.235937  -0.038351   0.009350
     31       0.138224  -0.018140  -0.017590  -0.008080   0.025302   0.011349
     32       0.049764   0.014260   0.095558  -0.000857   0.079271   0.017049
     33      -0.008158  -0.021385  -0.011273  -0.004197  -0.040323   0.129373
     34       0.006365   0.023018   0.005300   0.001954   0.008856  -0.024968
     35      -0.002181  -0.106269   0.001854  -0.013196   0.027666   0.034600
     36      -0.037135  -0.352994  -0.005446  -0.005191   0.007608   0.019375
     37      -0.009821   0.230917  -0.031832   0.019947  -0.012166   0.180211
     38      -0.090715  -0.039718  -0.084844   0.058326  -0.000681   0.065501
     39      -0.043731  -0.386488   0.070874  -0.025368   0.003258  -0.415180
     40       0.002392   0.248555   0.116754   0.031324  -0.037159  -0.689742
     41      -0.111830  -0.136716   0.008434   0.004924   0.002394  -0.425279
     42      -0.086629  -0.028077  -0.169269   0.215563   0.038041  -0.049107
     43       0.070064   0.065320  -0.051367  -0.141162  -0.012899   0.079074
     44       0.154914  -0.048814   0.351249  -0.002612  -0.026948  -0.017128
     45       0.068852   0.006118   0.081581   0.409846   0.047660   0.051137
     46       0.082416  -0.052557   0.228648  -0.278253  -0.052975  -0.053481
     47       0.135249  -0.044104   0.331092  -0.021371  -0.027923  -0.021827
     48       0.012065   0.092013   0.014595  -0.017276   0.117066   0.026129
     49      -0.013719  -0.103646  -0.017378   0.004608  -0.101267   0.093451
     50       0.001964   0.081262  -0.036489   0.076837  -0.440575  -0.109159
     51      -0.177145   0.036327   0.135586  -0.256383   0.034714   0.008339
     52       0.066992  -0.014480  -0.115752   0.240394  -0.019728  -0.015377
     53      -0.042041   0.066575  -0.111765   0.276838  -0.792340   0.054451
     54      -0.017078  -0.083479  -0.009270  -0.004463  -0.021234   0.056736
     55       0.004536   0.001504   0.005580   0.002558   0.014930  -0.039450
     56       0.006115  -0.045893   0.000907  -0.008185   0.032936   0.032158
     57       0.003012   0.058407   0.005877   0.000456   0.015423  -0.015071
     58      -0.025985  -0.229306  -0.016234  -0.007711  -0.027930   0.075874
[...]
     73       0.000005  -0.000122  -0.000036   0.000005   0.000027   0.000087
     74       0.000020  -0.000014   0.000167  -0.000012   0.000052  -0.000005
     75       0.000029   0.000342   0.000149  -0.000209   0.000321   0.000361
     76      -0.000426   0.001514  -0.000508  -0.001516   0.000235   0.000018
     77      -0.000512   0.000399  -0.002592  -0.004812  -0.000748   0.000183
     78      -0.000235  -0.000516   0.000438  -0.002219   0.000096   0.000885
     79       0.000252   0.000289   0.000028   0.002497  -0.000108  -0.001195
     80       0.000241  -0.000312   0.000528   0.000288  -0.000078   0.000355
     81       0.000016   0.000051   0.000106   0.000070  -0.000021  -0.000005
     82      -0.000014  -0.000063   0.000014  -0.000020   0.000009   0.000000
     83       0.000001   0.000026   0.000120   0.000090   0.000001   0.000029
     84       0.000045  -0.000170  -0.000590  -0.000238  -0.000104  -0.000112
     85       0.000001  -0.000216  -0.001167  -0.000456  -0.000105  -0.000205
     86       0.000009  -0.000397  -0.001384  -0.000469  -0.000091  -0.000345
     87      -0.000135  -0.000615  -0.000894  -0.000093   0.000198   0.000442
     88       0.000143   0.000477   0.000640   0.000073  -0.000117  -0.000029
     89       0.000045   0.000057   0.000118   0.000048  -0.000069  -0.000073
     90       0.000101   0.000057   0.000010  -0.000002   0.000004  -0.000032
     91      -0.000052  -0.000062   0.000048   0.000003   0.000016   0.000013
     92       0.000016   0.000010   0.000003   0.000011   0.000024   0.000014
     93      -0.001211  -0.000455   0.000390  -0.000107  -0.000022   0.000245
     94       0.001067   0.000345  -0.000251   0.000198   0.000018  -0.000251
     95       0.000310  -0.000094  -0.000046  -0.000007   0.000024   0.000021
     96      -0.000131  -0.000073  -0.000861  -0.000328  -0.000033   0.000113
     97      -0.000100   0.000015  -0.000650  -0.000316  -0.000033   0.000067
     98      -0.000003  -0.000026   0.000171   0.000128  -0.000020  -0.000067
     99       0.000065  -0.000088   0.000034  -0.000006  -0.000002   0.000040
    100      -0.000363   0.000189  -0.000010  -0.000096  -0.000111   0.000014
    101      -0.000615  -0.000002  -0.000144  -0.000453  -0.000229  -0.000017
    102      -0.000189   0.000297   0.001780  -0.000222   0.000252   0.046966
    103       0.000131  -0.000065  -0.001249   0.000244   0.000180   0.038519
    104      -0.000047   0.000154   0.000151  -0.000133  -0.000003   0.001540
    105       0.000344   0.052679  -0.007905  -0.000252  -0.035787   0.000077
    106      -0.000192  -0.030854   0.004063   0.000198  -0.007789   0.000091
    107       0.000057   0.009547  -0.000584  -0.000175   0.047797  -0.000231


-----------
IR SPECTRUM  
-----------

 Mode    freq (cm**-1)   T**2         TX         TY         TZ
-------------------------------------------------------------------
   7:        27.25    0.000000  (  0.000000   0.000000   0.000000)
   8:        38.76    0.000000  (  0.000000   0.000000   0.000000)
   9:        42.31    0.000000  (  0.000000   0.000000   0.000000)
  10:        52.45    0.000000  (  0.000000   0.000000   0.000000)
  11:        54.11    0.000000  (  0.000000   0.000000   0.000000)
  12:        60.81    0.000000  (  0.000000   0.000000   0.000000)
  13:        67.62    0.000000  (  0.000000   0.000000   0.000000)
  14:        81.99    0.000000  (  0.000000   0.000000   0.000000)
  15:       109.23    0.000000  (  0.000000   0.000000   0.000000)
  16:       124.86    0.000000  (  0.000000   0.000000   0.000000)
  17:       132.07    0.000000  (  0.000000   0.000000   0.000000)
  18:       143.28    0.000000  (  0.000000   0.000000   0.000000)
  19:       152.65    0.000000  (  0.000000   0.000000   0.000000)
  20:       198.26    0.000000  (  0.000000   0.000000   0.000000)
  21:       231.19    0.000000  (  0.000000   0.000000   0.000000)
  22:       239.76    0.000000  (  0.000000   0.000000   0.000000)
  23:       251.30    0.000000  (  0.000000   0.000000   0.000000)
  24:       259.51    0.000000  (  0.000000   0.000000   0.000000)
  25:       263.60    0.000000  (  0.000000   0.000000   0.000000)
  26:       277.23    0.000000  (  0.000000   0.000000   0.000000)
  27:       374.08    0.000000  (  0.000000   0.000000   0.000000)
  28:       379.68    0.000000  (  0.000000   0.000000   0.000000)
  29:       394.04    0.000000  (  0.000000   0.000000   0.000000)
  30:       418.50    0.000000  (  0.000000   0.000000   0.000000)
  31:       426.63    0.000000  (  0.000000   0.000000   0.000000)
  32:       440.68    0.000000  (  0.000000   0.000000   0.000000)
  33:       449.11    0.000000  (  0.000000   0.000000   0.000000)
  34:       473.65    0.000000  (  0.000000   0.000000   0.000000)
  35:       585.55    0.000000  (  0.000000   0.000000   0.000000)
  36:       627.10    0.000000  (  0.000000   0.000000   0.000000)
  37:       651.24    0.000000  (  0.000000   0.000000   0.000000)
  38:       656.83    0.000000  (  0.000000   0.000000   0.000000)
  39:       723.24    0.000000  (  0.000000   0.000000   0.000000)
  40:       740.02    0.000000  (  0.000000   0.000000   0.000000)
  41:       779.47    0.000000  (  0.000000   0.000000   0.000000)
  42:       827.72    0.000000  (  0.000000   0.000000   0.000000)
  43:       830.61    0.000000  (  0.000000   0.000000   0.000000)
  44:       870.01    0.000000  (  0.000000   0.000000   0.000000)
  45:       902.90    0.000000  (  0.000000   0.000000   0.000000)
  46:       922.01    0.000000  (  0.000000   0.000000   0.000000)
  47:       930.22    0.000000  (  0.000000   0.000000   0.000000)
  48:       933.75    0.000000  (  0.000000   0.000000   0.000000)
  49:       935.13    0.000000  (  0.000000   0.000000   0.000000)
  50:       939.56    0.000000  (  0.000000   0.000000   0.000000)
  51:       984.46    0.000000  (  0.000000   0.000000   0.000000)
  52:      1003.10    0.000000  (  0.000000   0.000000   0.000000)
  53:      1007.20    0.000000  (  0.000000   0.000000   0.000000)
  54:      1062.51    0.000000  (  0.000000   0.000000   0.000000)
  55:      1064.53    0.000000  (  0.000000   0.000000   0.000000)
  56:      1095.06    0.000000  (  0.000000   0.000000   0.000000)
  57:      1112.41    0.000000  (  0.000000   0.000000   0.000000)
  58:      1122.49    0.000000  (  0.000000   0.000000   0.000000)
  59:      1152.21    0.000000  (  0.000000   0.000000   0.000000)
  60:      1176.36    0.000000  (  0.000000   0.000000   0.000000)
  61:      1179.03    0.000000  (  0.000000   0.000000   0.000000)
  62:      1204.67    0.000000  (  0.000000   0.000000   0.000000)
  63:      1214.99    0.000000  (  0.000000   0.000000   0.000000)
  64:      1239.18    0.000000  (  0.000000   0.000000   0.000000)
  65:      1269.06    0.000000  (  0.000000   0.000000   0.000000)
  66:      1276.50    0.000000  (  0.000000   0.000000   0.000000)
  67:      1278.68    0.000000  (  0.000000   0.000000   0.000000)
  68:      1290.83    0.000000  (  0.000000   0.000000   0.000000)
  69:      1306.56    0.000000  (  0.000000   0.000000   0.000000)
  70:      1351.45    0.000000  (  0.000000   0.000000   0.000000)
  71:      1364.83    0.000000  (  0.000000   0.000000   0.000000)
  72:      1378.72    0.000000  (  0.000000   0.000000   0.000000)
  73:      1426.42    0.000000  (  0.000000   0.000000   0.000000)
  74:      1427.17    0.000000  (  0.000000   0.000000   0.000000)
  75:      1447.61    0.000000  (  0.000000   0.000000   0.000000)
  76:      1491.75    0.000000  (  0.000000   0.000000   0.000000)
  77:      1505.35    0.000000  (  0.000000   0.000000   0.000000)
  78:      1508.12    0.000000  (  0.000000   0.000000   0.000000)
  79:      1511.58    0.000000  (  0.000000   0.000000   0.000000)
  80:      1514.52    0.000000  (  0.000000   0.000000   0.000000)
  81:      1545.35    0.000000  (  0.000000   0.000000   0.000000)
  82:      1548.89    0.000000  (  0.000000   0.000000   0.000000)
  83:      1561.04    0.000000  (  0.000000   0.000000   0.000000)
  84:      1564.37    0.000000  (  0.000000   0.000000   0.000000)
  85:      1566.95    0.000000  (  0.000000   0.000000   0.000000)
  86:      1652.13    0.000000  (  0.000000   0.000000   0.000000)
  87:      2871.87    0.000000  (  0.000000   0.000000   0.000000)
  88:      2883.55    0.000000  (  0.000000   0.000000   0.000000)
  89:      2933.83    0.000000  (  0.000000   0.000000   0.000000)
  90:      2946.01    0.000000  (  0.000000   0.000000   0.000000)
  91:      2966.64    0.000000  (  0.000000   0.000000   0.000000)
  92:      2973.62    0.000000  (  0.000000   0.000000   0.000000)
  93:      2974.56    0.000000  (  0.000000   0.000000   0.000000)
  94:      2979.11    0.000000  (  0.000000   0.000000   0.000000)
  95:      2979.40    0.000000  (  0.000000   0.000000   0.000000)
  96:      2985.56    0.000000  (  0.000000   0.000000   0.000000)
  97:      2998.00    0.000000  (  0.000000   0.000000   0.000000)
  98:      3059.94    0.000000  (  0.000000   0.000000   0.000000)
  99:      3062.27    0.000000  (  0.000000   0.000000   0.000000)
 100:      3069.29    0.000000  (  0.000000   0.000000   0.000000)
 101:      3077.00    0.000000  (  0.000000   0.000000   0.000000)
 102:      3081.57    0.000000  (  0.000000   0.000000   0.000000)
 103:      3261.00    0.000000  (  0.000000   0.000000   0.000000)
 104:      3327.83    0.000000  (  0.000000   0.000000   0.000000)
 105:      3413.48    0.000000  (  0.000000   0.000000   0.000000)
 106:      3582.58    0.000000  (  0.000000   0.000000   0.000000)
 107:      3597.58    0.000000  (  0.000000   0.000000   0.000000)

The first frequency considered to be a vibration is 7
The total number of vibrations considered is 101


--------------------------
THERMOCHEMISTRY AT 298.15K
--------------------------

Temperature         ... 298.15 K
Pressure            ... 1.00 atm
Total Mass          ... 215.29 AMU

Throughout the following assumptions are being made:
  (1) The electronic state is orbitally nondegenerate
  (2) There are no thermally accessible electronically excited states
  (3) Hindered rotations indicated by low frequency modes are not
      treated as such but are treated as vibrations and this may
      cause some error
  (4) All equations used are the standard statistical mechanics
      equations for an ideal gas
  (5) All vibrations are strictly harmonic

freq.      27.25  E(vib)   ...       0.55 
freq.      38.76  E(vib)   ...       0.54 
freq.      42.31  E(vib)   ...       0.53 
freq.      52.45  E(vib)   ...       0.52 
freq.      54.11  E(vib)   ...       0.52 
freq.      60.81  E(vib)   ...       0.51 
freq.      67.62  E(vib)   ...       0.50 
freq.      81.99  E(vib)   ...       0.48 
freq.     109.23  E(vib)   ...       0.45 
freq.     124.86  E(vib)   ...       0.43 
freq.     132.07  E(vib)   ...       0.42 
freq.     143.28  E(vib)   ...       0.41 
freq.     152.65  E(vib)   ...       0.40 
freq.     198.26  E(vib)   ...       0.35 
freq.     231.19  E(vib)   ...       0.32 
freq.     239.76  E(vib)   ...       0.31 
freq.     251.30  E(vib)   ...       0.30 
freq.     259.51  E(vib)   ...       0.30 
freq.     263.60  E(vib)   ...       0.29 
freq.     277.23  E(vib)   ...       0.28 
freq.     374.08  E(vib)   ...       0.21 
freq.     379.68  E(vib)   ...       0.21 
freq.     394.04  E(vib)   ...       0.20 
freq.     418.50  E(vib)   ...       0.18 
freq.     426.63  E(vib)   ...       0.18 
freq.     440.68  E(vib)   ...       0.17 
freq.     449.11  E(vib)   ...       0.17 
freq.     473.65  E(vib)   ...       0.15 
freq.     585.55  E(vib)   ...       0.11 
freq.     627.10  E(vib)   ...       0.09 
freq.     651.24  E(vib)   ...       0.08 
freq.     656.83  E(vib)   ...       0.08 
freq.     723.24  E(vib)   ...       0.07 
freq.     740.02  E(vib)   ...       0.06 
freq.     779.47  E(vib)   ...       0.05 
freq.     827.72  E(vib)   ...       0.04 
freq.     830.61  E(vib)   ...       0.04 
freq.     870.01  E(vib)   ...       0.04 
freq.     902.90  E(vib)   ...       0.03 
freq.     922.01  E(vib)   ...       0.03 
freq.     930.22  E(vib)   ...       0.03 
freq.     933.75  E(vib)   ...       0.03 
freq.     935.13  E(vib)   ...       0.03 
freq.     939.56  E(vib)   ...       0.03 
freq.     984.46  E(vib)   ...       0.02 
freq.    1003.10  E(vib)   ...       0.02 
freq.    1007.20  E(vib)   ...       0.02 
freq.    1062.51  E(vib)   ...       0.02 
freq.    1064.53  E(vib)   ...       0.02 
freq.    1095.06  E(vib)   ...       0.02 
freq.    1112.41  E(vib)   ...       0.01 
freq.    1122.49  E(vib)   ...       0.01 
freq.    1152.21  E(vib)   ...       0.01 
freq.    1176.36  E(vib)   ...       0.01 
freq.    1179.03  E(vib)   ...       0.01 
freq.    1204.67  E(vib)   ...       0.01 
freq.    1214.99  E(vib)   ...       0.01 
freq.    1239.18  E(vib)   ...       0.01 
freq.    1269.06  E(vib)   ...       0.01 
freq.    1276.50  E(vib)   ...       0.01 
freq.    1278.68  E(vib)   ...       0.01 
freq.    1290.83  E(vib)   ...       0.01 
freq.    1306.56  E(vib)   ...       0.01 
freq.    1351.45  E(vib)   ...       0.01 
freq.    1364.83  E(vib)   ...       0.01 
freq.    1378.72  E(vib)   ...       0.01 
freq.    1426.42  E(vib)   ...       0.00 
freq.    1427.17  E(vib)   ...       0.00 
freq.    1447.61  E(vib)   ...       0.00 
freq.    1491.75  E(vib)   ...       0.00 
freq.    1505.35  E(vib)   ...       0.00 
freq.    1508.12  E(vib)   ...       0.00 
freq.    1511.58  E(vib)   ...       0.00 
freq.    1514.52  E(vib)   ...       0.00 
freq.    1545.35  E(vib)   ...       0.00 
freq.    1548.89  E(vib)   ...       0.00 
freq.    1561.04  E(vib)   ...       0.00 
freq.    1564.37  E(vib)   ...       0.00 
freq.    1566.95  E(vib)   ...       0.00 
freq.    1652.13  E(vib)   ...       0.00 
freq.    2871.87  E(vib)   ...       0.00 
freq.    2883.55  E(vib)   ...       0.00 
freq.    2933.83  E(vib)   ...       0.00 
freq.    2946.01  E(vib)   ...       0.00 
freq.    2966.64  E(vib)   ...       0.00 
freq.    2973.62  E(vib)   ...       0.00 
freq.    2974.56  E(vib)   ...       0.00 
freq.    2979.11  E(vib)   ...       0.00 
freq.    2979.40  E(vib)   ...       0.00 
freq.    2985.56  E(vib)   ...       0.00 
freq.    2998.00  E(vib)   ...       0.00 
freq.    3059.94  E(vib)   ...       0.00 
freq.    3062.27  E(vib)   ...       0.00 
freq.    3069.29  E(vib)   ...       0.00 
freq.    3077.00  E(vib)   ...       0.00 
freq.    3081.57  E(vib)   ...       0.00 
freq.    3261.00  E(vib)   ...       0.00 
freq.    3327.83  E(vib)   ...       0.00 
freq.    3413.48  E(vib)   ...       0.00 
freq.    3582.58  E(vib)   ...       0.00 
freq.    3597.58  E(vib)   ...       0.00 

------------
INNER ENERGY
------------

The inner energy is: U= E(el) + E(ZPE) + E(vib) + E(rot) + E(trans)
    E(el)   - is the total energy from the electronic structure calculation
              = E(kin-el) + E(nuc-el) + E(el-el) + E(nuc-nuc)
    E(ZPE)  - the the zero temperature vibrational energy from the frequency calculation
    E(vib)  - the the finite temperature correction to E(ZPE) due to population
              of excited vibrational states
    E(rot)  - is the rotational thermal energy
    E(trans)- is the translational thermal energy

Summary of contributions to the inner energy U:
Electronic energy                ...    -49.35050211 Eh
Zero point energy                ...      0.29946687 Eh     187.92 kcal/mol
Thermal vibrational correction   ...      0.01764843 Eh      11.07 kcal/mol
Thermal rotational correction    ...      0.00141627 Eh       0.89 kcal/mol
Thermal translational correction ...      0.00141627 Eh       0.89 kcal/mol
-----------------------------------------------------------------------
Total thermal energy                    -49.03055426 Eh


Summary of corrections to the electronic energy:
(perhaps to be used in another calculation)
Total thermal correction                  0.02048097 Eh      12.85 kcal/mol
Non-thermal (ZPE) correction              0.29946687 Eh     187.92 kcal/mol
-----------------------------------------------------------------------
Total correction                          0.31994784 Eh     200.77 kcal/mol


--------
ENTHALPY
--------

The enthalpy is H = U + kB*T
                kB is Boltzmann's constant
Total free energy                 ...    -49.03055426 Eh 
Thermal Enthalpy correction       ...      0.00094421 Eh       0.59 kcal/mol
-----------------------------------------------------------------------
Total Enthalpy                    ...    -49.02961005 Eh


Note: Only C1 symmetry has been detected, increase convergence thresholds 
      if your molecule has a higher symmetry. Symmetry factor of 1.0 is   
      used for the rotational entropy correction. 
 

Note: Rotational entropy computed according to Herzberg 
Infrared and Raman Spectra, Chapter V,1, Van Nostrand Reinhold, 1945 
Point Group:  C1, Symmetry Number:   1  
Rotational constants in cm-1:     0.020505     0.009306     0.007420 

Vibrational entropy computed according to the QRRHO of S. Grimme
Chem.Eur.J. 2012 18 9955


-------
ENTROPY
-------

The entropy contributions are T*S = T*(S(el)+S(vib)+S(rot)+S(trans))
     S(el)   - electronic entropy
     S(vib)  - vibrational entropy
     S(rot)  - rotational entropy
     S(trans)- translational entropy
The entropies will be listed as mutliplied by the temperature to get
units of energy

Electronic entropy                ...      0.00000000 Eh      0.00 kcal/mol
Vibrational entropy               ...      0.03218825 Eh     20.20 kcal/mol
Rotational entropy                ...      0.01586881 Eh      9.96 kcal/mol
Translational entropy             ...      0.01995728 Eh     12.52 kcal/mol
-----------------------------------------------------------------------
Final entropy term                ...      0.06801434 Eh     42.68 kcal/mol

In case the symmetry of your molecule has not been determined correctly
or in case you have a reason to use a different symmetry number we print 
out the resulting rotational entropy values for sn=1,12 :
 --------------------------------------------------------
|  sn= 1 | S(rot)=       0.01586881 Eh      9.96 kcal/mol|
|  sn= 2 | S(rot)=       0.01521436 Eh      9.55 kcal/mol|
|  sn= 3 | S(rot)=       0.01483152 Eh      9.31 kcal/mol|
|  sn= 4 | S(rot)=       0.01455990 Eh      9.14 kcal/mol|
|  sn= 5 | S(rot)=       0.01434921 Eh      9.00 kcal/mol|
|  sn= 6 | S(rot)=       0.01417707 Eh      8.90 kcal/mol|
|  sn= 7 | S(rot)=       0.01403152 Eh      8.80 kcal/mol|
|  sn= 8 | S(rot)=       0.01390544 Eh      8.73 kcal/mol|
|  sn= 9 | S(rot)=       0.01379424 Eh      8.66 kcal/mol|
|  sn=10 | S(rot)=       0.01369476 Eh      8.59 kcal/mol|
|  sn=11 | S(rot)=       0.01360477 Eh      8.54 kcal/mol|
|  sn=12 | S(rot)=       0.01352261 Eh      8.49 kcal/mol|
 --------------------------------------------------------


-------------------
GIBBS FREE ENERGY
-------------------

The Gibbs free energy is G = H - T*S

Total enthalpy                    ...    -49.02961005 Eh 
Total entropy correction          ...     -0.06801434 Eh    -42.68 kcal/mol
-----------------------------------------------------------------------
Final Gibbs free energy         ...    -49.09762440 Eh

For completeness - the Gibbs free energy minus the electronic energy
G-E(el)                           ...      0.25287771 Eh    158.68 kcal/mol


Total Time for Numerical Frequencies  :        85.909 sec
Time for Reference State(s)           :         0.135 sec
Time for Displacements                :        77.508 sec

Timings for individual modules:

Sum of individual times         ...        0.628 sec (=   0.010 min)
XTB module                      ...        0.628 sec (=   0.010 min) 100.0 %
                             ****ORCA TERMINATED NORMALLY****
TOTAL RUN TIME: 0 days 0 hours 1 minutes 27 seconds 306 msec
(SLURM) EXECUTION TIME: 87.339938875 seconds.
