(SLURM) JOB ID:         84

                                 *****************
                                 * O   R   C   A *
                                 *****************

           --- An Ab Initio, DFT and Semiempirical electronic structure package ---

                  #######################################################
                  #                        -***-                        #
                  #          Department of theory and spectroscopy      #
                  #               Directorship: Frank Neese             #
                  #        Max Planck Institute fuer Kohlenforschung    #
                  #                Kaiser Wilhelm Platz 1               #
                  #                 D-45470 Muelheim/Ruhr               #
                  #                      Germany                        #
                  #                                                     #
                  #                  All rights reserved                #
                  #                        -***-                        #
                  #######################################################


                         Program Version 4.2.1 -  RELEASE  -


 With contributions from (in alphabetic order):
   Daniel Aravena         : Magnetic Suceptibility
   Michael Atanasov       : Ab Initio Ligand Field Theory (pilot matlab implementation)
   Alexander A. Auer      : GIAO ZORA, VPT2
   Ute Becker             : Parallelization
   Giovanni Bistoni       : ED, misc. LED, open-shell LED, HFLD
   Martin Brehm           : Molecular dynamics
   Dmytro Bykov           : SCF Hessian
   Vijay G. Chilkuri      : MRCI spin determinant printing, contributions to CSF-ICE
   Dipayan Datta          : RHF DLPNO-CCSD density
   Achintya Kumar Dutta   : EOM-CC, STEOM-CC
   Dmitry Ganyushin       : Spin-Orbit,Spin-Spin,Magnetic field MRCI
   Miquel Garcia          : C-PCM Hessian, Gaussian charge scheme
   Yang Guo               : DLPNO-NEVPT2, CIM, IAO-localization
   Andreas Hansen         : Spin unrestricted coupled pair/coupled cluster methods
   Benjamin Helmich-Paris : CASSCF linear response (MC-RPA)
   Lee Huntington         : MR-EOM, pCC
   Robert Izsak           : Overlap fitted RIJCOSX, COSX-SCS-MP3, EOM
   Christian Kollmar      : KDIIS, OOCD, Brueckner-CCSD(T), CCSD density
   Simone Kossmann        : Meta GGA functionals, TD-DFT gradient, OOMP2, MP2 Hessian
   Martin Krupicka        : AUTO-CI
   Lucas Lang             : DCDCAS
   Dagmar Lenk            : GEPOL surface, SMD
   Dimitrios Liakos       : Extrapolation schemes; Compound Job, initial MDCI parallelization
   Dimitrios Manganas     : Further ROCIS development; embedding schemes
   Dimitrios Pantazis     : SARC Basis sets
   Taras Petrenko         : DFT Hessian,TD-DFT gradient, ASA, ECA, R-Raman, ABS, FL, XAS/XES, NRVS
   Peter Pinski           : DLPNO-MP2, DLPNO-MP2 Gradient
   Christoph Reimann      : Effective Core Potentials
   Marius Retegan         : Local ZFS, SOC
   Christoph Riplinger    : Optimizer, TS searches, QM/MM, DLPNO-CCSD(T), (RO)-DLPNO pert. Triples
   Tobias Risthaus        : Range-separated hybrids, TD-DFT gradient, RPA, STAB
   Michael Roemelt        : Original ROCIS implementation
   Masaaki Saitow         : Open-shell DLPNO-CCSD energy and density
   Barbara Sandhoefer     : DKH picture change effects
   Avijit Sen             : IP-ROCIS
   Kantharuban Sivalingam : CASSCF convergence, NEVPT2, FIC-MRCI
   Bernardo de Souza      : ESD, SOC TD-DFT
   Georgi Stoychev        : AutoAux, RI-MP2 NMR
   Willem Van den Heuvel  : Paramagnetic NMR
   Boris Wezisla          : Elementary symmetry handling
   Frank Wennmohs         : Technical directorship


 We gratefully acknowledge several colleagues who have allowed us to
 interface, adapt or use parts of their codes:
   Stefan Grimme, W. Hujo, H. Kruse,             : VdW corrections, initial TS optimization,
                  C. Bannwarth                     DFT functionals, gCP, sTDA/sTD-DF
   Ed Valeev, F. Pavosevic, A. Kumar             : LibInt (2-el integral package), F12 methods
   Garnet Chan, S. Sharma, J. Yang, R. Olivares  : DMRG
   Ulf Ekstrom                                   : XCFun DFT Library
   Mihaly Kallay                                 : mrcc  (arbitrary order and MRCC methods)
   Andreas Klamt, Michael Diedenhofen            : otool_cosmo (COSMO solvation model)
   Jiri Pittner, Ondrej Demel                    : Mk-CCSD
   Frank Weinhold                                : gennbo (NPA and NBO analysis)
   Christopher J. Cramer and Donald G. Truhlar   : smd solvation model
   Lars Goerigk                                  : TD-DFT with DH, B97 family of functionals
   V. Asgeirsson, H. Jonsson                     : NEB implementation
   FAccTs GmbH                                   : IRC, NEB, NEB-TS, Multilevel, MM, QM/MM, CI optimization
   S Lehtola, MJT Oliveira, MAL Marques          : LibXC Library


 Your calculation uses the libint2 library for the computation of 2-el integrals
 For citations please refer to: http://libint.valeyev.net

 Your ORCA version has been built with support for libXC version: 4.2.3
 For citations please refer to: https://tddft.org/programs/libxc/

 This ORCA versions uses:
   CBLAS   interface :  Fast vector & matrix operations
   LAPACKE interface :  Fast linear algebra routines
   SCALAPACK package :  Parallel linear algebra routines




***************************************
The coordinates will be read from file: init.xyz
***************************************


Your calculation utilizes the SMD solvation module
Please cite in your paper:
A.V. Marenich, C.J. Cramer, D.G. Truhlar J. Phys. Chem. B, 113, (2009), 6378 

Your calculation utilizes the semiempirical GFN2-xTB method
Please cite in your paper:
C. Bannwarth, Ehlert S., S. Grimme,  J. Chem. Theory Comput., 15, (2019), 1652.
   

----- Orbital basis set information -----
Your calculation utilizes the basis: def2-SVP
   F. Weigend and R. Ahlrichs, Phys. Chem. Chem. Phys. 7, 3297 (2005).

================================================================================
                                        WARNINGS
                       Please study these warnings very carefully!
================================================================================

WARNING: Gradients needed for Numerical Frequencies
  ===> : Setting RunTyp to EnGrad

WARNING: The environment variable RSH_COMMAND is not set!
  ===> : All Displacements for the Numerical Hessian calculation
         will be started on localhost

WARNING: Found dipole moment calculation with XTB calculation
  ===> : Switching off dipole moment calculation


INFO   : the flag for use of LIBINT has been found!

================================================================================
                                       INPUT FILE
================================================================================
NAME = /tmp/slurm-scratch/freq.84/freq.inp
|  1> ! XTB2 NumFreq
|  2> %maxcore 1450
|  3> 
|  4> * xyzfile 0 1 init.xyz
|  5> 
|  6> %cpcm
|  7>  smd true
|  8>  smdsolvent "ch2cl2"
|  9> end
| 10> %pal nprocs 8 end
| 11> 
| 12>                          ****END OF INPUT****
================================================================================

                     *******************************
                     * Energy+Gradient Calculation *
                     *******************************

      -----------------------------------------------------------      
     |                   =====================                   |     
     |                           x T B                           |     
     |                   =====================                   |     
     |                         S. Grimme                         |     
     |          Mulliken Center for Theoretical Chemistry        |     
     |                    University of Bonn                     |     
      -----------------------------------------------------------      

   * xtb version 6.3.0 (preview) compiled by 'ehlert@majestix' on 2020-01-15

   This program is distributed in the hope that it will be useful,
   but WITHOUT ANY WARRANTY; without even the implied warranty of
   MERCHANTABILITY or FITNESS FOR A PARTICULAR PURPOSE.
   
   FOR NON-COMMERCIAL, ACADEMIA USE ONLY.
   
   Cite this work as:
   * S. Grimme, C. Bannwarth, P. Shushkov, J. Chem. Theory Comput., 2017,
     13, 1989-2009. DOI: 10.1021/acs.jctc.7b00118
   * C. Bannwarth, S. Ehlert and S. Grimme., J. Chem. Theory Comput., 2019,
     15, 1652-1671. DOI: 10.1021/acs.jctc.8b01176
   * P. Pracht, E. Caldeweyher, S. Ehlert, S. Grimme, ChemRxiv, 2019, preprint.
     DOI: 10.26434/chemrxiv.8326202.v1
   * S. Grimme, S. Spicher unpublished
   
   for DFT-D4:
   * E. Caldeweyher, C. Bannwarth and S. Grimme, J. Chem. Phys., 2017,
     147, 034112. DOI: 10.1063/1.4993215
   * E. Caldeweyher, S. Ehlert, A. Hansen, H. Neugebauer, S. Spicher,
     C. Bannwarth and S. Grimme, J. Chem. Phys., 2019, 150, 154122.
     DOI: 10.1063/1.5090222
   
   for sTDA-xTB:
   * S. Grimme and C. Bannwarth, J. Chem. Phys., 2016, 145, 054103.
     DOI: 10.1063/1.4959605
   
   in the mass-spec context:
   * V. Asgeirsson, C. Bauer and S. Grimme, Chem. Sci., 2017, 8, 4879.
     DOI: 10.1039/c7sc00601b
   
   for metadynamics refer to:
   * S. Grimme, J. Chem. Theory Comput., 2019, 155, 2847-2862
     DOI: 10.1021/acs.jctc.9b00143
   
   with help from (in alphabetical order)
   C. Bannwarth, F. Bohle, G. Brandenburg, E. Caldeweyher, M. Checinski,
   S. Dohm, S. Ehlert, S. Ehrlich, F. März, H. Neugebauer, J. Pisarek,
   P. Pracht, P. Shushkov, and S. Spicher.
   
 * started run on 2020/08/10 at 03:20:46.474     

           -------------------------------------------------
          |                Calculation Setup                |
           -------------------------------------------------

          program call               : /opt/orca/otool_xtb /tmp/slurm-scratch/freq.84/freq_XTB.xyz --grad -c 0 -u 0 -P 8 --namespace /tmp/slurm-scratch/freq.84/freq --gbsa CH2Cl2
          hostname                   : headnode-pbs
          calculation namespace      : /tmp/slurm-scratch/freq.84/freq
          coordinate file            : /tmp/slurm-scratch/freq.84/freq_XTB.xyz
          omp threads                :                     8
          number of atoms            :                    33
          number of electrons        :                    80
          charge                     :                     0
          spin                       :                   0.0
          first test random number   :      0.40013480932054


molecular fragmentation (1/2 indicates fragments):
111111111111111211111112111111111
# atoms in fragment 1/2:    31     2
 fragment masses (1/2) :      180.27       17.01
CMA distance (Bohr)    :   6.522
constraining FC (au)   :  0.0500

########################################################################
# WARNING! Please study the warnings concerning your input carefully
#  - Process number higher than OMP_NUM_THREADS, I hope you know what you are doing.
########################################################################

           ------------------------------------------------- 
          |                 G F N 2 - x T B                 |
          | Geometry, Frequencies, Noncovalent interactions |
          |            JCTC 2019 parametrisation            |
           ------------------------------------------------- 
             k(s)              :                1.8500
             k(p)              :                2.2300
             k(d)              :                2.2300
             k(f)              :                2.0000
             kEN (H0ij)        :               -2.0000
             D4 a1             :                0.5200
             D4 a2             :                5.0000
             D4 s6             :                1.0000
             D4 s8             :                2.7000
             D4 s9             :                5.0000
             alphaj            :                2.0000

  Z AO/shell   Hii/eV     exponent
  1     Wed Apr 25 08:07:45 CEST 2018   EN: 2.200 GM2: 0.406  GM3: 0.0800  RAES: 1.40
     1s    -10.707211    1.230000
  6     Wed Apr 25 08:07:45 CEST 2018   EN: 2.550 GM2: 0.538  GM3: 0.1500  RAES: 3.00
     2s    -13.970922    2.096432
     2p    -10.063292    1.800000
  7     Wed Apr 25 08:07:45 CEST 2018   EN: 3.040 GM2: 0.461  GM3:-0.0640  RAES: 1.90
     2s    -16.686243    2.339881
     2p    -12.523956    2.014332
  8     Wed Apr 25 08:07:45 CEST 2018   EN: 3.440 GM2: 0.452  GM3:-0.0517  RAES: 1.80
     2s    -20.229985    2.439742
     2p    -15.503117    2.137023

 Solvent             : CH2Cl2
 Using internal parameter file: .param_gbsa2_CH2Cl2
 Gsolv ref. state (COSMO-RS): gsolv [1 M gas/solution]
 temperature (mdtemp)       :    298.150000000000     
 dielectric constant        :    8.93000000000000     
 rho                        :    1.33000000000000     
 mass                       :    84.9300000000000     
 surface tension            :    15.5689454083859     
 probe radius               :   0.719875900000000     
 Gshift (Eh)                :   4.440829173451759E-003
 c1                         :    1.49173776000000     
 soset                      :   0.000000000000000E+000
 HB correction              :  F
           ------------------------------------------------- 
          |        Self-Consistent Charge Iterations        |
           ------------------------------------------------- 

          ...................................................
          :                      SETUP                      :
          :.................................................:
          :  # basis functions                  75          :
          :  # atomic orbitals                  75          :
          :  # shells                           47          :
          :  # electrons                        80          :
          :  max. iterations                   250          :
          :  Hamiltonian                  GFN2-xTB          :
          :  GBSA solvation                   true          :
          :  PC potential                    false          :
          :  electronic temp.          300.0000000     K    :
          :  accuracy                    1.0000000          :
          :  -> integral cutoff          0.2500000E+02      :
          :  -> integral neglect         0.1000000E-07      :
          :  -> SCF convergence          0.1000000E-05 Eh   :
          :  -> wf. convergence          0.1000000E-03 e    :
          :  Broyden damping             0.4000000          :
          ...................................................
  Checking positiv definite overlap ...  done.
 

 iter      E             dE          RMSdq      gap      omega  full diag
   1    -44.7121764 -0.447122E+02  0.377E+00    4.62       0.0  T
   2    -44.8252725 -0.113096E+00  0.208E+00    4.25       1.0  T
   3    -44.8282174 -0.294495E-02  0.944E-01    3.70       1.0  T
   4    -44.8274707  0.746730E-03  0.326E-01    3.65       1.0  T
   5    -44.8304207 -0.294996E-02  0.817E-02    3.71       1.0  T
   6    -44.8304523 -0.315892E-04  0.283E-02    3.77       1.0  T
   7    -44.8304542 -0.190210E-05  0.139E-02    3.76       1.3  T
   8    -44.8304562 -0.208789E-05  0.432E-03    3.76       4.0  T
   9    -44.8304564 -0.109031E-06  0.190E-03    3.76       9.1  T
  10    -44.8304564 -0.344714E-07  0.771E-04    3.76      22.6  T
  11    -44.8304564 -0.246258E-08  0.377E-04    3.76      46.1  T

   *** convergence criteria satisfied after 11 iterations ***

         #    Occupation            Energy/Eh            Energy/eV
      -------------------------------------------------------------
         1        2.0000           -0.6959320             -18.9373
       ...           ...                  ...                  ...
        34        2.0000           -0.4327423             -11.7755
        35        2.0000           -0.4274370             -11.6312
        36        2.0000           -0.4117892             -11.2054
        37        2.0000           -0.4105006             -11.1703
        38        2.0000           -0.3966157             -10.7925
        39        2.0000           -0.3936269             -10.7111
        40        2.0000           -0.3766223             -10.2484 (HOMO)
        41                         -0.2383464              -6.4857 (LUMO)
        42                         -0.2315410              -6.3006
        43                         -0.1172545              -3.1907
        44                         -0.0634724              -1.7272
        45                         -0.0127243              -0.3462
       ...                                ...                  ...
        75                          0.6396287              17.4052
      -------------------------------------------------------------
                  HL-Gap            0.1382759 Eh            3.7627 eV
             Fermi-level           -0.3074844 Eh           -8.3671 eV

 SCC (total)                   0 d,  0 h,  0 min,  0.027 sec
 SCC setup                      ...        0 min,  0.001 sec (  3.941%)
 Dispersion                     ...        0 min,  0.000 sec (  1.441%)
 integral evaluation            ...        0 min,  0.005 sec ( 18.484%)
 zeroth order Hamiltonian       ...        0 min,  0.000 sec (  0.034%)
 iterations                     ...        0 min,  0.013 sec ( 47.335%)
 molecular gradient             ...        0 min,  0.007 sec ( 27.540%)
 printout                       ...        0 min,  0.000 sec (  1.089%)

         :::::::::::::::::::::::::::::::::::::::::::::::::::::
         ::                     SUMMARY                     ::
         :::::::::::::::::::::::::::::::::::::::::::::::::::::
         :: total energy             -44.263968798590 Eh    ::
         :: total w/o Gsasa/hb       -44.247643586460 Eh    ::
         :: gradient norm              0.033993603207 Eh/a0 ::
         :: HOMO-LUMO gap              3.762678914863 eV    ::
         ::.................................................::
         :: SCC energy               -44.846781599798 Eh    ::
         :: -> isotropic ES            0.133965460084 Eh    ::
         :: -> anisotropic ES         -0.004264005184 Eh    ::
         :: -> anisotropic XC          0.018734553572 Eh    ::
         :: -> dispersion             -0.026561051624 Eh    ::
         :: -> Gsolv                  -0.036598584314 Eh    ::
         ::    -> Gborn               -0.020273372184 Eh    ::
         ::    -> Gsasa               -0.020766041303 Eh    ::
         ::    -> Ghb                  0.000000000000 Eh    ::
         ::    -> Gshift               0.004440829173 Eh    ::
         :: repulsion energy           0.582736582533 Eh    ::
         :: add. restraining           0.000000000000 Eh    ::
         :::::::::::::::::::::::::::::::::::::::::::::::::::::

           -------------------------------------------------
          |                Property Printout                |
           -------------------------------------------------

    * Orbital Energies and Occupations

         #    Occupation            Energy/Eh            Energy/eV
      -------------------------------------------------------------
         1        2.0000           -0.6959320             -18.9373
       ...           ...                  ...                  ...
        28        2.0000           -0.4802850             -13.0692
        29        2.0000           -0.4690147             -12.7625
        30        2.0000           -0.4584778             -12.4758
        31        2.0000           -0.4566185             -12.4252
        32        2.0000           -0.4458687             -12.1327
        33        2.0000           -0.4402397             -11.9795
        34        2.0000           -0.4327423             -11.7755
        35        2.0000           -0.4274370             -11.6312
        36        2.0000           -0.4117892             -11.2054
        37        2.0000           -0.4105006             -11.1703
        38        2.0000           -0.3966157             -10.7925
        39        2.0000           -0.3936269             -10.7111
        40        2.0000           -0.3766223             -10.2484 (HOMO)
        41                         -0.2383464              -6.4857 (LUMO)
        42                         -0.2315410              -6.3006
        43                         -0.1172545              -3.1907
        44                         -0.0634724              -1.7272
        45                         -0.0127243              -0.3462
        46                          0.0345451               0.9400
        47                          0.0670721               1.8251
        48                          0.0759896               2.0678
        49                          0.0928784               2.5274
        50                          0.1050286               2.8580
        51                          0.1163468               3.1660
       ...                                ...                  ...
        75                          0.6396287              17.4052
      -------------------------------------------------------------
                  HL-Gap            0.1382759 Eh            3.7627 eV
             Fermi-level           -0.3074844 Eh           -8.3671 eV

     #   Z        covCN         q      C6AA      α(0)
     1   6 C      2.914    -0.029    28.734     8.790
     2   6 C      2.919    -0.043    29.074     8.842
     3   6 C      2.966    -0.025    28.622     8.775
     4   6 C      2.918    -0.027    28.671     8.781
     5   6 C      2.915    -0.029    28.715     8.787
     6   6 C      2.915    -0.028    28.711     8.787
     7   1 H      0.925     0.041     2.430     2.438
     8   1 H      0.926     0.048     2.345     2.395
     9   1 H      0.925     0.044     2.395     2.420
    10   7 N      3.514    -0.128    23.777     7.242
    11   1 H      0.856     0.277     0.787     1.390
    12   6 C      3.734    -0.014    20.917     6.528
    13   1 H      0.925     0.075     2.028     2.227
    14   1 H      0.925     0.083     1.944     2.180
    15   1 H      0.860     0.207     1.069     1.620
    16   1 H      0.805     0.212     1.060     1.617
    17   1 H      1.025     0.342     0.593     1.203
    18   6 C      3.654     0.181    17.976     6.088
    19   1 H      0.924     0.040     2.444     2.445
    20   8 O      1.520    -0.583    24.881     6.728
    21   6 C      3.802    -0.069    21.828     6.652
    22   1 H      0.924     0.053     2.284     2.363
    23   1 H      0.924     0.054     2.276     2.359
    24   8 O      1.168    -0.810    31.596     7.547
    25   6 C      3.801    -0.056    21.576     6.613
    26   1 H      0.924     0.041     2.441     2.443
    27   1 H      0.924     0.042     2.425     2.435
    28   1 H      0.925     0.040     2.445     2.445
    29   1 H      0.925     0.047     2.362     2.403
    30   6 C      3.750    -0.106    22.590     6.778
    31   1 H      0.924     0.040     2.442     2.444
    32   1 H      0.924     0.039     2.462     2.454
    33   1 H      0.924     0.041     2.442     2.444

 Mol. C6AA /au·bohr⁶  :       9407.466880
 Mol. C8AA /au·bohr⁸  :     210110.539612
 Mol. α(0) /au        :        148.663202


Wiberg/Mayer (AO) data.
largest (>0.10) Wiberg bond orders for each atom
          total WBO             WBO to atom ...
     1  C   3.991        C    2 1.445    C    6 1.437    H   29 0.970    C    4 0.112
     2  C   3.990        C    1 1.445    C    3 1.412    H    7 0.968    C    5 0.112
     3  C   3.985        C    4 1.417    C    2 1.412    C   18 0.970    C    6 0.109
     4  C   3.990        C    5 1.441    C    3 1.417    H    8 0.966    C    1 0.112
     5  C   3.991        C    4 1.441    C    6 1.440    H   28 0.971    C    2 0.112
     6  C   3.990        C    5 1.440    C    1 1.437    H    9 0.971    C    3 0.109
     7  H   0.998        C    2 0.968
     8  H   0.998        C    4 0.966
     9  H   0.998        C    6 0.971
    10  N   3.659        C   12 0.956    H   15 0.931    C   18 0.840    H   11 0.746
    11  H   0.923        N   10 0.746    O   24 0.157
    12  C   3.936        C   21 1.010    H   14 0.968    H   13 0.968    N   10 0.956
    13  H   0.994        C   12 0.968
    14  H   0.993        C   12 0.968
    15  H   0.957        N   10 0.931
    16  H   0.955        O   24 0.951
    17  H   0.883        O   20 0.499    O   24 0.366
    18  C   3.933        O   20 1.112    C    3 0.970    H   19 0.947    N   10 0.840
    19  H   0.998        C   18 0.947
    20  O   1.844        C   18 1.112    H   17 0.499
    21  C   3.990        C   12 1.010    C   25 1.003    H   23 0.973    H   22 0.971
    22  H   0.997        C   21 0.971
    23  H   0.997        C   21 0.973
    24  O   1.664        H   16 0.951    H   17 0.366    H   11 0.157
    25  C   3.994        C   30 1.020    C   21 1.003    H   26 0.977    H   27 0.977
    26  H   0.998        C   25 0.977
    27  H   0.998        C   25 0.977
    28  H   0.998        C    5 0.971
    29  H   0.997        C    1 0.970
    30  C   3.995        C   25 1.020    H   32 0.987    H   33 0.987    H   31 0.986
    31  H   0.998        C   30 0.986
    32  H   0.998        C   30 0.987
    33  H   0.998        C   30 0.987

molecular dipole:
                 x           y           z       tot (Debye)
 q only:       -3.004       0.588      -1.088
   full:       -3.057       0.339      -1.105       8.306
molecular quadrupole (traceless):
                xx          xy          yy          xz          yz          zz
 q only:        0.021      14.387       4.612     -39.156       3.942      -4.633
  q+dip:       -2.382      11.581       6.703     -39.566      -0.642      -4.321
   full:       -2.609      13.022       7.623     -39.029       0.281      -5.014

           -------------------------------------------------
          |                Property Printout                |
           -------------------------------------------------

    * Orbital Energies and Occupations

         #    Occupation            Energy/Eh            Energy/eV
      -------------------------------------------------------------
         1        2.0000           -0.6959320             -18.9373
       ...           ...                  ...                  ...
        28        2.0000           -0.4802850             -13.0692
        29        2.0000           -0.4690147             -12.7625
        30        2.0000           -0.4584778             -12.4758
        31        2.0000           -0.4566185             -12.4252
        32        2.0000           -0.4458687             -12.1327
        33        2.0000           -0.4402397             -11.9795
        34        2.0000           -0.4327423             -11.7755
        35        2.0000           -0.4274370             -11.6312
        36        2.0000           -0.4117892             -11.2054
        37        2.0000           -0.4105006             -11.1703
        38        2.0000           -0.3966157             -10.7925
        39        2.0000           -0.3936269             -10.7111
        40        2.0000           -0.3766223             -10.2484 (HOMO)
        41                         -0.2383464              -6.4857 (LUMO)
        42                         -0.2315410              -6.3006
        43                         -0.1172545              -3.1907
        44                         -0.0634724              -1.7272
        45                         -0.0127243              -0.3462
        46                          0.0345451               0.9400
        47                          0.0670721               1.8251
        48                          0.0759896               2.0678
        49                          0.0928784               2.5274
        50                          0.1050286               2.8580
        51                          0.1163468               3.1660
       ...                                ...                  ...
        75                          0.6396287              17.4052
      -------------------------------------------------------------
                  HL-Gap            0.1382759 Eh            3.7627 eV
             Fermi-level           -0.3074844 Eh           -8.3671 eV

     #   Z        covCN         q      C6AA      α(0)
     1   6 C      2.914    -0.029    28.734     8.790
     2   6 C      2.919    -0.043    29.074     8.842
     3   6 C      2.966    -0.025    28.622     8.775
     4   6 C      2.918    -0.027    28.671     8.781
     5   6 C      2.915    -0.029    28.715     8.787
     6   6 C      2.915    -0.028    28.711     8.787
     7   1 H      0.925     0.041     2.430     2.438
     8   1 H      0.926     0.048     2.345     2.395
     9   1 H      0.925     0.044     2.395     2.420
    10   7 N      3.514    -0.128    23.777     7.242
    11   1 H      0.856     0.277     0.787     1.390
    12   6 C      3.734    -0.014    20.917     6.528
    13   1 H      0.925     0.075     2.028     2.227
    14   1 H      0.925     0.083     1.944     2.180
    15   1 H      0.860     0.207     1.069     1.620
    16   1 H      0.805     0.212     1.060     1.617
    17   1 H      1.025     0.342     0.593     1.203
    18   6 C      3.654     0.181    17.976     6.088
    19   1 H      0.924     0.040     2.444     2.445
    20   8 O      1.520    -0.583    24.881     6.728
    21   6 C      3.802    -0.069    21.828     6.652
    22   1 H      0.924     0.053     2.284     2.363
    23   1 H      0.924     0.054     2.276     2.359
    24   8 O      1.168    -0.810    31.596     7.547
    25   6 C      3.801    -0.056    21.576     6.613
    26   1 H      0.924     0.041     2.441     2.443
    27   1 H      0.924     0.042     2.425     2.435
    28   1 H      0.925     0.040     2.445     2.445
    29   1 H      0.925     0.047     2.362     2.403
    30   6 C      3.750    -0.106    22.590     6.778
    31   1 H      0.924     0.040     2.442     2.444
    32   1 H      0.924     0.039     2.462     2.454
    33   1 H      0.924     0.041     2.442     2.444

 Mol. C6AA /au·bohr⁶  :       9407.466880
 Mol. C8AA /au·bohr⁸  :     210110.539612
 Mol. α(0) /au        :        148.663202


Wiberg/Mayer (AO) data.
largest (>0.10) Wiberg bond orders for each atom
          total WBO             WBO to atom ...
     1  C   3.991        C    2 1.445    C    6 1.437    H   29 0.970    C    4 0.112
     2  C   3.990        C    1 1.445    C    3 1.412    H    7 0.968    C    5 0.112
     3  C   3.985        C    4 1.417    C    2 1.412    C   18 0.970    C    6 0.109
     4  C   3.990        C    5 1.441    C    3 1.417    H    8 0.966    C    1 0.112
     5  C   3.991        C    4 1.441    C    6 1.440    H   28 0.971    C    2 0.112
     6  C   3.990        C    5 1.440    C    1 1.437    H    9 0.971    C    3 0.109
     7  H   0.998        C    2 0.968
     8  H   0.998        C    4 0.966
     9  H   0.998        C    6 0.971
    10  N   3.659        C   12 0.956    H   15 0.931    C   18 0.840    H   11 0.746
    11  H   0.923        N   10 0.746    O   24 0.157
    12  C   3.936        C   21 1.010    H   14 0.968    H   13 0.968    N   10 0.956
    13  H   0.994        C   12 0.968
    14  H   0.993        C   12 0.968
    15  H   0.957        N   10 0.931
    16  H   0.955        O   24 0.951
    17  H   0.883        O   20 0.499    O   24 0.366
    18  C   3.933        O   20 1.112    C    3 0.970    H   19 0.947    N   10 0.840
    19  H   0.998        C   18 0.947
    20  O   1.844        C   18 1.112    H   17 0.499
    21  C   3.990        C   12 1.010    C   25 1.003    H   23 0.973    H   22 0.971
    22  H   0.997        C   21 0.971
    23  H   0.997        C   21 0.973
    24  O   1.664        H   16 0.951    H   17 0.366    H   11 0.157
    25  C   3.994        C   30 1.020    C   21 1.003    H   26 0.977    H   27 0.977
    26  H   0.998        C   25 0.977
    27  H   0.998        C   25 0.977
    28  H   0.998        C    5 0.971
    29  H   0.997        C    1 0.970
    30  C   3.995        C   25 1.020    H   32 0.987    H   33 0.987    H   31 0.986
    31  H   0.998        C   30 0.986
    32  H   0.998        C   30 0.987
    33  H   0.998        C   30 0.987

molecular dipole:
                 x           y           z       tot (Debye)
 q only:       -3.004       0.588      -1.088
   full:       -3.057       0.339      -1.105       8.306
molecular quadrupole (traceless):
                xx          xy          yy          xz          yz          zz
 q only:        0.021      14.387       4.612     -39.156       3.942      -4.633
  q+dip:       -2.382      11.581       6.703     -39.566      -0.642      -4.321
   full:       -2.609      13.022       7.623     -39.029       0.281      -5.014


           -------------------------------------------------
          | TOTAL ENERGY              -44.263968798590 Eh   |
          | GRADIENT NORM               0.033993603207 Eh/α |
          | HOMO-LUMO GAP               3.762678914863 eV   |
           -------------------------------------------------

------------------------------------------------------------------------
 * finished run on 2020/08/10 at 03:20:46.546     
------------------------------------------------------------------------
 total:
 * wall-time:     0 d,  0 h,  0 min,  0.071 sec
 *  cpu-time:     0 d,  0 h,  0 min,  0.515 sec
 * ratio c/w:     7.214 speedup
 SCF:
 * wall-time:     0 d,  0 h,  0 min,  0.027 sec
 *  cpu-time:     0 d,  0 h,  0 min,  0.212 sec
 * ratio c/w:     7.744 speedup


-------------------------   --------------------
FINAL SINGLE POINT ENERGY       -44.263968798590
-------------------------   --------------------


----------------------------------------------------------------------------
                           ORCA NUMERICAL FREQUENCIES
                              (8-process run)
----------------------------------------------------------------------------

Number of atoms                ... 33
Central differences            ... used
Number of displacements        ... 198
Numerical increment            ... 5.000e-03 bohr
IR-spectrum generation         ... on
Raman-spectrum generation      ... off
Surface Crossing Hessian       ... off
List of participating nodes    ...  /tmp/slurm-scratch/freq.84/freq.hostnames

The output will be reduced. Please look at the following files:
SCF program output             ... >/tmp/slurm-scratch/freq.84/freq.lastscf
Integral program output        ... >/tmp/slurm-scratch/freq.84/freq.lastint
Gradient program output        ... >/tmp/slurm-scratch/freq.84/freq.lastgrad
Dipole moment program output   ... >/tmp/slurm-scratch/freq.84/freq.lastmom
AutoCI program output          ... >/tmp/slurm-scratch/freq.84/freq.lastautoci


         <<< Energy and Gradient at the input geometry >>>

        <<< Energy and Gradient at displaced geometries >>>
             <<<Displacing   1/coordinate 1 (+)>>>
             <<<Displacing   1/coordinate 2 (+)>>>
             <<<Displacing   2/coordinate 1 (+)>>>
             <<<Displacing   2/coordinate 3 (+)>>>
             <<<Displacing   3/coordinate 1 (+)>>>
             <<<Displacing   3/coordinate 2 (+)>>>
             <<<Displacing   1/coordinate 3 (+)>>>
             <<<Displacing   2/coordinate 2 (+)>>>
             <<<Displacing   2/coordinate 1 (-)>>>
             <<<Displacing   1/coordinate 2 (-)>>>
             <<<Displacing   1/coordinate 1 (-)>>>
             <<<Displacing   1/coordinate 3 (-)>>>
             <<<Displacing   2/coordinate 2 (-)>>>
             <<<Displacing   3/coordinate 2 (-)>>>
             <<<Displacing   2/coordinate 3 (-)>>>
             <<<Displacing   3/coordinate 1 (-)>>>
             <<<Displacing   4/coordinate 1 (+)>>>
             <<<Displacing   3/coordinate 3 (+)>>>
             <<<Displacing   5/coordinate 1 (+)>>>
             <<<Displacing   4/coordinate 2 (+)>>>
             <<<Displacing   5/coordinate 3 (+)>>>
             <<<Displacing   5/coordinate 2 (+)>>>
             <<<Displacing   4/coordinate 3 (+)>>>
             <<<Displacing   6/coordinate 1 (+)>>>
             <<<Displacing   4/coordinate 1 (-)>>>
             <<<Displacing   4/coordinate 2 (-)>>>
             <<<Displacing   5/coordinate 3 (-)>>>
             <<<Displacing   5/coordinate 1 (-)>>>
             <<<Displacing   3/coordinate 3 (-)>>>
             <<<Displacing   5/coordinate 2 (-)>>>
             <<<Displacing   6/coordinate 1 (-)>>>
             <<<Displacing   4/coordinate 3 (-)>>>
             <<<Displacing   6/coordinate 2 (+)>>>
             <<<Displacing   6/coordinate 3 (+)>>>
             <<<Displacing   7/coordinate 1 (+)>>>
             <<<Displacing   7/coordinate 3 (+)>>>
             <<<Displacing   8/coordinate 2 (+)>>>
             <<<Displacing   7/coordinate 2 (+)>>>
             <<<Displacing   6/coordinate 2 (-)>>>
             <<<Displacing   6/coordinate 3 (-)>>>
             <<<Displacing   7/coordinate 3 (-)>>>
             <<<Displacing   7/coordinate 1 (-)>>>
             <<<Displacing   8/coordinate 3 (+)>>>
             <<<Displacing   8/coordinate 2 (-)>>>
             <<<Displacing   8/coordinate 1 (+)>>>
             <<<Displacing   7/coordinate 2 (-)>>>
             <<<Displacing   8/coordinate 3 (-)>>>
             <<<Displacing   8/coordinate 1 (-)>>>
             <<<Displacing   9/coordinate 1 (+)>>>
             <<<Displacing  10/coordinate 1 (+)>>>
             <<<Displacing   9/coordinate 3 (+)>>>
             <<<Displacing   9/coordinate 2 (+)>>>
             <<<Displacing  10/coordinate 3 (+)>>>
             <<<Displacing  10/coordinate 2 (+)>>>
             <<<Displacing   9/coordinate 1 (-)>>>
             <<<Displacing   9/coordinate 3 (-)>>>
             <<<Displacing  10/coordinate 1 (-)>>>
             <<<Displacing   9/coordinate 2 (-)>>>
             <<<Displacing  11/coordinate 2 (+)>>>
             <<<Displacing  11/coordinate 1 (+)>>>
             <<<Displacing  10/coordinate 3 (-)>>>
             <<<Displacing  10/coordinate 2 (-)>>>
             <<<Displacing  11/coordinate 1 (-)>>>
             <<<Displacing  11/coordinate 2 (-)>>>
             <<<Displacing  11/coordinate 3 (+)>>>
             <<<Displacing  12/coordinate 2 (+)>>>
             <<<Displacing  12/coordinate 3 (+)>>>
             <<<Displacing  13/coordinate 2 (+)>>>
             <<<Displacing  12/coordinate 1 (+)>>>
             <<<Displacing  13/coordinate 1 (+)>>>
             <<<Displacing  11/coordinate 3 (-)>>>
             <<<Displacing  12/coordinate 2 (-)>>>
             <<<Displacing  12/coordinate 3 (-)>>>
             <<<Displacing  12/coordinate 1 (-)>>>
             <<<Displacing  13/coordinate 1 (-)>>>
             <<<Displacing  13/coordinate 2 (-)>>>
             <<<Displacing  14/coordinate 1 (+)>>>
             <<<Displacing  13/coordinate 3 (+)>>>
             <<<Displacing  14/coordinate 1 (-)>>>
             <<<Displacing  13/coordinate 3 (-)>>>
             <<<Displacing  14/coordinate 2 (+)>>>
             <<<Displacing  15/coordinate 1 (+)>>>
             <<<Displacing  14/coordinate 3 (+)>>>
             <<<Displacing  14/coordinate 2 (-)>>>
             <<<Displacing  15/coordinate 2 (+)>>>
             <<<Displacing  15/coordinate 3 (+)>>>
             <<<Displacing  16/coordinate 1 (+)>>>
             <<<Displacing  15/coordinate 1 (-)>>>
             <<<Displacing  14/coordinate 3 (-)>>>
             <<<Displacing  15/coordinate 3 (-)>>>
             <<<Displacing  15/coordinate 2 (-)>>>
             <<<Displacing  16/coordinate 1 (-)>>>
             <<<Displacing  16/coordinate 2 (+)>>>
             <<<Displacing  16/coordinate 3 (+)>>>
             <<<Displacing  16/coordinate 2 (-)>>>
             <<<Displacing  16/coordinate 3 (-)>>>
             <<<Displacing  17/coordinate 1 (+)>>>
             <<<Displacing  17/coordinate 3 (+)>>>
             <<<Displacing  17/coordinate 2 (+)>>>
             <<<Displacing  18/coordinate 1 (+)>>>
             <<<Displacing  18/coordinate 2 (+)>>>
             <<<Displacing  17/coordinate 3 (-)>>>
             <<<Displacing  17/coordinate 1 (-)>>>
             <<<Displacing  18/coordinate 3 (+)>>>
             <<<Displacing  17/coordinate 2 (-)>>>
             <<<Displacing  18/coordinate 1 (-)>>>
             <<<Displacing  18/coordinate 2 (-)>>>
             <<<Displacing  18/coordinate 3 (-)>>>
             <<<Displacing  19/coordinate 1 (+)>>>
             <<<Displacing  19/coordinate 2 (+)>>>
             <<<Displacing  19/coordinate 1 (-)>>>
             <<<Displacing  19/coordinate 2 (-)>>>
             <<<Displacing  20/coordinate 1 (+)>>>
             <<<Displacing  20/coordinate 2 (+)>>>
             <<<Displacing  20/coordinate 3 (+)>>>
             <<<Displacing  21/coordinate 1 (+)>>>
             <<<Displacing  20/coordinate 1 (-)>>>
             <<<Displacing  21/coordinate 2 (+)>>>
             <<<Displacing  20/coordinate 2 (-)>>>
             <<<Displacing  20/coordinate 3 (-)>>>
             <<<Displacing  21/coordinate 1 (-)>>>
             <<<Displacing  19/coordinate 3 (+)>>>
             <<<Displacing  21/coordinate 2 (-)>>>
             <<<Displacing  21/coordinate 3 (+)>>>
             <<<Displacing  22/coordinate 1 (+)>>>
             <<<Displacing  19/coordinate 3 (-)>>>
             <<<Displacing  21/coordinate 3 (-)>>>
             <<<Displacing  22/coordinate 1 (-)>>>
             <<<Displacing  22/coordinate 2 (+)>>>
             <<<Displacing  23/coordinate 1 (+)>>>
             <<<Displacing  22/coordinate 3 (+)>>>
             <<<Displacing  23/coordinate 2 (+)>>>
             <<<Displacing  22/coordinate 2 (-)>>>
             <<<Displacing  23/coordinate 1 (-)>>>
             <<<Displacing  23/coordinate 3 (+)>>>
             <<<Displacing  22/coordinate 3 (-)>>>
             <<<Displacing  23/coordinate 2 (-)>>>
             <<<Displacing  24/coordinate 1 (+)>>>
             <<<Displacing  23/coordinate 3 (-)>>>
             <<<Displacing  24/coordinate 2 (+)>>>
             <<<Displacing  24/coordinate 3 (+)>>>
             <<<Displacing  24/coordinate 1 (-)>>>
             <<<Displacing  24/coordinate 2 (-)>>>
             <<<Displacing  24/coordinate 3 (-)>>>
             <<<Displacing  25/coordinate 1 (+)>>>
             <<<Displacing  25/coordinate 2 (+)>>>
             <<<Displacing  26/coordinate 1 (+)>>>
             <<<Displacing  25/coordinate 3 (+)>>>
             <<<Displacing  25/coordinate 1 (-)>>>
             <<<Displacing  25/coordinate 2 (-)>>>
             <<<Displacing  26/coordinate 2 (+)>>>
             <<<Displacing  26/coordinate 1 (-)>>>
             <<<Displacing  25/coordinate 3 (-)>>>
             <<<Displacing  26/coordinate 3 (+)>>>
             <<<Displacing  26/coordinate 2 (-)>>>
             <<<Displacing  27/coordinate 1 (+)>>>
             <<<Displacing  27/coordinate 2 (+)>>>
             <<<Displacing  26/coordinate 3 (-)>>>
             <<<Displacing  27/coordinate 1 (-)>>>
             <<<Displacing  27/coordinate 2 (-)>>>
             <<<Displacing  27/coordinate 3 (+)>>>
             <<<Displacing  28/coordinate 1 (+)>>>
             <<<Displacing  28/coordinate 2 (+)>>>
             <<<Displacing  28/coordinate 3 (+)>>>
             <<<Displacing  28/coordinate 1 (-)>>>
             <<<Displacing  29/coordinate 1 (+)>>>
             <<<Displacing  27/coordinate 3 (-)>>>
             <<<Displacing  28/coordinate 2 (-)>>>
             <<<Displacing  28/coordinate 3 (-)>>>
             <<<Displacing  29/coordinate 1 (-)>>>
             <<<Displacing  29/coordinate 3 (+)>>>
             <<<Displacing  30/coordinate 1 (+)>>>
             <<<Displacing  29/coordinate 2 (+)>>>
             <<<Displacing  29/coordinate 3 (-)>>>
             <<<Displacing  30/coordinate 1 (-)>>>
             <<<Displacing  29/coordinate 2 (-)>>>
             <<<Displacing  30/coordinate 2 (+)>>>
             <<<Displacing  30/coordinate 3 (+)>>>
             <<<Displacing  31/coordinate 2 (+)>>>
             <<<Displacing  31/coordinate 1 (+)>>>
             <<<Displacing  31/coordinate 3 (+)>>>
             <<<Displacing  30/coordinate 2 (-)>>>
             <<<Displacing  30/coordinate 3 (-)>>>
             <<<Displacing  31/coordinate 1 (-)>>>
             <<<Displacing  31/coordinate 2 (-)>>>
             <<<Displacing  31/coordinate 3 (-)>>>
             <<<Displacing  32/coordinate 1 (+)>>>
             <<<Displacing  32/coordinate 1 (-)>>>
             <<<Displacing  32/coordinate 3 (+)>>>
             <<<Displacing  32/coordinate 2 (+)>>>
             <<<Displacing  32/coordinate 3 (-)>>>
             <<<Displacing  32/coordinate 2 (-)>>>
             <<<Displacing  33/coordinate 1 (+)>>>
             <<<Displacing  33/coordinate 2 (+)>>>
             <<<Displacing  33/coordinate 2 (-)>>>
             <<<Displacing  33/coordinate 3 (+)>>>
             <<<Displacing  33/coordinate 1 (-)>>>
             <<<Displacing  33/coordinate 3 (-)>>>

-----------------------
VIBRATIONAL FREQUENCIES
-----------------------

Scaling factor for frequencies =  1.000000000 (already applied!)

   0:         0.00 cm**-1
   1:         0.00 cm**-1
   2:         0.00 cm**-1
   3:         0.00 cm**-1
   4:         0.00 cm**-1
   5:         0.00 cm**-1
   6:      -669.72 cm**-1 ***imaginary mode***
   7:        44.93 cm**-1
   8:        58.31 cm**-1
   9:        64.54 cm**-1
  10:        80.68 cm**-1
  11:        82.84 cm**-1
  12:       117.55 cm**-1
  13:       130.18 cm**-1
  14:       178.13 cm**-1
  15:       210.76 cm**-1
  16:       231.81 cm**-1
  17:       255.66 cm**-1
  18:       276.55 cm**-1
  19:       348.78 cm**-1
  20:       380.85 cm**-1
  21:       383.25 cm**-1
  22:       402.03 cm**-1
  23:       474.16 cm**-1
  24:       510.32 cm**-1
  25:       522.60 cm**-1
  26:       589.18 cm**-1
  27:       607.20 cm**-1
  28:       622.14 cm**-1
  29:       623.63 cm**-1
  30:       671.07 cm**-1
  31:       694.73 cm**-1
  32:       753.42 cm**-1
  33:       769.40 cm**-1
  34:       790.45 cm**-1
  35:       826.16 cm**-1
  36:       845.77 cm**-1
  37:       884.26 cm**-1
  38:       909.61 cm**-1
  39:       919.92 cm**-1
  40:       932.43 cm**-1
  41:       938.66 cm**-1
  42:       951.42 cm**-1
  43:       955.80 cm**-1
  44:       981.52 cm**-1
  45:      1021.44 cm**-1
  46:      1061.55 cm**-1
  47:      1071.31 cm**-1
  48:      1085.03 cm**-1
  49:      1108.13 cm**-1
  50:      1112.37 cm**-1
  51:      1130.91 cm**-1
  52:      1145.58 cm**-1
  53:      1180.18 cm**-1
  54:      1189.00 cm**-1
  55:      1191.91 cm**-1
  56:      1203.57 cm**-1
  57:      1215.01 cm**-1
  58:      1235.02 cm**-1
  59:      1248.90 cm**-1
  60:      1267.90 cm**-1
  61:      1275.32 cm**-1
  62:      1279.65 cm**-1
  63:      1284.15 cm**-1
  64:      1288.15 cm**-1
  65:      1317.05 cm**-1
  66:      1334.29 cm**-1
  67:      1338.17 cm**-1
  68:      1370.47 cm**-1
  69:      1390.33 cm**-1
  70:      1425.83 cm**-1
  71:      1429.62 cm**-1
  72:      1458.63 cm**-1
  73:      1462.70 cm**-1
  74:      1493.95 cm**-1
  75:      1502.63 cm**-1
  76:      1505.94 cm**-1
  77:      1510.28 cm**-1
  78:      1537.17 cm**-1
  79:      1570.18 cm**-1
  80:      1574.27 cm**-1
  81:      2211.95 cm**-1
  82:      2913.69 cm**-1
  83:      2948.29 cm**-1
  84:      2957.99 cm**-1
  85:      2973.40 cm**-1
  86:      2980.55 cm**-1
  87:      2983.46 cm**-1
  88:      2990.83 cm**-1
  89:      3003.22 cm**-1
  90:      3005.73 cm**-1
  91:      3032.05 cm**-1
  92:      3041.03 cm**-1
  93:      3054.94 cm**-1
  94:      3060.58 cm**-1
  95:      3070.19 cm**-1
  96:      3085.73 cm**-1
  97:      3346.27 cm**-1
  98:      3615.74 cm**-1


------------
NORMAL MODES
------------

These modes are the cartesian displacements weighted by the diagonal matrix
M(i,i)=1/sqrt(m[i]) where m[i] is the mass of the displaced atom
Thus, these vectors are normalized but *not* orthogonal

                  0          1          2          3          4          5    
      0       0.000000   0.000000   0.000000   0.000000   0.000000   0.000000
      1       0.000000   0.000000   0.000000   0.000000   0.000000   0.000000
      2       0.000000   0.000000   0.000000   0.000000   0.000000   0.000000
      3       0.000000   0.000000   0.000000   0.000000   0.000000   0.000000
      4       0.000000   0.000000   0.000000   0.000000   0.000000   0.000000
      5       0.000000   0.000000   0.000000   0.000000   0.000000   0.000000
      6       0.000000   0.000000   0.000000   0.000000   0.000000   0.000000
      7       0.000000   0.000000   0.000000   0.000000   0.000000   0.000000
      8       0.000000   0.000000   0.000000   0.000000   0.000000   0.000000
      9       0.000000   0.000000   0.000000   0.000000   0.000000   0.000000
     10       0.000000   0.000000   0.000000   0.000000   0.000000   0.000000
     11       0.000000   0.000000   0.000000   0.000000   0.000000   0.000000
     12       0.000000   0.000000   0.000000   0.000000   0.000000   0.000000
     13       0.000000   0.000000   0.000000   0.000000   0.000000   0.000000
     14       0.000000   0.000000   0.000000   0.000000   0.000000   0.000000
     15       0.000000   0.000000   0.000000   0.000000   0.000000   0.000000
     16       0.000000   0.000000   0.000000   0.000000   0.000000   0.000000
     17       0.000000   0.000000   0.000000   0.000000   0.000000   0.000000
     18       0.000000   0.000000   0.000000   0.000000   0.000000   0.000000
     19       0.000000   0.000000   0.000000   0.000000   0.000000   0.000000
     20       0.000000   0.000000   0.000000   0.000000   0.000000   0.000000
     21       0.000000   0.000000   0.000000   0.000000   0.000000   0.000000
     22       0.000000   0.000000   0.000000   0.000000   0.000000   0.000000
     23       0.000000   0.000000   0.000000   0.000000   0.000000   0.000000
     24       0.000000   0.000000   0.000000   0.000000   0.000000   0.000000
     25       0.000000   0.000000   0.000000   0.000000   0.000000   0.000000
     26       0.000000   0.000000   0.000000   0.000000   0.000000   0.000000
     27       0.000000   0.000000   0.000000   0.000000   0.000000   0.000000
     28       0.000000   0.000000   0.000000   0.000000   0.000000   0.000000
     29       0.000000   0.000000   0.000000   0.000000   0.000000   0.000000
     30       0.000000   0.000000   0.000000   0.000000   0.000000   0.000000
     31       0.000000   0.000000   0.000000   0.000000   0.000000   0.000000
     32       0.000000   0.000000   0.000000   0.000000   0.000000   0.000000
     33       0.000000   0.000000   0.000000   0.000000   0.000000   0.000000
     34       0.000000   0.000000   0.000000   0.000000   0.000000   0.000000
     35       0.000000   0.000000   0.000000   0.000000   0.000000   0.000000
     36       0.000000   0.000000   0.000000   0.000000   0.000000   0.000000
     37       0.000000   0.000000   0.000000   0.000000   0.000000   0.000000
     38       0.000000   0.000000   0.000000   0.000000   0.000000   0.000000
     39       0.000000   0.000000   0.000000   0.000000   0.000000   0.000000
     40       0.000000   0.000000   0.000000   0.000000   0.000000   0.000000
     41       0.000000   0.000000   0.000000   0.000000   0.000000   0.000000
     42       0.000000   0.000000   0.000000   0.000000   0.000000   0.000000
     43       0.000000   0.000000   0.000000   0.000000   0.000000   0.000000
     44       0.000000   0.000000   0.000000   0.000000   0.000000   0.000000
     45       0.000000   0.000000   0.000000   0.000000   0.000000   0.000000
     46       0.000000   0.000000   0.000000   0.000000   0.000000   0.000000
     47       0.000000   0.000000   0.000000   0.000000   0.000000   0.000000
     48       0.000000   0.000000   0.000000   0.000000   0.000000   0.000000
     49       0.000000   0.000000   0.000000   0.000000   0.000000   0.000000
     50       0.000000   0.000000   0.000000   0.000000   0.000000   0.000000
     51       0.000000   0.000000   0.000000   0.000000   0.000000   0.000000
     52       0.000000   0.000000   0.000000   0.000000   0.000000   0.000000
     53       0.000000   0.000000   0.000000   0.000000   0.000000   0.000000
     54       0.000000   0.000000   0.000000   0.000000   0.000000   0.000000
     55       0.000000   0.000000   0.000000   0.000000   0.000000   0.000000
     56       0.000000   0.000000   0.000000   0.000000   0.000000   0.000000
     57       0.000000   0.000000   0.000000   0.000000   0.000000   0.000000
     58       0.000000   0.000000   0.000000   0.000000   0.000000   0.000000
     59       0.000000   0.000000   0.000000   0.000000   0.000000   0.000000
     60       0.000000   0.000000   0.000000   0.000000   0.000000   0.000000
     61       0.000000   0.000000   0.000000   0.000000   0.000000   0.000000
     62       0.000000   0.000000   0.000000   0.000000   0.000000   0.000000
     63       0.000000   0.000000   0.000000   0.000000   0.000000   0.000000
     64       0.000000   0.000000   0.000000   0.000000   0.000000   0.000000
     65       0.000000   0.000000   0.000000   0.000000   0.000000   0.000000
     66       0.000000   0.000000   0.000000   0.000000   0.000000   0.000000
     67       0.000000   0.000000   0.000000   0.000000   0.000000   0.000000
     68       0.000000   0.000000   0.000000   0.000000   0.000000   0.000000
     69       0.000000   0.000000   0.000000   0.000000   0.000000   0.000000
     70       0.000000   0.000000   0.000000   0.000000   0.000000   0.000000
     71       0.000000   0.000000   0.000000   0.000000   0.000000   0.000000
     72       0.000000   0.000000   0.000000   0.000000   0.000000   0.000000
     73       0.000000   0.000000   0.000000   0.000000   0.000000   0.000000
     74       0.000000   0.000000   0.000000   0.000000   0.000000   0.000000
     75       0.000000   0.000000   0.000000   0.000000   0.000000   0.000000
     76       0.000000   0.000000   0.000000   0.000000   0.000000   0.000000
     77       0.000000   0.000000   0.000000   0.000000   0.000000   0.000000
     78       0.000000   0.000000   0.000000   0.000000   0.000000   0.000000
     79       0.000000   0.000000   0.000000   0.000000   0.000000   0.000000
     80       0.000000   0.000000   0.000000   0.000000   0.000000   0.000000
     81       0.000000   0.000000   0.000000   0.000000   0.000000   0.000000
     82       0.000000   0.000000   0.000000   0.000000   0.000000   0.000000
     83       0.000000   0.000000   0.000000   0.000000   0.000000   0.000000
     84       0.000000   0.000000   0.000000   0.000000   0.000000   0.000000
     85       0.000000   0.000000   0.000000   0.000000   0.000000   0.000000
     86       0.000000   0.000000   0.000000   0.000000   0.000000   0.000000
     87       0.000000   0.000000   0.000000   0.000000   0.000000   0.000000
     88       0.000000   0.000000   0.000000   0.000000   0.000000   0.000000
     89       0.000000   0.000000   0.000000   0.000000   0.000000   0.000000
     90       0.000000   0.000000   0.000000   0.000000   0.000000   0.000000
     91       0.000000   0.000000   0.000000   0.000000   0.000000   0.000000
     92       0.000000   0.000000   0.000000   0.000000   0.000000   0.000000
     93       0.000000   0.000000   0.000000   0.000000   0.000000   0.000000
     94       0.000000   0.000000   0.000000   0.000000   0.000000   0.000000
     95       0.000000   0.000000   0.000000   0.000000   0.000000   0.000000
     96       0.000000   0.000000   0.000000   0.000000   0.000000   0.000000
     97       0.000000   0.000000   0.000000   0.000000   0.000000   0.000000
     98       0.000000   0.000000   0.000000   0.000000   0.000000   0.000000
                  6          7          8          9         10         11    
      0       0.000146  -0.174579  -0.080540   0.054902   0.033881   0.006614
      1       0.000395   0.006039  -0.170596   0.066714   0.057127   0.019758
      2      -0.000641   0.069967  -0.070543   0.029787  -0.011281  -0.034215
      3      -0.000937  -0.089867  -0.060325   0.079533   0.011459  -0.008185
      4       0.001808  -0.027329  -0.159492   0.098073   0.000931  -0.012652
      5      -0.001531   0.097333  -0.059186   0.049587  -0.036359  -0.049390
      6      -0.001810  -0.007027   0.044997   0.036354   0.005151  -0.005451
      7       0.000666  -0.013073   0.002806   0.016934  -0.020665  -0.012075
      8      -0.001125   0.045030   0.019629   0.002544  -0.052730  -0.050542
      9      -0.000665  -0.013948   0.126089  -0.030681   0.020761   0.011431
     10      -0.001740   0.033989   0.153085  -0.095360   0.012636   0.019771
     11       0.003166  -0.034118   0.085011  -0.064559  -0.047514  -0.038718
     12      -0.000846  -0.099338   0.104104  -0.054837   0.044467   0.027389
     13       0.000437   0.066553   0.136801  -0.125041   0.069554   0.053164
     14       0.001856  -0.061562   0.070691  -0.083008  -0.021704  -0.022940
     15       0.000252  -0.179986   0.002075  -0.013146   0.052489   0.025826
     16      -0.000161   0.052957  -0.023069  -0.045231   0.095171   0.054974
     17       0.000689  -0.009321  -0.006016  -0.036891  -0.002609  -0.020099
     18      -0.001896  -0.085582  -0.124089   0.132388  -0.000263  -0.020621
     19      -0.001781  -0.063933  -0.270513   0.183195  -0.022211  -0.035119
     20      -0.005092   0.158755  -0.108904   0.100681  -0.041771  -0.058256
     21      -0.002552   0.048012   0.204841  -0.062364   0.018813   0.015183
     22      -0.019715   0.048758   0.278097  -0.156275   0.002169   0.025460
     23      -0.013093  -0.068511   0.146706  -0.100193  -0.055862  -0.035227
     24       0.000451  -0.245892  -0.015066  -0.032257   0.072697   0.039359
     25      -0.003161   0.079015  -0.032503  -0.069373   0.144173   0.083549
     26       0.000553  -0.030794  -0.016113  -0.051997   0.019923  -0.006187
     27       0.068468   0.077734  -0.027967  -0.001595  -0.014295   0.009361
     28      -0.001692  -0.056493   0.077964   0.093064  -0.011163  -0.028121
     29       0.042578   0.089581   0.008216   0.056160   0.010825  -0.023284
     30       0.373949   0.052863  -0.073147  -0.038037  -0.050562  -0.008554
     31      -0.078377  -0.073559   0.025570   0.056426  -0.038598  -0.035538
     32       0.283610   0.130283  -0.071646   0.010935   0.045273   0.056889
     33       0.014553   0.023281  -0.001990   0.027806   0.016110  -0.013016
     34       0.005364  -0.001896   0.084154   0.117372   0.060153  -0.025442
     35      -0.004440   0.037136   0.038500   0.094070   0.060923  -0.046935
     36       0.029082  -0.002333  -0.023290   0.030469   0.096161  -0.105770
     37       0.003049   0.005151   0.090679   0.114878   0.029363   0.006517
     38      -0.035438   0.048937   0.027629   0.125228   0.241735  -0.173434
     39      -0.022705  -0.030873   0.028266   0.052840   0.026916   0.002361
     40      -0.017967   0.015470   0.056396   0.138940   0.250016  -0.179905
     41       0.015455   0.057163   0.030195   0.078666   0.020962  -0.024865
     42       0.131958   0.121038  -0.067311  -0.042664  -0.041245   0.040119
     43      -0.136314  -0.080094   0.157378   0.123438  -0.045994  -0.066823
     44       0.020822   0.072057   0.024414   0.072327   0.021215  -0.035466
     45      -0.178471   0.052261  -0.081581  -0.041311  -0.166633  -0.168515
     46      -0.096747  -0.066024  -0.094399  -0.008182  -0.026192   0.025830
     47      -0.134010   0.132990  -0.173855  -0.032405   0.164701   0.257591
     48      -0.023185   0.103448  -0.005397   0.026011  -0.037794  -0.046813
     49       0.781254  -0.092606  -0.089740  -0.016504  -0.067104  -0.015703
     50       0.188972   0.041020  -0.081142  -0.027857   0.016339   0.075548
     51      -0.071479   0.088602   0.058376   0.067415   0.019689  -0.001139
     52      -0.039123  -0.060105   0.007298   0.047452  -0.027689  -0.017164
     53      -0.051929   0.074574   0.029134   0.026013  -0.047093  -0.048037
     54       0.042740   0.101259   0.118154   0.117327   0.039138  -0.010013
     55       0.000816  -0.075631   0.041006   0.078294  -0.013465  -0.019151
     56       0.035106   0.141924   0.071923   0.054814  -0.034259  -0.060349
     57       0.021652   0.158265   0.063342   0.094554   0.048936   0.014403
     58       0.011549  -0.070822  -0.081739   0.001986  -0.026745   0.020149
     59       0.032013   0.009512  -0.005568  -0.012685  -0.070024  -0.047999
     60       0.004408   0.064462   0.004324   0.011097  -0.062314   0.056255
     61       0.000289   0.021456   0.105064   0.097289  -0.076971   0.100681
     62      -0.003336  -0.063947   0.080704   0.098543  -0.052153   0.077586
     63      -0.002908   0.088047  -0.003599  -0.043514  -0.121098   0.094728
     64       0.002894   0.014672   0.103327   0.107761  -0.047003   0.076015
     65      -0.002243  -0.073166   0.176522   0.233790  -0.312415   0.352484
     66       0.004896   0.126265   0.038309   0.104001  -0.133901   0.122472
     67      -0.000751   0.002862   0.184208   0.184724  -0.326354   0.357541
     68      -0.002814  -0.082779   0.053793   0.048880   0.018586   0.007775
     69      -0.065221   0.040772  -0.088285  -0.048838  -0.122210  -0.094697
     70      -0.012192  -0.104334  -0.062576  -0.009229  -0.094671  -0.055763
     71      -0.046980   0.100705  -0.150191  -0.034544   0.119551   0.207726
     72       0.002979  -0.007483  -0.031621  -0.066436   0.037311  -0.023923
     73      -0.000414   0.080408   0.006356  -0.076713   0.068641  -0.098308
     74      -0.001678  -0.133481   0.018007  -0.027911   0.095178  -0.057318
     75       0.002675  -0.068215  -0.091714  -0.185702   0.114180  -0.089899
     76      -0.000886   0.092358  -0.008947  -0.101754   0.310866  -0.348857
     77      -0.001328  -0.112987   0.042444   0.019882   0.028134   0.007147
     78       0.003689  -0.035203   0.030708   0.044536   0.103261  -0.055383
     79      -0.000710   0.088943  -0.010487  -0.106524   0.034957  -0.074758
     80      -0.001035  -0.130653  -0.035886  -0.125262   0.347978  -0.325428
     81      -0.001976  -0.103423   0.166432  -0.105991   0.058140   0.041844
     82      -0.001812   0.103280   0.248938  -0.209863   0.096983   0.079505
     83       0.003456  -0.123515   0.120417  -0.133384  -0.014678  -0.011951
     84      -0.000089  -0.235567  -0.160903   0.088737   0.038320   0.004272
     85      -0.001272  -0.004724  -0.293344   0.129065   0.075083   0.020255
     86      -0.000755   0.109344  -0.130680   0.066044   0.003518  -0.031793
     87       0.001470   0.037492  -0.073533  -0.136177  -0.048505   0.023550
     88      -0.000415   0.110890  -0.055571  -0.184743  -0.068394   0.000004
     89      -0.000337  -0.231311  -0.010079  -0.092108   0.002398   0.077605
     90       0.002259  -0.011583  -0.085543  -0.167707   0.002984  -0.005783
     91      -0.001981   0.152324  -0.104275  -0.272559  -0.011655  -0.097958
     92       0.000204  -0.275063  -0.035879  -0.149537   0.073925   0.020118
     93       0.000380   0.063671  -0.131597  -0.238913  -0.125211   0.064816
     94      -0.000196   0.104219  -0.041000  -0.159615  -0.032459  -0.027106
     95       0.000125  -0.238463   0.008439  -0.051311  -0.182562   0.274544
     96       0.000591   0.092947  -0.034659  -0.053299  -0.087237   0.046722
     97      -0.000678   0.098696  -0.067879  -0.202304  -0.261909   0.196723
     98       0.000065  -0.251981  -0.024036  -0.123168   0.048562   0.037294
                 12         13         14         15         16         17    
      0       0.049406   0.013979   0.005501   0.058150  -0.005648   0.051111
      1       0.052525  -0.002595   0.004506   0.003071   0.002365   0.040766
      2      -0.003707  -0.010067  -0.033750  -0.054989   0.017598  -0.055644
      3      -0.038919   0.005604   0.002570  -0.042649   0.089949   0.116414
      4      -0.064331  -0.016879   0.075141   0.082882  -0.059809   0.188696
      5      -0.073896  -0.017302  -0.013870  -0.068704   0.038930   0.020770
      6      -0.080586   0.005447  -0.019183  -0.110423   0.135062   0.036933
      7      -0.108642  -0.015182   0.082321   0.092684  -0.069539   0.101565
      8      -0.084176  -0.015605   0.012093  -0.007443  -0.003697   0.008960
      9      -0.047953   0.011271  -0.020217  -0.101518   0.132902   0.093274
     10      -0.062903  -0.004782   0.061202   0.046060  -0.017103   0.198106
     11      -0.044436  -0.013285   0.039632   0.079732  -0.103670   0.040944
     12       0.043017   0.019901  -0.018829  -0.010147   0.045674   0.030313
     13       0.057520   0.009103  -0.011687  -0.042429   0.046302   0.048320
     14       0.028222  -0.005767   0.021495   0.104588  -0.135767  -0.031661
     15       0.100433   0.023255  -0.015605   0.060531  -0.016163  -0.053739
     16       0.130648   0.014411  -0.054406  -0.059317   0.054248  -0.138424
     17       0.055154  -0.003020  -0.023874   0.031401  -0.078663  -0.150330
     18      -0.068207   0.000675   0.012112  -0.046018   0.097356   0.160386
     19      -0.103696  -0.024369   0.108947   0.129565  -0.086868   0.280673
     20      -0.112515  -0.022411  -0.028410  -0.142476   0.101304   0.035305
     21      -0.080761   0.013129  -0.030061  -0.159119   0.204571   0.142196
     22      -0.107497  -0.004071   0.086268   0.069918  -0.025112   0.274476
     23      -0.063185  -0.014227   0.072809   0.148183  -0.167337   0.079982
     24       0.180326   0.031856  -0.025334   0.117643  -0.076450  -0.168804
     25       0.242009   0.030681  -0.125367  -0.114902   0.096258  -0.361054
     26       0.121129   0.005281  -0.047995   0.040605  -0.092800  -0.262442
     27      -0.054848  -0.009859  -0.026602   0.011412  -0.019969  -0.001273
     28      -0.116690   0.023584   0.045786   0.025823   0.049427  -0.131876
     29       0.077925   0.069050  -0.055784   0.070579   0.026267   0.020636
     30      -0.011621  -0.017935  -0.032661   0.016675  -0.002949   0.036231
     31      -0.077682   0.015310   0.040110   0.026789   0.049263  -0.110126
     32       0.066904   0.050781  -0.181988   0.059354   0.000350   0.140367
     33       0.007125   0.011048   0.135113  -0.088644  -0.075357  -0.032971
     34      -0.019620   0.070976  -0.050520  -0.158196  -0.151894  -0.006284
     35       0.170196   0.105811   0.101251  -0.057190  -0.036759   0.048946
     36      -0.056049   0.129724   0.217681  -0.097802  -0.040133  -0.058569
     37      -0.003085   0.028104  -0.077749  -0.144491  -0.152567  -0.000806
     38       0.237918   0.298529   0.188092  -0.347842  -0.287951   0.121841
     39       0.084205  -0.008676   0.242554  -0.191498  -0.121945  -0.004534
     40       0.006404   0.296435   0.036523  -0.403563  -0.356927   0.042162
     41       0.130938   0.071963   0.037653   0.032525   0.021164   0.027303
     42      -0.130187  -0.041867  -0.174861   0.080590   0.009693   0.021834
     43      -0.203568   0.001510   0.139363   0.045144   0.110733  -0.295228
     44       0.105394   0.081000   0.004045   0.043269   0.016364   0.008834
     45       0.241311   0.054058  -0.267695   0.036128  -0.069506   0.180080
     46       0.014110   0.006768  -0.011989   0.038934   0.048309  -0.099643
     47      -0.066812  -0.023175  -0.015265   0.042171  -0.025786   0.048993
     48       0.045503   0.041922  -0.122973   0.125544  -0.000506   0.013718
     49       0.044510   0.003547  -0.065342  -0.009653   0.059728   0.026376
     50      -0.070364  -0.034241  -0.006870  -0.123472   0.064505   0.010745
     51      -0.075200   0.028131  -0.039851   0.023065   0.072826  -0.053556
     52      -0.076649   0.011108   0.046970   0.049151   0.021947  -0.077305
     53      -0.071685   0.003789  -0.008094   0.041128   0.021700  -0.059237
     54      -0.077649   0.052534  -0.054281   0.052384   0.101985  -0.092239
     55      -0.064547   0.029073   0.033497   0.006669   0.081979  -0.120005
     56      -0.111796   0.013940   0.000807   0.205147  -0.066148  -0.036636
     57      -0.044825   0.061530  -0.075467   0.264903   0.000085  -0.076256
     58       0.011276   0.009998  -0.008964   0.040664   0.047661  -0.087271
     59      -0.066147  -0.025433  -0.001958  -0.171868   0.083316  -0.015232
     60       0.054302  -0.089525   0.086423  -0.051369  -0.089648  -0.046056
     61       0.047030  -0.107750  -0.130298  -0.074152  -0.116551   0.004633
     62       0.174463  -0.062498   0.114015   0.045875   0.109546   0.049856
     63       0.090338  -0.205680   0.056050   0.035996  -0.021329  -0.044286
     64       0.031448  -0.066768  -0.118484  -0.101319  -0.136453   0.003718
     65       0.270395  -0.163770   0.087159   0.081344   0.139780   0.053339
     66       0.124706  -0.015338   0.119206  -0.095672  -0.136025  -0.035065
     67       0.134908  -0.261385  -0.164177   0.004534  -0.044787   0.009851
     68       0.132032  -0.061394   0.105686   0.047941   0.112413   0.045153
     69       0.128894   0.010663  -0.154169  -0.000256  -0.041775   0.129471
     70       0.031522   0.005366  -0.025816  -0.028750   0.080947  -0.104431
     71      -0.074921  -0.032602  -0.004036  -0.017845   0.005165   0.034891
     72      -0.057941  -0.117048   0.024069  -0.060075  -0.127992  -0.088973
     73       0.045101  -0.119752  -0.075262   0.007443  -0.012887   0.030782
     74       0.044717  -0.093776   0.037829   0.060248   0.101959   0.029023
     75      -0.184937  -0.083419  -0.060501  -0.064847  -0.165896  -0.111780
     76       0.051054  -0.339462  -0.085777   0.061948   0.040014   0.030428
     77       0.089991  -0.070557   0.069541   0.053070   0.106678   0.037529
     78      -0.054171  -0.262891  -0.056962  -0.094075  -0.198185  -0.097896
     79       0.045806  -0.064792  -0.047879   0.015093   0.006827   0.033475
     80       0.008381  -0.262855   0.017606   0.122925   0.159836   0.026925
     81       0.075082   0.025718  -0.026101  -0.005851   0.040719   0.025941
     82       0.103020   0.018634  -0.041700  -0.089870   0.082302   0.024892
     83       0.069699   0.000026   0.038388   0.182611  -0.200909  -0.015095
     84       0.083723   0.014030   0.018543   0.125733  -0.072679   0.045764
     85       0.095364  -0.001057  -0.012271  -0.003674   0.010853   0.027036
     86       0.011992  -0.008600  -0.061999  -0.118501   0.081962  -0.065780
     87      -0.020815   0.014193   0.162197  -0.025096  -0.040888  -0.097880
     88       0.048485   0.101654   0.049369   0.035455   0.069274   0.031019
     89      -0.124494   0.086787  -0.146947  -0.021069  -0.052902   0.020922
     90      -0.107992  -0.010910   0.028776  -0.024810  -0.081963  -0.111512
     91       0.076978   0.074526   0.160099   0.148000   0.245246  -0.010351
     92      -0.213894   0.052155  -0.266857   0.007929  -0.053662  -0.004633
     93      -0.022098   0.163725   0.272966   0.023428   0.059440  -0.119269
     94       0.048463   0.044266   0.017066   0.031107   0.052000   0.033134
     95      -0.120191   0.288629  -0.124651  -0.135049  -0.184316   0.066562
     96       0.096212  -0.010771   0.297208  -0.044732  -0.025426  -0.071356
     97       0.022394   0.352707   0.076376  -0.051457  -0.024849   0.059304
     98      -0.168176   0.057633  -0.206388   0.000665  -0.044417   0.005798
                 18         19         20         21         22         23    
      0      -0.001289   0.028106   0.115565   0.003477   0.021454  -0.014529
      1      -0.002660  -0.028594   0.155948  -0.069426   0.014390   0.060874
      2       0.000960  -0.162796   0.047301  -0.095409  -0.002428   0.057651
      3      -0.000405  -0.045072  -0.067351   0.090207   0.022888   0.006260
      4      -0.005456  -0.003025  -0.137031   0.109075   0.008366  -0.018098
      5       0.000379  -0.164185  -0.104860   0.006882  -0.000081   0.024959
      6       0.002423  -0.043706  -0.021636  -0.041739  -0.019858  -0.009464
      7      -0.002925   0.135657  -0.005699  -0.019459  -0.037934  -0.130753
      8       0.000143   0.014765   0.001879   0.003773  -0.007877  -0.093114
      9       0.001214  -0.142017   0.071460  -0.067371   0.008281   0.067164
     10      -0.004429  -0.016140   0.172024  -0.034971   0.020813  -0.040546
     11      -0.002441  -0.095117   0.054218  -0.083146  -0.006347   0.029260
     12       0.000070  -0.040963  -0.087293   0.057611   0.009802   0.037096
     13      -0.002093  -0.007082  -0.131177   0.125493   0.024658   0.034903
     14      -0.002363  -0.058371  -0.103425   0.004793  -0.009093   0.038519
     15       0.000146   0.127723   0.021692   0.030419  -0.004362  -0.084156
     16       0.001090   0.125417   0.007741  -0.001509  -0.017662  -0.074294
     17       0.000709  -0.057171  -0.050844  -0.097355  -0.039321   0.020271
     18      -0.001092  -0.094919  -0.170665   0.159511   0.035372   0.059106
     19      -0.007684  -0.016822  -0.285224   0.264699   0.037402   0.020558
     20       0.001250  -0.295319  -0.224461   0.022738   0.001260   0.133196
     21       0.001975  -0.204950   0.195119  -0.087074   0.034842   0.107001
     22      -0.005314  -0.114689   0.365209  -0.116197   0.041946   0.037091
     23      -0.003972  -0.138338   0.150255  -0.145782  -0.005795   0.072360
     24       0.000599   0.247409   0.026900   0.022021  -0.021788  -0.116685
     25       0.005165   0.225233   0.001028  -0.031222  -0.044250  -0.110908
     26       0.002046   0.024573  -0.049768  -0.108273  -0.053959  -0.005289
     27       0.001215   0.081889  -0.023567  -0.063081  -0.062579  -0.057796
     28       0.002596   0.151587  -0.024053  -0.051990   0.008898   0.225698
     29      -0.002394   0.056794   0.082911   0.165991   0.096087   0.090400
     30       0.002724   0.090651  -0.038607  -0.098990  -0.101106   0.021846
     31       0.003154   0.131169  -0.019668  -0.039930  -0.009073   0.242524
     32       0.000077   0.057171   0.029107   0.044068   0.197935  -0.063802
     33      -0.009788   0.012064  -0.027671  -0.061528  -0.164661  -0.029878
     34      -0.014349   0.013376  -0.059315  -0.128222   0.103854  -0.057499
     35      -0.015781  -0.024162   0.055553   0.117206  -0.030669   0.061710
     36      -0.003410   0.076071  -0.056210  -0.123024  -0.219672   0.034873
     37      -0.015553   0.001103  -0.048634  -0.105627   0.119413  -0.064948
     38      -0.034197  -0.179189   0.003607   0.013053  -0.061396  -0.201444
     39      -0.020089  -0.060606  -0.079015  -0.163910  -0.264816  -0.142001
     40      -0.026978  -0.091111  -0.094496  -0.199014   0.071827  -0.227823
     41      -0.008879   0.026594   0.083412   0.172719   0.020045   0.138217
     42       0.012248   0.132808  -0.048577  -0.128195   0.042023  -0.181383
     43       0.007480   0.136863   0.001700   0.007660  -0.090913   0.236055
     44      -0.006533   0.033130   0.093138   0.192612   0.053113   0.132528
     45      -0.003197   0.012462   0.023524   0.054404   0.247656  -0.359241
     46       0.006911  -0.265265   0.007300   0.028638  -0.019935  -0.065848
     47       0.001570  -0.038349  -0.023178  -0.044941   0.028059   0.008130
     48       0.005378  -0.033840  -0.010636  -0.023359   0.011699  -0.051601
     49       0.004747  -0.003718  -0.075720  -0.154684   0.009590   0.166155
     50       0.000220   0.155963  -0.003036  -0.016770  -0.011078  -0.030226
     51       0.004742   0.024287   0.002846   0.006938  -0.022500  -0.084959
     52       0.002244   0.083948   0.001145   0.003351  -0.013626   0.104507
     53       0.002710   0.113850   0.052114   0.093449   0.017022  -0.085638
     54       0.005684   0.117882  -0.004965  -0.005194   0.015027   0.120212
     55       0.002490   0.126307   0.002647   0.013736   0.019082   0.277729
     56       0.004071   0.195276   0.034114   0.048128   0.012845  -0.102280
     57       0.010247  -0.103622  -0.011786  -0.011550  -0.001918  -0.072000
     58       0.005742  -0.155829   0.000150   0.011068  -0.009888   0.019435
     59      -0.001727   0.214564   0.046854   0.072131   0.006322  -0.090917
     60      -0.014816  -0.030337   0.050279   0.106755  -0.116576   0.044364
     61      -0.018311  -0.020638  -0.000905  -0.002962   0.085716  -0.024479
     62      -0.009931   0.018956  -0.039162  -0.084404  -0.036792  -0.032999
     63      -0.005943  -0.047644   0.104055   0.223652  -0.197151   0.104515
     64      -0.017803  -0.014274  -0.017608  -0.039604   0.106412  -0.042208
     65      -0.084013   0.011615  -0.045420  -0.097378   0.000845  -0.049907
     66      -0.059377  -0.049853   0.089326   0.191115  -0.205573   0.089923
     67      -0.074186  -0.025627  -0.008626  -0.016362   0.107644  -0.047533
     68       0.015891   0.027255  -0.051659  -0.111981  -0.005403  -0.045347
     69      -0.001433   0.146264  -0.054304  -0.120871   0.000432   0.135720
     70       0.005970  -0.187910   0.023360   0.058354  -0.007017  -0.160628
     71       0.001176   0.047257  -0.025089  -0.053754  -0.008455   0.024434
     72       0.017110  -0.032164   0.044844   0.097255   0.082735   0.044731
     73       0.038735  -0.009655   0.027094   0.057410  -0.124024   0.023824
     74       0.040718   0.031155  -0.056913  -0.121470   0.086608  -0.057667
     75       0.024789  -0.038484   0.065160   0.141843   0.125174   0.067496
     76       0.104913   0.005070   0.023094   0.049703  -0.113618   0.031556
     77       0.026456   0.030552  -0.062488  -0.133927   0.065769  -0.065998
     78       0.038325  -0.046074   0.063002   0.135460   0.112345   0.057704
     79       0.028086  -0.005409   0.019904   0.042163  -0.129020   0.017657
     80       0.104350   0.046229  -0.052050  -0.109688   0.071007  -0.037171
     81      -0.000315  -0.060372  -0.183118   0.133363   0.024832   0.089080
     82      -0.001641  -0.099635  -0.313159   0.224892   0.044239   0.169358
     83      -0.004187   0.001719  -0.168638   0.111247   0.011768   0.027710
     84      -0.002608   0.002381   0.215786  -0.061786   0.025843   0.049319
     85      -0.002712  -0.101226   0.340461  -0.149429   0.039836   0.163989
     86       0.002006  -0.217339   0.153927  -0.125888   0.019793   0.114460
     87      -0.008200  -0.012357   0.000526   0.004097   0.219121   0.011005
     88      -0.006172   0.012589  -0.016767  -0.035619  -0.063251  -0.014156
     89      -0.007137  -0.006049   0.018600   0.038782  -0.071411   0.009307
     90      -0.242726  -0.036595   0.047912   0.104056   0.067893   0.057435
     91      -0.400241   0.035522  -0.086834  -0.184234   0.132197  -0.079829
     92      -0.367583  -0.027287   0.053668   0.112575  -0.190508   0.044306
     93      -0.175897   0.006996  -0.049859  -0.102453   0.362094  -0.034564
     94      -0.001375   0.007157  -0.004838  -0.010480  -0.097167  -0.003761
     95       0.514664  -0.006501   0.043836   0.092802  -0.132572   0.034853
     96       0.370916   0.012139  -0.043067  -0.087496   0.365663  -0.033911
     97       0.339284   0.012597  -0.001076  -0.001796  -0.096417   0.002108
     98      -0.216151  -0.015922   0.033937   0.070906  -0.126874   0.025297
                 24         25         26         27         28         29    
      0      -0.066911   0.016125  -0.065963  -0.119520  -0.048183   0.009218
      1      -0.064086   0.049490   0.183175   0.118003  -0.000211  -0.000608
      2      -0.017131   0.016963  -0.259165  -0.092711  -0.050223   0.006998
      3       0.028643  -0.026538   0.293271  -0.092881   0.001223   0.006872
      4       0.002815  -0.001941  -0.092074   0.107712   0.061187  -0.012451
      5       0.029727  -0.016861  -0.158807  -0.095767  -0.010708   0.002780
[...]
     17       0.007411   0.000050   0.000010
     18      -0.019943   0.000860  -0.000315
     19       0.009075  -0.000302   0.000231
     20       0.005440   0.000120  -0.000046
     21       0.480002  -0.000059  -0.002606
     22      -0.596806   0.000308   0.001601
     23       0.593279  -0.000322  -0.001529
     24       0.033950   0.000489   0.000050
     25       0.022967   0.000343   0.000198
     26      -0.080057  -0.000928  -0.000405
     27      -0.000108  -0.024609  -0.000212
     28       0.000013   0.001265  -0.000009
     29      -0.000006  -0.064629  -0.000076
     30       0.000113  -0.013660   0.006566
     31      -0.001455   0.005235   0.001533
     32       0.000851  -0.016565  -0.004426
     33       0.000015  -0.000532  -0.000036
     34       0.000041   0.000067   0.000102
     35      -0.000102  -0.002164  -0.000079
     36      -0.000293  -0.000487  -0.000760
     37      -0.000905  -0.000737  -0.000938
     38      -0.000086  -0.000807  -0.000003
     39       0.000485   0.005571  -0.000019
     40       0.000286   0.003927   0.000442
     41       0.000945   0.011347   0.000985
     42      -0.000011   0.361534   0.001618
     43       0.000573  -0.018336  -0.000066
     44      -0.000104   0.929226   0.002466
     45      -0.000343   0.000285  -0.142235
     46      -0.001509   0.001265  -0.615162
     47       0.002650  -0.002328   0.772835
     48       0.001579  -0.001198   0.001672
     49      -0.001012   0.001187  -0.000134
     50       0.001211  -0.000749  -0.009765
     51      -0.000270  -0.001143   0.000133
     52       0.000274  -0.000421  -0.000089
     53      -0.000257  -0.000979  -0.000100
     54       0.000507  -0.000446  -0.000357
     55      -0.001012   0.003582   0.000301
     56      -0.000278   0.000535   0.000182
     57       0.000204   0.000270  -0.000078
     58      -0.000051  -0.000180   0.000065
     59       0.000049   0.000277   0.000224
     60      -0.000010  -0.000027  -0.000012
     61      -0.000043   0.000018   0.000003
     62       0.000028   0.000367   0.000015
     63       0.000208   0.000069   0.000045
     64       0.000468  -0.000573  -0.000351
     65      -0.000102  -0.000517  -0.000017
     66      -0.000013   0.001799   0.000210
     67       0.000036  -0.000889  -0.000021
     68      -0.000225  -0.000263   0.000247
     69       0.000020   0.000382   0.008628
     70       0.000181  -0.000341   0.038626
     71      -0.000306   0.000342  -0.048129
     72       0.000002  -0.000054  -0.000001
     73       0.000025   0.000073   0.000012
     74      -0.000030  -0.000092  -0.000017
     75       0.000164  -0.000058   0.000002
     76       0.000103   0.000231   0.000023
     77       0.000437   0.001002   0.000158
     78      -0.000141  -0.000330  -0.000103
     79      -0.000415  -0.000771  -0.000159
     80      -0.000051   0.000036   0.000011
     81       0.186347   0.001245  -0.000102
     82      -0.077975  -0.000444   0.000113
     83      -0.057597  -0.000593  -0.000047
     84      -0.020953  -0.000524  -0.000120
     85       0.025950   0.000942   0.000211
     86      -0.024896  -0.001024  -0.000188
     87       0.000019   0.000022   0.000003
     88      -0.000013  -0.000024   0.000002
     89       0.000002  -0.000018  -0.000000
     90      -0.000250  -0.000847  -0.000056
     91      -0.000076  -0.000034  -0.000009
     92       0.000251   0.000575   0.000046
     93       0.000099   0.000097   0.000013
     94       0.000252   0.000364  -0.000047
     95      -0.000008  -0.000011   0.000002
     96      -0.000038   0.000006   0.000030
     97      -0.000013  -0.000006   0.000002
     98      -0.000181  -0.000010   0.000028


-----------
IR SPECTRUM  
-----------

 Mode    freq (cm**-1)   T**2         TX         TY         TZ
-------------------------------------------------------------------
   7:        44.93    0.000000  (  0.000000   0.000000   0.000000)
   8:        58.31    0.000000  (  0.000000   0.000000   0.000000)
   9:        64.54    0.000000  (  0.000000   0.000000   0.000000)
  10:        80.68    0.000000  (  0.000000   0.000000   0.000000)
  11:        82.84    0.000000  (  0.000000   0.000000   0.000000)
  12:       117.55    0.000000  (  0.000000   0.000000   0.000000)
  13:       130.18    0.000000  (  0.000000   0.000000   0.000000)
  14:       178.13    0.000000  (  0.000000   0.000000   0.000000)
  15:       210.76    0.000000  (  0.000000   0.000000   0.000000)
  16:       231.81    0.000000  (  0.000000   0.000000   0.000000)
  17:       255.66    0.000000  (  0.000000   0.000000   0.000000)
  18:       276.55    0.000000  (  0.000000   0.000000   0.000000)
  19:       348.78    0.000000  (  0.000000   0.000000   0.000000)
  20:       380.85    0.000000  (  0.000000   0.000000   0.000000)
  21:       383.25    0.000000  (  0.000000   0.000000   0.000000)
  22:       402.03    0.000000  (  0.000000   0.000000   0.000000)
  23:       474.16    0.000000  (  0.000000   0.000000   0.000000)
  24:       510.32    0.000000  (  0.000000   0.000000   0.000000)
  25:       522.60    0.000000  (  0.000000   0.000000   0.000000)
  26:       589.18    0.000000  (  0.000000   0.000000   0.000000)
  27:       607.20    0.000000  (  0.000000   0.000000   0.000000)
  28:       622.14    0.000000  (  0.000000   0.000000   0.000000)
  29:       623.63    0.000000  (  0.000000   0.000000   0.000000)
  30:       671.07    0.000000  (  0.000000   0.000000   0.000000)
  31:       694.73    0.000000  (  0.000000   0.000000   0.000000)
  32:       753.42    0.000000  (  0.000000   0.000000   0.000000)
  33:       769.40    0.000000  (  0.000000   0.000000   0.000000)
  34:       790.45    0.000000  (  0.000000   0.000000   0.000000)
  35:       826.16    0.000000  (  0.000000   0.000000   0.000000)
  36:       845.77    0.000000  (  0.000000   0.000000   0.000000)
  37:       884.26    0.000000  (  0.000000   0.000000   0.000000)
  38:       909.61    0.000000  (  0.000000   0.000000   0.000000)
  39:       919.92    0.000000  (  0.000000   0.000000   0.000000)
  40:       932.43    0.000000  (  0.000000   0.000000   0.000000)
  41:       938.66    0.000000  (  0.000000   0.000000   0.000000)
  42:       951.42    0.000000  (  0.000000   0.000000   0.000000)
  43:       955.80    0.000000  (  0.000000   0.000000   0.000000)
  44:       981.52    0.000000  (  0.000000   0.000000   0.000000)
  45:      1021.44    0.000000  (  0.000000   0.000000   0.000000)
  46:      1061.55    0.000000  (  0.000000   0.000000   0.000000)
  47:      1071.31    0.000000  (  0.000000   0.000000   0.000000)
  48:      1085.03    0.000000  (  0.000000   0.000000   0.000000)
  49:      1108.13    0.000000  (  0.000000   0.000000   0.000000)
  50:      1112.37    0.000000  (  0.000000   0.000000   0.000000)
  51:      1130.91    0.000000  (  0.000000   0.000000   0.000000)
  52:      1145.58    0.000000  (  0.000000   0.000000   0.000000)
  53:      1180.18    0.000000  (  0.000000   0.000000   0.000000)
  54:      1189.00    0.000000  (  0.000000   0.000000   0.000000)
  55:      1191.91    0.000000  (  0.000000   0.000000   0.000000)
  56:      1203.57    0.000000  (  0.000000   0.000000   0.000000)
  57:      1215.01    0.000000  (  0.000000   0.000000   0.000000)
  58:      1235.02    0.000000  (  0.000000   0.000000   0.000000)
  59:      1248.90    0.000000  (  0.000000   0.000000   0.000000)
  60:      1267.90    0.000000  (  0.000000   0.000000   0.000000)
  61:      1275.32    0.000000  (  0.000000   0.000000   0.000000)
  62:      1279.65    0.000000  (  0.000000   0.000000   0.000000)
  63:      1284.15    0.000000  (  0.000000   0.000000   0.000000)
  64:      1288.15    0.000000  (  0.000000   0.000000   0.000000)
  65:      1317.05    0.000000  (  0.000000   0.000000   0.000000)
  66:      1334.29    0.000000  (  0.000000   0.000000   0.000000)
  67:      1338.17    0.000000  (  0.000000   0.000000   0.000000)
  68:      1370.47    0.000000  (  0.000000   0.000000   0.000000)
  69:      1390.33    0.000000  (  0.000000   0.000000   0.000000)
  70:      1425.83    0.000000  (  0.000000   0.000000   0.000000)
  71:      1429.62    0.000000  (  0.000000   0.000000   0.000000)
  72:      1458.63    0.000000  (  0.000000   0.000000   0.000000)
  73:      1462.70    0.000000  (  0.000000   0.000000   0.000000)
  74:      1493.95    0.000000  (  0.000000   0.000000   0.000000)
  75:      1502.63    0.000000  (  0.000000   0.000000   0.000000)
  76:      1505.94    0.000000  (  0.000000   0.000000   0.000000)
  77:      1510.28    0.000000  (  0.000000   0.000000   0.000000)
  78:      1537.17    0.000000  (  0.000000   0.000000   0.000000)
  79:      1570.18    0.000000  (  0.000000   0.000000   0.000000)
  80:      1574.27    0.000000  (  0.000000   0.000000   0.000000)
  81:      2211.95    0.000000  (  0.000000   0.000000   0.000000)
  82:      2913.69    0.000000  (  0.000000   0.000000   0.000000)
  83:      2948.29    0.000000  (  0.000000   0.000000   0.000000)
  84:      2957.99    0.000000  (  0.000000   0.000000   0.000000)
  85:      2973.40    0.000000  (  0.000000   0.000000   0.000000)
  86:      2980.55    0.000000  (  0.000000   0.000000   0.000000)
  87:      2983.46    0.000000  (  0.000000   0.000000   0.000000)
  88:      2990.83    0.000000  (  0.000000   0.000000   0.000000)
  89:      3003.22    0.000000  (  0.000000   0.000000   0.000000)
  90:      3005.73    0.000000  (  0.000000   0.000000   0.000000)
  91:      3032.05    0.000000  (  0.000000   0.000000   0.000000)
  92:      3041.03    0.000000  (  0.000000   0.000000   0.000000)
  93:      3054.94    0.000000  (  0.000000   0.000000   0.000000)
  94:      3060.58    0.000000  (  0.000000   0.000000   0.000000)
  95:      3070.19    0.000000  (  0.000000   0.000000   0.000000)
  96:      3085.73    0.000000  (  0.000000   0.000000   0.000000)
  97:      3346.27    0.000000  (  0.000000   0.000000   0.000000)
  98:      3615.74    0.000000  (  0.000000   0.000000   0.000000)

The first frequency considered to be a vibration is 7
The total number of vibrations considered is 92


--------------------------
THERMOCHEMISTRY AT 298.15K
--------------------------

Temperature         ... 298.15 K
Pressure            ... 1.00 atm
Total Mass          ... 197.28 AMU

Throughout the following assumptions are being made:
  (1) The electronic state is orbitally nondegenerate
  (2) There are no thermally accessible electronically excited states
  (3) Hindered rotations indicated by low frequency modes are not
      treated as such but are treated as vibrations and this may
      cause some error
  (4) All equations used are the standard statistical mechanics
      equations for an ideal gas
  (5) All vibrations are strictly harmonic

freq.      44.93  E(vib)   ...       0.53 
freq.      58.31  E(vib)   ...       0.51 
freq.      64.54  E(vib)   ...       0.51 
freq.      80.68  E(vib)   ...       0.48 
freq.      82.84  E(vib)   ...       0.48 
freq.     117.55  E(vib)   ...       0.44 
freq.     130.18  E(vib)   ...       0.43 
freq.     178.13  E(vib)   ...       0.37 
freq.     210.76  E(vib)   ...       0.34 
freq.     231.81  E(vib)   ...       0.32 
freq.     255.66  E(vib)   ...       0.30 
freq.     276.55  E(vib)   ...       0.28 
freq.     348.78  E(vib)   ...       0.23 
freq.     380.85  E(vib)   ...       0.21 
freq.     383.25  E(vib)   ...       0.20 
freq.     402.03  E(vib)   ...       0.19 
freq.     474.16  E(vib)   ...       0.15 
freq.     510.32  E(vib)   ...       0.14 
freq.     522.60  E(vib)   ...       0.13 
freq.     589.18  E(vib)   ...       0.10 
freq.     607.20  E(vib)   ...       0.10 
freq.     622.14  E(vib)   ...       0.09 
freq.     623.63  E(vib)   ...       0.09 
freq.     671.07  E(vib)   ...       0.08 
freq.     694.73  E(vib)   ...       0.07 
freq.     753.42  E(vib)   ...       0.06 
freq.     769.40  E(vib)   ...       0.06 
freq.     790.45  E(vib)   ...       0.05 
freq.     826.16  E(vib)   ...       0.04 
freq.     845.77  E(vib)   ...       0.04 
freq.     884.26  E(vib)   ...       0.04 
freq.     909.61  E(vib)   ...       0.03 
freq.     919.92  E(vib)   ...       0.03 
freq.     932.43  E(vib)   ...       0.03 
freq.     938.66  E(vib)   ...       0.03 
freq.     951.42  E(vib)   ...       0.03 
freq.     955.80  E(vib)   ...       0.03 
freq.     981.52  E(vib)   ...       0.02 
freq.    1021.44  E(vib)   ...       0.02 
freq.    1061.55  E(vib)   ...       0.02 
freq.    1071.31  E(vib)   ...       0.02 
freq.    1085.03  E(vib)   ...       0.02 
freq.    1108.13  E(vib)   ...       0.02 
freq.    1112.37  E(vib)   ...       0.01 
freq.    1130.91  E(vib)   ...       0.01 
freq.    1145.58  E(vib)   ...       0.01 
freq.    1180.18  E(vib)   ...       0.01 
freq.    1189.00  E(vib)   ...       0.01 
freq.    1191.91  E(vib)   ...       0.01 
freq.    1203.57  E(vib)   ...       0.01 
freq.    1215.01  E(vib)   ...       0.01 
freq.    1235.02  E(vib)   ...       0.01 
freq.    1248.90  E(vib)   ...       0.01 
freq.    1267.90  E(vib)   ...       0.01 
freq.    1275.32  E(vib)   ...       0.01 
freq.    1279.65  E(vib)   ...       0.01 
freq.    1284.15  E(vib)   ...       0.01 
freq.    1288.15  E(vib)   ...       0.01 
freq.    1317.05  E(vib)   ...       0.01 
freq.    1334.29  E(vib)   ...       0.01 
freq.    1338.17  E(vib)   ...       0.01 
freq.    1370.47  E(vib)   ...       0.01 
freq.    1390.33  E(vib)   ...       0.00 
freq.    1425.83  E(vib)   ...       0.00 
freq.    1429.62  E(vib)   ...       0.00 
freq.    1458.63  E(vib)   ...       0.00 
freq.    1462.70  E(vib)   ...       0.00 
freq.    1493.95  E(vib)   ...       0.00 
freq.    1502.63  E(vib)   ...       0.00 
freq.    1505.94  E(vib)   ...       0.00 
freq.    1510.28  E(vib)   ...       0.00 
freq.    1537.17  E(vib)   ...       0.00 
freq.    1570.18  E(vib)   ...       0.00 
freq.    1574.27  E(vib)   ...       0.00 
freq.    2211.95  E(vib)   ...       0.00 
freq.    2913.69  E(vib)   ...       0.00 
freq.    2948.29  E(vib)   ...       0.00 
freq.    2957.99  E(vib)   ...       0.00 
freq.    2973.40  E(vib)   ...       0.00 
freq.    2980.55  E(vib)   ...       0.00 
freq.    2983.46  E(vib)   ...       0.00 
freq.    2990.83  E(vib)   ...       0.00 
freq.    3003.22  E(vib)   ...       0.00 
freq.    3005.73  E(vib)   ...       0.00 
freq.    3032.05  E(vib)   ...       0.00 
freq.    3041.03  E(vib)   ...       0.00 
freq.    3054.94  E(vib)   ...       0.00 
freq.    3060.58  E(vib)   ...       0.00 
freq.    3070.19  E(vib)   ...       0.00 
freq.    3085.73  E(vib)   ...       0.00 
freq.    3346.27  E(vib)   ...       0.00 
freq.    3615.74  E(vib)   ...       0.00 

------------
INNER ENERGY
------------

The inner energy is: U= E(el) + E(ZPE) + E(vib) + E(rot) + E(trans)
    E(el)   - is the total energy from the electronic structure calculation
              = E(kin-el) + E(nuc-el) + E(el-el) + E(nuc-nuc)
    E(ZPE)  - the the zero temperature vibrational energy from the frequency calculation
    E(vib)  - the the finite temperature correction to E(ZPE) due to population
              of excited vibrational states
    E(rot)  - is the rotational thermal energy
    E(trans)- is the translational thermal energy

Summary of contributions to the inner energy U:
Electronic energy                ...    -44.26396880 Eh
Zero point energy                ...      0.27591557 Eh     173.14 kcal/mol
Thermal vibrational correction   ...      0.01208545 Eh       7.58 kcal/mol
Thermal rotational correction    ...      0.00141627 Eh       0.89 kcal/mol
Thermal translational correction ...      0.00141627 Eh       0.89 kcal/mol
-----------------------------------------------------------------------
Total thermal energy                    -43.97313524 Eh


Summary of corrections to the electronic energy:
(perhaps to be used in another calculation)
Total thermal correction                  0.01491799 Eh       9.36 kcal/mol
Non-thermal (ZPE) correction              0.27591557 Eh     173.14 kcal/mol
-----------------------------------------------------------------------
Total correction                          0.29083356 Eh     182.50 kcal/mol


--------
ENTHALPY
--------

The enthalpy is H = U + kB*T
                kB is Boltzmann's constant
Total free energy                 ...    -43.97313524 Eh 
Thermal Enthalpy correction       ...      0.00094421 Eh       0.59 kcal/mol
-----------------------------------------------------------------------
Total Enthalpy                    ...    -43.97219103 Eh


Note: Only C1 symmetry has been detected, increase convergence thresholds 
      if your molecule has a higher symmetry. Symmetry factor of 1.0 is   
      used for the rotational entropy correction. 
 

Note: Rotational entropy computed according to Herzberg 
Infrared and Raman Spectra, Chapter V,1, Van Nostrand Reinhold, 1945 
Point Group:  C1, Symmetry Number:   1  
Rotational constants in cm-1:     0.033064     0.011093     0.008901 

Vibrational entropy computed according to the QRRHO of S. Grimme
Chem.Eur.J. 2012 18 9955


-------
ENTROPY
-------

The entropy contributions are T*S = T*(S(el)+S(vib)+S(rot)+S(trans))
     S(el)   - electronic entropy
     S(vib)  - vibrational entropy
     S(rot)  - rotational entropy
     S(trans)- translational entropy
The entropies will be listed as mutliplied by the temperature to get
units of energy

Electronic entropy                ...      0.00000000 Eh      0.00 kcal/mol
Vibrational entropy               ...      0.02109152 Eh     13.24 kcal/mol
Rotational entropy                ...      0.01547442 Eh      9.71 kcal/mol
Translational entropy             ...      0.01983352 Eh     12.45 kcal/mol
-----------------------------------------------------------------------
Final entropy term                ...      0.05639946 Eh     35.39 kcal/mol

In case the symmetry of your molecule has not been determined correctly
or in case you have a reason to use a different symmetry number we print 
out the resulting rotational entropy values for sn=1,12 :
 --------------------------------------------------------
|  sn= 1 | S(rot)=       0.01547442 Eh      9.71 kcal/mol|
|  sn= 2 | S(rot)=       0.01481996 Eh      9.30 kcal/mol|
|  sn= 3 | S(rot)=       0.01443713 Eh      9.06 kcal/mol|
|  sn= 4 | S(rot)=       0.01416551 Eh      8.89 kcal/mol|
|  sn= 5 | S(rot)=       0.01395482 Eh      8.76 kcal/mol|
|  sn= 6 | S(rot)=       0.01378267 Eh      8.65 kcal/mol|
|  sn= 7 | S(rot)=       0.01363713 Eh      8.56 kcal/mol|
|  sn= 8 | S(rot)=       0.01351105 Eh      8.48 kcal/mol|
|  sn= 9 | S(rot)=       0.01339984 Eh      8.41 kcal/mol|
|  sn=10 | S(rot)=       0.01330036 Eh      8.35 kcal/mol|
|  sn=11 | S(rot)=       0.01321037 Eh      8.29 kcal/mol|
|  sn=12 | S(rot)=       0.01312822 Eh      8.24 kcal/mol|
 --------------------------------------------------------


-------------------
GIBBS FREE ENERGY
-------------------

The Gibbs free energy is G = H - T*S

Total enthalpy                    ...    -43.97219103 Eh 
Total entropy correction          ...     -0.05639946 Eh    -35.39 kcal/mol
-----------------------------------------------------------------------
Final Gibbs free energy         ...    -44.02859049 Eh

For completeness - the Gibbs free energy minus the electronic energy
G-E(el)                           ...      0.23537831 Eh    147.70 kcal/mol


Total Time for Numerical Frequencies  :        53.962 sec
Time for Reference State(s)           :         0.079 sec
Time for Displacements                :        47.563 sec

Timings for individual modules:

Sum of individual times         ...        0.156 sec (=   0.003 min)
XTB module                      ...        0.156 sec (=   0.003 min) 100.0 %
                             ****ORCA TERMINATED NORMALLY****
TOTAL RUN TIME: 0 days 0 hours 0 minutes 54 seconds 492 msec
(SLURM) EXECUTION TIME: 54.513776311 seconds.
