(SLURM) JOB ID:         391

                                 *****************
                                 * O   R   C   A *
                                 *****************

           --- An Ab Initio, DFT and Semiempirical electronic structure package ---

                  #######################################################
                  #                        -***-                        #
                  #          Department of theory and spectroscopy      #
                  #               Directorship: Frank Neese             #
                  #        Max Planck Institute fuer Kohlenforschung    #
                  #                Kaiser Wilhelm Platz 1               #
                  #                 D-45470 Muelheim/Ruhr               #
                  #                      Germany                        #
                  #                                                     #
                  #                  All rights reserved                #
                  #                        -***-                        #
                  #######################################################


                         Program Version 4.2.1 -  RELEASE  -


 With contributions from (in alphabetic order):
   Daniel Aravena         : Magnetic Suceptibility
   Michael Atanasov       : Ab Initio Ligand Field Theory (pilot matlab implementation)
   Alexander A. Auer      : GIAO ZORA, VPT2
   Ute Becker             : Parallelization
   Giovanni Bistoni       : ED, misc. LED, open-shell LED, HFLD
   Martin Brehm           : Molecular dynamics
   Dmytro Bykov           : SCF Hessian
   Vijay G. Chilkuri      : MRCI spin determinant printing, contributions to CSF-ICE
   Dipayan Datta          : RHF DLPNO-CCSD density
   Achintya Kumar Dutta   : EOM-CC, STEOM-CC
   Dmitry Ganyushin       : Spin-Orbit,Spin-Spin,Magnetic field MRCI
   Miquel Garcia          : C-PCM Hessian, Gaussian charge scheme
   Yang Guo               : DLPNO-NEVPT2, CIM, IAO-localization
   Andreas Hansen         : Spin unrestricted coupled pair/coupled cluster methods
   Benjamin Helmich-Paris : CASSCF linear response (MC-RPA)
   Lee Huntington         : MR-EOM, pCC
   Robert Izsak           : Overlap fitted RIJCOSX, COSX-SCS-MP3, EOM
   Christian Kollmar      : KDIIS, OOCD, Brueckner-CCSD(T), CCSD density
   Simone Kossmann        : Meta GGA functionals, TD-DFT gradient, OOMP2, MP2 Hessian
   Martin Krupicka        : AUTO-CI
   Lucas Lang             : DCDCAS
   Dagmar Lenk            : GEPOL surface, SMD
   Dimitrios Liakos       : Extrapolation schemes; Compound Job, initial MDCI parallelization
   Dimitrios Manganas     : Further ROCIS development; embedding schemes
   Dimitrios Pantazis     : SARC Basis sets
   Taras Petrenko         : DFT Hessian,TD-DFT gradient, ASA, ECA, R-Raman, ABS, FL, XAS/XES, NRVS
   Peter Pinski           : DLPNO-MP2, DLPNO-MP2 Gradient
   Christoph Reimann      : Effective Core Potentials
   Marius Retegan         : Local ZFS, SOC
   Christoph Riplinger    : Optimizer, TS searches, QM/MM, DLPNO-CCSD(T), (RO)-DLPNO pert. Triples
   Tobias Risthaus        : Range-separated hybrids, TD-DFT gradient, RPA, STAB
   Michael Roemelt        : Original ROCIS implementation
   Masaaki Saitow         : Open-shell DLPNO-CCSD energy and density
   Barbara Sandhoefer     : DKH picture change effects
   Avijit Sen             : IP-ROCIS
   Kantharuban Sivalingam : CASSCF convergence, NEVPT2, FIC-MRCI
   Bernardo de Souza      : ESD, SOC TD-DFT
   Georgi Stoychev        : AutoAux, RI-MP2 NMR
   Willem Van den Heuvel  : Paramagnetic NMR
   Boris Wezisla          : Elementary symmetry handling
   Frank Wennmohs         : Technical directorship


 We gratefully acknowledge several colleagues who have allowed us to
 interface, adapt or use parts of their codes:
   Stefan Grimme, W. Hujo, H. Kruse,             : VdW corrections, initial TS optimization,
                  C. Bannwarth                     DFT functionals, gCP, sTDA/sTD-DF
   Ed Valeev, F. Pavosevic, A. Kumar             : LibInt (2-el integral package), F12 methods
   Garnet Chan, S. Sharma, J. Yang, R. Olivares  : DMRG
   Ulf Ekstrom                                   : XCFun DFT Library
   Mihaly Kallay                                 : mrcc  (arbitrary order and MRCC methods)
   Andreas Klamt, Michael Diedenhofen            : otool_cosmo (COSMO solvation model)
   Jiri Pittner, Ondrej Demel                    : Mk-CCSD
   Frank Weinhold                                : gennbo (NPA and NBO analysis)
   Christopher J. Cramer and Donald G. Truhlar   : smd solvation model
   Lars Goerigk                                  : TD-DFT with DH, B97 family of functionals
   V. Asgeirsson, H. Jonsson                     : NEB implementation
   FAccTs GmbH                                   : IRC, NEB, NEB-TS, Multilevel, MM, QM/MM, CI optimization
   S Lehtola, MJT Oliveira, MAL Marques          : LibXC Library


 Your calculation uses the libint2 library for the computation of 2-el integrals
 For citations please refer to: http://libint.valeyev.net

 Your ORCA version has been built with support for libXC version: 4.2.3
 For citations please refer to: https://tddft.org/programs/libxc/

 This ORCA versions uses:
   CBLAS   interface :  Fast vector & matrix operations
   LAPACKE interface :  Fast linear algebra routines
   SCALAPACK package :  Parallel linear algebra routines




***************************************
The coordinates will be read from file: init.xyz
***************************************


Your calculation utilizes the SMD solvation module
Please cite in your paper:
A.V. Marenich, C.J. Cramer, D.G. Truhlar J. Phys. Chem. B, 113, (2009), 6378 

Your calculation utilizes the semiempirical GFN2-xTB method
Please cite in your paper:
C. Bannwarth, Ehlert S., S. Grimme,  J. Chem. Theory Comput., 15, (2019), 1652.
   

----- Orbital basis set information -----
Your calculation utilizes the basis: def2-SVP
   F. Weigend and R. Ahlrichs, Phys. Chem. Chem. Phys. 7, 3297 (2005).

================================================================================
                                        WARNINGS
                       Please study these warnings very carefully!
================================================================================

WARNING: Gradients needed for Numerical Frequencies
  ===> : Setting RunTyp to EnGrad

WARNING: The environment variable RSH_COMMAND is not set!
  ===> : All Displacements for the Numerical Hessian calculation
         will be started on localhost

WARNING: Found dipole moment calculation with XTB calculation
  ===> : Switching off dipole moment calculation


INFO   : the flag for use of LIBINT has been found!

================================================================================
                                       INPUT FILE
================================================================================
NAME = /tmp/slurm-scratch/freq.391/freq.inp
|  1> ! XTB2 NumFreq
|  2> %maxcore 1450
|  3> 
|  4> * xyzfile 0 1 init.xyz
|  5> 
|  6> %cpcm
|  7>  smd true
|  8>  smdsolvent "ch2cl2"
|  9> end
| 10> %pal nprocs 8 end
| 11> 
| 12>                          ****END OF INPUT****
================================================================================

                     *******************************
                     * Energy+Gradient Calculation *
                     *******************************

      -----------------------------------------------------------      
     |                   =====================                   |     
     |                           x T B                           |     
     |                   =====================                   |     
     |                         S. Grimme                         |     
     |          Mulliken Center for Theoretical Chemistry        |     
     |                    University of Bonn                     |     
      -----------------------------------------------------------      

   * xtb version 6.3.0 (preview) compiled by 'ehlert@majestix' on 2020-01-15

   This program is distributed in the hope that it will be useful,
   but WITHOUT ANY WARRANTY; without even the implied warranty of
   MERCHANTABILITY or FITNESS FOR A PARTICULAR PURPOSE.
   
   FOR NON-COMMERCIAL, ACADEMIA USE ONLY.
   
   Cite this work as:
   * S. Grimme, C. Bannwarth, P. Shushkov, J. Chem. Theory Comput., 2017,
     13, 1989-2009. DOI: 10.1021/acs.jctc.7b00118
   * C. Bannwarth, S. Ehlert and S. Grimme., J. Chem. Theory Comput., 2019,
     15, 1652-1671. DOI: 10.1021/acs.jctc.8b01176
   * P. Pracht, E. Caldeweyher, S. Ehlert, S. Grimme, ChemRxiv, 2019, preprint.
     DOI: 10.26434/chemrxiv.8326202.v1
   * S. Grimme, S. Spicher unpublished
   
   for DFT-D4:
   * E. Caldeweyher, C. Bannwarth and S. Grimme, J. Chem. Phys., 2017,
     147, 034112. DOI: 10.1063/1.4993215
   * E. Caldeweyher, S. Ehlert, A. Hansen, H. Neugebauer, S. Spicher,
     C. Bannwarth and S. Grimme, J. Chem. Phys., 2019, 150, 154122.
     DOI: 10.1063/1.5090222
   
   for sTDA-xTB:
   * S. Grimme and C. Bannwarth, J. Chem. Phys., 2016, 145, 054103.
     DOI: 10.1063/1.4959605
   
   in the mass-spec context:
   * V. Asgeirsson, C. Bauer and S. Grimme, Chem. Sci., 2017, 8, 4879.
     DOI: 10.1039/c7sc00601b
   
   for metadynamics refer to:
   * S. Grimme, J. Chem. Theory Comput., 2019, 155, 2847-2862
     DOI: 10.1021/acs.jctc.9b00143
   
   with help from (in alphabetical order)
   C. Bannwarth, F. Bohle, G. Brandenburg, E. Caldeweyher, M. Checinski,
   S. Dohm, S. Ehlert, S. Ehrlich, F. März, H. Neugebauer, J. Pisarek,
   P. Pracht, P. Shushkov, and S. Spicher.
   
 * started run on 2021/03/16 at 14:05:58.652     

           -------------------------------------------------
          |                Calculation Setup                |
           -------------------------------------------------

          program call               : /opt/orca/otool_xtb /tmp/slurm-scratch/freq.391/freq_XTB.xyz --grad -c 0 -u 0 -P 8 --namespace /tmp/slurm-scratch/freq.391/freq --gbsa CH2Cl2
          hostname                   : headnode-pbs
          calculation namespace      : /tmp/slurm-scratch/freq.391/freq
          coordinate file            : /tmp/slurm-scratch/freq.391/freq_XTB.xyz
          omp threads                :                     8
          number of atoms            :                    33
          number of electrons        :                    80
          charge                     :                     0
          spin                       :                   0.0
          first test random number   :      0.13294564574043


molecular fragmentation (1/2 indicates fragments):
111111111111211111212222111111111
# atoms in fragment 1/2:    27     6
 fragment masses (1/2) :      161.24       36.03
CMA distance (Bohr)    :   7.112
constraining FC (au)   :  0.0500

########################################################################
# WARNING! Please study the warnings concerning your input carefully
#  - Process number higher than OMP_NUM_THREADS, I hope you know what you are doing.
########################################################################

           ------------------------------------------------- 
          |                 G F N 2 - x T B                 |
          | Geometry, Frequencies, Noncovalent interactions |
          |            JCTC 2019 parametrisation            |
           ------------------------------------------------- 
             k(s)              :                1.8500
             k(p)              :                2.2300
             k(d)              :                2.2300
             k(f)              :                2.0000
             kEN (H0ij)        :               -2.0000
             D4 a1             :                0.5200
             D4 a2             :                5.0000
             D4 s6             :                1.0000
             D4 s8             :                2.7000
             D4 s9             :                5.0000
             alphaj            :                2.0000

  Z AO/shell   Hii/eV     exponent
  1     Wed Apr 25 08:07:45 CEST 2018   EN: 2.200 GM2: 0.406  GM3: 0.0800  RAES: 1.40
     1s    -10.707211    1.230000
  6     Wed Apr 25 08:07:45 CEST 2018   EN: 2.550 GM2: 0.538  GM3: 0.1500  RAES: 3.00
     2s    -13.970922    2.096432
     2p    -10.063292    1.800000
  7     Wed Apr 25 08:07:45 CEST 2018   EN: 3.040 GM2: 0.461  GM3:-0.0640  RAES: 1.90
     2s    -16.686243    2.339881
     2p    -12.523956    2.014332
  8     Wed Apr 25 08:07:45 CEST 2018   EN: 3.440 GM2: 0.452  GM3:-0.0517  RAES: 1.80
     2s    -20.229985    2.439742
     2p    -15.503117    2.137023

 Solvent             : CH2Cl2
 Using internal parameter file: .param_gbsa2_CH2Cl2
 Gsolv ref. state (COSMO-RS): gsolv [1 M gas/solution]
 temperature (mdtemp)       :    298.150000000000     
 dielectric constant        :    8.93000000000000     
 rho                        :    1.33000000000000     
 mass                       :    84.9300000000000     
 surface tension            :    15.5689454083859     
 probe radius               :   0.719875900000000     
 Gshift (Eh)                :   4.440829173451759E-003
 c1                         :    1.49173776000000     
 soset                      :   0.000000000000000E+000
 HB correction              :  F
           ------------------------------------------------- 
          |        Self-Consistent Charge Iterations        |
           ------------------------------------------------- 

          ...................................................
          :                      SETUP                      :
          :.................................................:
          :  # basis functions                  75          :
          :  # atomic orbitals                  75          :
          :  # shells                           47          :
          :  # electrons                        80          :
          :  max. iterations                   250          :
          :  Hamiltonian                  GFN2-xTB          :
          :  GBSA solvation                   true          :
          :  PC potential                    false          :
          :  electronic temp.          300.0000000     K    :
          :  accuracy                    1.0000000          :
          :  -> integral cutoff          0.2500000E+02      :
          :  -> integral neglect         0.1000000E-07      :
          :  -> SCF convergence          0.1000000E-05 Eh   :
          :  -> wf. convergence          0.1000000E-03 e    :
          :  Broyden damping             0.4000000          :
          ...................................................
  Checking positiv definite overlap ...  done.
 

 iter      E             dE          RMSdq      gap      omega  full diag
   1    -44.8485978 -0.448486E+02  0.366E+00    3.27       0.0  T
   2    -44.8838742 -0.352764E-01  0.221E+00    3.35       1.0  T
   3    -44.8783038  0.557048E-02  0.793E-01    2.99       1.0  T
   4    -44.8873690 -0.906526E-02  0.325E-01    3.17       1.0  T
   5    -44.8891391 -0.177009E-02  0.696E-02    3.11       1.0  T
   6    -44.8891517 -0.125781E-04  0.345E-02    3.12       1.0  T
   7    -44.8891606 -0.891239E-05  0.161E-02    3.12       1.1  T
   8    -44.8891627 -0.208112E-05  0.404E-03    3.12       4.3  T
   9    -44.8891628 -0.142603E-06  0.180E-03    3.12       9.7  T
  10    -44.8891628 -0.432787E-08  0.984E-04    3.12      17.7  T
  11    -44.8891628 -0.107677E-07  0.294E-04    3.12      59.3  T

   *** convergence criteria satisfied after 11 iterations ***

         #    Occupation            Energy/Eh            Energy/eV
      -------------------------------------------------------------
         1        2.0000           -0.6778338             -18.4448
       ...           ...                  ...                  ...
        34        2.0000           -0.4319075             -11.7528
        35        2.0000           -0.4306247             -11.7179
        36        2.0000           -0.4259813             -11.5915
        37        2.0000           -0.4249189             -11.5626
        38        2.0000           -0.4114527             -11.1962
        39        2.0000           -0.4043944             -11.0041
        40        2.0000           -0.3931538             -10.6983 (HOMO)
        41                         -0.2785186              -7.5789 (LUMO)
        42                         -0.2310027              -6.2859
        43                         -0.1951903              -5.3114
        44                         -0.0918384              -2.4990
        45                          0.0176995               0.4816
       ...                                ...                  ...
        75                          0.6507130              17.7068
      -------------------------------------------------------------
                  HL-Gap            0.1146352 Eh            3.1194 eV
             Fermi-level           -0.3358362 Eh           -9.1386 eV

 SCC (total)                   0 d,  0 h,  0 min,  0.055 sec
 SCC setup                      ...        0 min,  0.004 sec (  6.479%)
 Dispersion                     ...        0 min,  0.001 sec (  1.544%)
 integral evaluation            ...        0 min,  0.011 sec ( 19.241%)
 zeroth order Hamiltonian       ...        0 min,  0.000 sec (  0.025%)
 iterations                     ...        0 min,  0.028 sec ( 51.796%)
 molecular gradient             ...        0 min,  0.010 sec ( 19.144%)
 printout                       ...        0 min,  0.001 sec (  1.667%)

         :::::::::::::::::::::::::::::::::::::::::::::::::::::
         ::                     SUMMARY                     ::
         :::::::::::::::::::::::::::::::::::::::::::::::::::::
         :: total energy             -44.280505099042 Eh    ::
         :: total w/o Gsasa/hb       -44.262406293713 Eh    ::
         :: gradient norm              0.024906620755 Eh/a0 ::
         :: HOMO-LUMO gap              3.119382446304 eV    ::
         ::.................................................::
         :: SCC energy               -44.907261649729 Eh    ::
         :: -> isotropic ES            0.083081841290 Eh    ::
         :: -> anisotropic ES         -0.003012525466 Eh    ::
         :: -> anisotropic XC          0.026779132530 Eh    ::
         :: -> dispersion             -0.024577467619 Eh    ::
         :: -> Gsolv                  -0.025523816931 Eh    ::
         ::    -> Gborn               -0.007425011601 Eh    ::
         ::    -> Gsasa               -0.022539634503 Eh    ::
         ::    -> Ghb                  0.000000000000 Eh    ::
         ::    -> Gshift               0.004440829173 Eh    ::
         :: repulsion energy           0.626765865010 Eh    ::
         :: add. restraining           0.000000000000 Eh    ::
         :::::::::::::::::::::::::::::::::::::::::::::::::::::

           -------------------------------------------------
          |                Property Printout                |
           -------------------------------------------------

    * Orbital Energies and Occupations

         #    Occupation            Energy/Eh            Energy/eV
      -------------------------------------------------------------
         1        2.0000           -0.6778338             -18.4448
       ...           ...                  ...                  ...
        28        2.0000           -0.4754665             -12.9381
        29        2.0000           -0.4642356             -12.6325
        30        2.0000           -0.4487591             -12.2114
        31        2.0000           -0.4435227             -12.0689
        32        2.0000           -0.4429486             -12.0532
        33        2.0000           -0.4391668             -11.9503
        34        2.0000           -0.4319075             -11.7528
        35        2.0000           -0.4306247             -11.7179
        36        2.0000           -0.4259813             -11.5915
        37        2.0000           -0.4249189             -11.5626
        38        2.0000           -0.4114527             -11.1962
        39        2.0000           -0.4043944             -11.0041
        40        2.0000           -0.3931538             -10.6983 (HOMO)
        41                         -0.2785186              -7.5789 (LUMO)
        42                         -0.2310027              -6.2859
        43                         -0.1951903              -5.3114
        44                         -0.0918384              -2.4990
        45                          0.0176995               0.4816
        46                          0.0467425               1.2719
        47                          0.0925906               2.5195
        48                          0.0999519               2.7198
        49                          0.1117541               3.0410
        50                          0.1196503               3.2559
        51                          0.1307010               3.5566
       ...                                ...                  ...
        75                          0.6507130              17.7068
      -------------------------------------------------------------
                  HL-Gap            0.1146352 Eh            3.1194 eV
             Fermi-level           -0.3358362 Eh           -9.1386 eV

     #   Z        covCN         q      C6AA      α(0)
     1   6 C      2.969     0.003    27.949     8.672
     2   6 C      2.922    -0.029    28.736     8.791
     3   6 C      2.913    -0.028    28.710     8.786
     4   6 C      2.916    -0.024    28.592     8.768
     5   6 C      2.914    -0.027    28.680     8.782
     6   6 C      2.918    -0.029    28.737     8.791
     7   6 C      2.855     0.079    26.233     8.395
     8   1 H      0.925     0.038     2.478     2.462
     9   1 H      0.926     0.067     2.119     2.276
    10   1 H      0.925     0.043     2.406     2.426
    11   7 N      1.825    -0.263    27.690     7.797
    12   6 C      3.764     0.018    20.309     6.424
    13   1 H      0.802     0.318     0.669     1.285
    14   6 C      3.803    -0.060    21.661     6.626
    15   1 H      0.924     0.013     2.839     2.635
    16   1 H      0.924     0.044     2.393     2.419
    17   1 H      0.924     0.051     2.309     2.376
    18   1 H      0.924     0.034     2.526     2.486
    19   8 O      1.608    -0.629    25.889     6.867
    20   1 H      0.924     0.008     2.920     2.672
    21   1 H      0.805     0.284     0.771     1.380
    22   8 O      1.606    -0.621    25.687     6.840
    23   1 H      0.803     0.313     0.682     1.297
    24   1 H      0.805     0.288     0.757     1.367
    25   1 H      0.925     0.041     2.430     2.438
    26   1 H      0.925     0.048     2.342     2.393
    27   6 C      3.800    -0.053    21.523     6.605
    28   1 H      0.924     0.034     2.535     2.490
    29   1 H      0.924     0.031     2.573     2.509
    30   6 C      3.750    -0.103    22.526     6.769
    31   1 H      0.924     0.037     2.486     2.465
    32   1 H      0.924     0.037     2.485     2.465
    33   1 H      0.924     0.035     2.519     2.482

 Mol. C6AA /au·bohr⁶  :       9601.895385
 Mol. C8AA /au·bohr⁸  :     214512.083728
 Mol. α(0) /au        :        151.236319


Wiberg/Mayer (AO) data.
largest (>0.10) Wiberg bond orders for each atom
          total WBO             WBO to atom ...
     1  C   3.988        C    2 1.376    C    6 1.366    C    7 1.088
     2  C   3.987        C    3 1.452    C    1 1.376    H    8 0.968    C    5 0.105
     3  C   3.991        C    2 1.452    C    4 1.436    H   25 0.970    C    6 0.106
     4  C   3.987        C    3 1.436    C    5 1.424    H   10 0.971
     5  C   3.991        C    6 1.465    C    4 1.424    H   26 0.969    C    2 0.105
     6  C   3.988        C    5 1.465    C    1 1.366    H    9 0.960    C    3 0.106
     7  C   3.967        N   11 1.828    C    1 1.088    H   20 0.941
     8  H   0.999        C    2 0.968
     9  H   0.996        C    6 0.960
    10  H   0.998        C    4 0.971
    11  N   3.119        C    7 1.828    C   12 1.018
    12  C   3.983        N   11 1.018    C   14 0.988    H   15 0.966    H   16 0.958
    13  H   0.899        O   22 0.832
    14  C   3.990        C   27 1.006    C   12 0.988    H   18 0.977    H   17 0.975
    15  H   1.000        C   12 0.966
    16  H   0.995        C   12 0.958
    17  H   0.997        C   14 0.975
    18  H   0.999        C   14 0.977
    19  O   1.802        H   21 0.918    H   23 0.855
    20  H   0.999        C    7 0.941
    21  H   0.919        O   19 0.918
    22  O   1.847        H   24 0.914    H   13 0.832
    23  H   0.902        O   19 0.855
    24  H   0.917        O   22 0.914
    25  H   0.998        C    3 0.970
    26  H   0.997        C    5 0.969
    27  C   3.996        C   30 1.019    C   14 1.006    H   29 0.978    H   28 0.978
    28  H   0.999        C   27 0.978
    29  H   0.999        C   27 0.978
    30  C   3.995        C   27 1.019    H   33 0.988    H   31 0.987    H   32 0.987
    31  H   0.999        C   30 0.987
    32  H   0.998        C   30 0.987
    33  H   0.999        C   30 0.988

molecular dipole:
                 x           y           z       tot (Debye)
 q only:        0.172      -1.454       0.278
   full:        0.176      -2.254       0.458       5.863
molecular quadrupole (traceless):
                xx          xy          yy          xz          yz          zz
 q only:       11.684       7.027     -12.401      -1.809       7.010       0.717
  q+dip:       13.077      10.781     -13.919      -1.020       4.891       0.843
   full:       11.863      10.959     -14.465      -1.583       7.671       2.602

           -------------------------------------------------
          |                Property Printout                |
           -------------------------------------------------

    * Orbital Energies and Occupations

         #    Occupation            Energy/Eh            Energy/eV
      -------------------------------------------------------------
         1        2.0000           -0.6778338             -18.4448
       ...           ...                  ...                  ...
        28        2.0000           -0.4754665             -12.9381
        29        2.0000           -0.4642356             -12.6325
        30        2.0000           -0.4487591             -12.2114
        31        2.0000           -0.4435227             -12.0689
        32        2.0000           -0.4429486             -12.0532
        33        2.0000           -0.4391668             -11.9503
        34        2.0000           -0.4319075             -11.7528
        35        2.0000           -0.4306247             -11.7179
        36        2.0000           -0.4259813             -11.5915
        37        2.0000           -0.4249189             -11.5626
        38        2.0000           -0.4114527             -11.1962
        39        2.0000           -0.4043944             -11.0041
        40        2.0000           -0.3931538             -10.6983 (HOMO)
        41                         -0.2785186              -7.5789 (LUMO)
        42                         -0.2310027              -6.2859
        43                         -0.1951903              -5.3114
        44                         -0.0918384              -2.4990
        45                          0.0176995               0.4816
        46                          0.0467425               1.2719
        47                          0.0925906               2.5195
        48                          0.0999519               2.7198
        49                          0.1117541               3.0410
        50                          0.1196503               3.2559
        51                          0.1307010               3.5566
       ...                                ...                  ...
        75                          0.6507130              17.7068
      -------------------------------------------------------------
                  HL-Gap            0.1146352 Eh            3.1194 eV
             Fermi-level           -0.3358362 Eh           -9.1386 eV

     #   Z        covCN         q      C6AA      α(0)
     1   6 C      2.969     0.003    27.949     8.672
     2   6 C      2.922    -0.029    28.736     8.791
     3   6 C      2.913    -0.028    28.710     8.786
     4   6 C      2.916    -0.024    28.592     8.768
     5   6 C      2.914    -0.027    28.680     8.782
     6   6 C      2.918    -0.029    28.737     8.791
     7   6 C      2.855     0.079    26.233     8.395
     8   1 H      0.925     0.038     2.478     2.462
     9   1 H      0.926     0.067     2.119     2.276
    10   1 H      0.925     0.043     2.406     2.426
    11   7 N      1.825    -0.263    27.690     7.797
    12   6 C      3.764     0.018    20.309     6.424
    13   1 H      0.802     0.318     0.669     1.285
    14   6 C      3.803    -0.060    21.661     6.626
    15   1 H      0.924     0.013     2.839     2.635
    16   1 H      0.924     0.044     2.393     2.419
    17   1 H      0.924     0.051     2.309     2.376
    18   1 H      0.924     0.034     2.526     2.486
    19   8 O      1.608    -0.629    25.889     6.867
    20   1 H      0.924     0.008     2.920     2.672
    21   1 H      0.805     0.284     0.771     1.380
    22   8 O      1.606    -0.621    25.687     6.840
    23   1 H      0.803     0.313     0.682     1.297
    24   1 H      0.805     0.288     0.757     1.367
    25   1 H      0.925     0.041     2.430     2.438
    26   1 H      0.925     0.048     2.342     2.393
    27   6 C      3.800    -0.053    21.523     6.605
    28   1 H      0.924     0.034     2.535     2.490
    29   1 H      0.924     0.031     2.573     2.509
    30   6 C      3.750    -0.103    22.526     6.769
    31   1 H      0.924     0.037     2.486     2.465
    32   1 H      0.924     0.037     2.485     2.465
    33   1 H      0.924     0.035     2.519     2.482

 Mol. C6AA /au·bohr⁶  :       9601.895385
 Mol. C8AA /au·bohr⁸  :     214512.083728
 Mol. α(0) /au        :        151.236319


Wiberg/Mayer (AO) data.
largest (>0.10) Wiberg bond orders for each atom
          total WBO             WBO to atom ...
     1  C   3.988        C    2 1.376    C    6 1.366    C    7 1.088
     2  C   3.987        C    3 1.452    C    1 1.376    H    8 0.968    C    5 0.105
     3  C   3.991        C    2 1.452    C    4 1.436    H   25 0.970    C    6 0.106
     4  C   3.987        C    3 1.436    C    5 1.424    H   10 0.971
     5  C   3.991        C    6 1.465    C    4 1.424    H   26 0.969    C    2 0.105
     6  C   3.988        C    5 1.465    C    1 1.366    H    9 0.960    C    3 0.106
     7  C   3.967        N   11 1.828    C    1 1.088    H   20 0.941
     8  H   0.999        C    2 0.968
     9  H   0.996        C    6 0.960
    10  H   0.998        C    4 0.971
    11  N   3.119        C    7 1.828    C   12 1.018
    12  C   3.983        N   11 1.018    C   14 0.988    H   15 0.966    H   16 0.958
    13  H   0.899        O   22 0.832
    14  C   3.990        C   27 1.006    C   12 0.988    H   18 0.977    H   17 0.975
    15  H   1.000        C   12 0.966
    16  H   0.995        C   12 0.958
    17  H   0.997        C   14 0.975
    18  H   0.999        C   14 0.977
    19  O   1.802        H   21 0.918    H   23 0.855
    20  H   0.999        C    7 0.941
    21  H   0.919        O   19 0.918
    22  O   1.847        H   24 0.914    H   13 0.832
    23  H   0.902        O   19 0.855
    24  H   0.917        O   22 0.914
    25  H   0.998        C    3 0.970
    26  H   0.997        C    5 0.969
    27  C   3.996        C   30 1.019    C   14 1.006    H   29 0.978    H   28 0.978
    28  H   0.999        C   27 0.978
    29  H   0.999        C   27 0.978
    30  C   3.995        C   27 1.019    H   33 0.988    H   31 0.987    H   32 0.987
    31  H   0.999        C   30 0.987
    32  H   0.998        C   30 0.987
    33  H   0.999        C   30 0.988

molecular dipole:
                 x           y           z       tot (Debye)
 q only:        0.172      -1.454       0.278
   full:        0.176      -2.254       0.458       5.863
molecular quadrupole (traceless):
                xx          xy          yy          xz          yz          zz
 q only:       11.684       7.027     -12.401      -1.809       7.010       0.717
  q+dip:       13.077      10.781     -13.919      -1.020       4.891       0.843
   full:       11.863      10.959     -14.465      -1.583       7.671       2.602


           -------------------------------------------------
          | TOTAL ENERGY              -44.280505099042 Eh   |
          | GRADIENT NORM               0.024906620755 Eh/α |
          | HOMO-LUMO GAP               3.119382446304 eV   |
           -------------------------------------------------

------------------------------------------------------------------------
 * finished run on 2021/03/16 at 14:05:58.823     
------------------------------------------------------------------------
 total:
 * wall-time:     0 d,  0 h,  0 min,  0.172 sec
 *  cpu-time:     0 d,  0 h,  0 min,  1.301 sec
 * ratio c/w:     7.585 speedup
 SCF:
 * wall-time:     0 d,  0 h,  0 min,  0.057 sec
 *  cpu-time:     0 d,  0 h,  0 min,  0.470 sec
 * ratio c/w:     8.278 speedup


-------------------------   --------------------
FINAL SINGLE POINT ENERGY       -44.280505099040
-------------------------   --------------------


----------------------------------------------------------------------------
                           ORCA NUMERICAL FREQUENCIES
                              (8-process run)
----------------------------------------------------------------------------

Number of atoms                ... 33
Central differences            ... used
Number of displacements        ... 198
Numerical increment            ... 5.000e-03 bohr
IR-spectrum generation         ... on
Raman-spectrum generation      ... off
Surface Crossing Hessian       ... off
List of participating nodes    ...  /tmp/slurm-scratch/freq.391/freq.hostnames

The output will be reduced. Please look at the following files:
SCF program output             ... >/tmp/slurm-scratch/freq.391/freq.lastscf
Integral program output        ... >/tmp/slurm-scratch/freq.391/freq.lastint
Gradient program output        ... >/tmp/slurm-scratch/freq.391/freq.lastgrad
Dipole moment program output   ... >/tmp/slurm-scratch/freq.391/freq.lastmom
AutoCI program output          ... >/tmp/slurm-scratch/freq.391/freq.lastautoci


         <<< Energy and Gradient at the input geometry >>>

        <<< Energy and Gradient at displaced geometries >>>
             <<<Displacing   1/coordinate 2 (+)>>>
             <<<Displacing   2/coordinate 1 (+)>>>
             <<<Displacing   3/coordinate 1 (+)>>>
             <<<Displacing   2/coordinate 2 (+)>>>
             <<<Displacing   1/coordinate 1 (+)>>>
             <<<Displacing   3/coordinate 2 (+)>>>
             <<<Displacing   1/coordinate 3 (+)>>>
             <<<Displacing   2/coordinate 3 (+)>>>
             <<<Displacing   1/coordinate 1 (-)>>>
             <<<Displacing   2/coordinate 1 (-)>>>
             <<<Displacing   2/coordinate 2 (-)>>>
             <<<Displacing   3/coordinate 2 (-)>>>
             <<<Displacing   2/coordinate 3 (-)>>>
             <<<Displacing   1/coordinate 3 (-)>>>
             <<<Displacing   1/coordinate 2 (-)>>>
             <<<Displacing   3/coordinate 1 (-)>>>
             <<<Displacing   3/coordinate 3 (+)>>>
             <<<Displacing   6/coordinate 1 (+)>>>
             <<<Displacing   5/coordinate 3 (+)>>>
             <<<Displacing   3/coordinate 3 (-)>>>
             <<<Displacing   6/coordinate 1 (-)>>>
             <<<Displacing   5/coordinate 3 (-)>>>
             <<<Displacing   5/coordinate 1 (+)>>>
             <<<Displacing   5/coordinate 1 (-)>>>
             <<<Displacing   4/coordinate 2 (+)>>>
             <<<Displacing   4/coordinate 2 (-)>>>
             <<<Displacing   4/coordinate 1 (+)>>>
             <<<Displacing   4/coordinate 3 (+)>>>
             <<<Displacing   5/coordinate 2 (+)>>>
             <<<Displacing   4/coordinate 1 (-)>>>
             <<<Displacing   4/coordinate 3 (-)>>>
             <<<Displacing   5/coordinate 2 (-)>>>
             <<<Displacing   6/coordinate 2 (+)>>>
             <<<Displacing   6/coordinate 2 (-)>>>
             <<<Displacing   7/coordinate 1 (+)>>>
             <<<Displacing   7/coordinate 2 (+)>>>
             <<<Displacing   7/coordinate 1 (-)>>>
             <<<Displacing   7/coordinate 2 (-)>>>
             <<<Displacing   6/coordinate 3 (+)>>>
             <<<Displacing   6/coordinate 3 (-)>>>
             <<<Displacing   7/coordinate 3 (+)>>>
             <<<Displacing   7/coordinate 3 (-)>>>
             <<<Displacing   8/coordinate 1 (+)>>>
             <<<Displacing   8/coordinate 2 (+)>>>
             <<<Displacing   8/coordinate 3 (+)>>>
             <<<Displacing   8/coordinate 1 (-)>>>
             <<<Displacing   8/coordinate 2 (-)>>>
             <<<Displacing   8/coordinate 3 (-)>>>
             <<<Displacing   9/coordinate 1 (+)>>>
             <<<Displacing  10/coordinate 1 (+)>>>
             <<<Displacing   9/coordinate 2 (+)>>>
             <<<Displacing   9/coordinate 1 (-)>>>
             <<<Displacing  10/coordinate 1 (-)>>>
             <<<Displacing   9/coordinate 2 (-)>>>
             <<<Displacing  11/coordinate 2 (+)>>>
             <<<Displacing  11/coordinate 2 (-)>>>
             <<<Displacing   9/coordinate 3 (+)>>>
             <<<Displacing   9/coordinate 3 (-)>>>
             <<<Displacing  10/coordinate 2 (+)>>>
             <<<Displacing  10/coordinate 3 (+)>>>
             <<<Displacing  11/coordinate 1 (+)>>>
             <<<Displacing  10/coordinate 2 (-)>>>
             <<<Displacing  10/coordinate 3 (-)>>>
             <<<Displacing  11/coordinate 1 (-)>>>
             <<<Displacing  11/coordinate 3 (+)>>>
             <<<Displacing  11/coordinate 3 (-)>>>
             <<<Displacing  12/coordinate 1 (+)>>>
             <<<Displacing  12/coordinate 1 (-)>>>
             <<<Displacing  12/coordinate 3 (+)>>>
             <<<Displacing  12/coordinate 2 (+)>>>
             <<<Displacing  12/coordinate 3 (-)>>>
             <<<Displacing  12/coordinate 2 (-)>>>
             <<<Displacing  13/coordinate 3 (+)>>>
             <<<Displacing  14/coordinate 1 (+)>>>
             <<<Displacing  13/coordinate 3 (-)>>>
             <<<Displacing  14/coordinate 1 (-)>>>
             <<<Displacing  13/coordinate 1 (+)>>>
             <<<Displacing  13/coordinate 1 (-)>>>
             <<<Displacing  13/coordinate 2 (+)>>>
             <<<Displacing  13/coordinate 2 (-)>>>
             <<<Displacing  14/coordinate 3 (+)>>>
             <<<Displacing  14/coordinate 3 (-)>>>
             <<<Displacing  14/coordinate 2 (+)>>>
             <<<Displacing  14/coordinate 2 (-)>>>
             <<<Displacing  15/coordinate 2 (+)>>>
             <<<Displacing  15/coordinate 2 (-)>>>
             <<<Displacing  15/coordinate 1 (+)>>>
             <<<Displacing  15/coordinate 1 (-)>>>
             <<<Displacing  16/coordinate 2 (+)>>>
             <<<Displacing  16/coordinate 1 (+)>>>
             <<<Displacing  16/coordinate 2 (-)>>>
             <<<Displacing  15/coordinate 3 (+)>>>
             <<<Displacing  16/coordinate 1 (-)>>>
             <<<Displacing  15/coordinate 3 (-)>>>
             <<<Displacing  16/coordinate 3 (+)>>>
             <<<Displacing  16/coordinate 3 (-)>>>
             <<<Displacing  17/coordinate 1 (+)>>>
             <<<Displacing  17/coordinate 1 (-)>>>
             <<<Displacing  17/coordinate 2 (+)>>>
             <<<Displacing  17/coordinate 2 (-)>>>
             <<<Displacing  17/coordinate 3 (+)>>>
             <<<Displacing  17/coordinate 3 (-)>>>
             <<<Displacing  18/coordinate 1 (+)>>>
             <<<Displacing  18/coordinate 1 (-)>>>
             <<<Displacing  18/coordinate 2 (+)>>>
             <<<Displacing  18/coordinate 2 (-)>>>
             <<<Displacing  19/coordinate 1 (+)>>>
             <<<Displacing  19/coordinate 1 (-)>>>
             <<<Displacing  18/coordinate 3 (+)>>>
             <<<Displacing  18/coordinate 3 (-)>>>
             <<<Displacing  19/coordinate 2 (+)>>>
             <<<Displacing  19/coordinate 2 (-)>>>
             <<<Displacing  19/coordinate 3 (+)>>>
             <<<Displacing  19/coordinate 3 (-)>>>
             <<<Displacing  20/coordinate 1 (+)>>>
             <<<Displacing  20/coordinate 1 (-)>>>
             <<<Displacing  20/coordinate 2 (+)>>>
             <<<Displacing  20/coordinate 2 (-)>>>
             <<<Displacing  20/coordinate 3 (+)>>>
             <<<Displacing  20/coordinate 3 (-)>>>
             <<<Displacing  21/coordinate 1 (+)>>>
             <<<Displacing  21/coordinate 1 (-)>>>
             <<<Displacing  21/coordinate 2 (+)>>>
             <<<Displacing  21/coordinate 2 (-)>>>
             <<<Displacing  22/coordinate 1 (+)>>>
             <<<Displacing  21/coordinate 3 (+)>>>
             <<<Displacing  22/coordinate 1 (-)>>>
             <<<Displacing  21/coordinate 3 (-)>>>
             <<<Displacing  22/coordinate 2 (+)>>>
             <<<Displacing  23/coordinate 1 (+)>>>
             <<<Displacing  22/coordinate 2 (-)>>>
             <<<Displacing  23/coordinate 1 (-)>>>
             <<<Displacing  22/coordinate 3 (+)>>>
             <<<Displacing  22/coordinate 3 (-)>>>
             <<<Displacing  23/coordinate 2 (+)>>>
             <<<Displacing  23/coordinate 3 (+)>>>
             <<<Displacing  23/coordinate 2 (-)>>>
             <<<Displacing  23/coordinate 3 (-)>>>
             <<<Displacing  24/coordinate 1 (+)>>>
             <<<Displacing  24/coordinate 1 (-)>>>
             <<<Displacing  24/coordinate 3 (+)>>>
             <<<Displacing  24/coordinate 3 (-)>>>
             <<<Displacing  24/coordinate 2 (+)>>>
             <<<Displacing  24/coordinate 2 (-)>>>
             <<<Displacing  25/coordinate 2 (+)>>>
             <<<Displacing  25/coordinate 1 (+)>>>
             <<<Displacing  25/coordinate 2 (-)>>>
             <<<Displacing  25/coordinate 1 (-)>>>
             <<<Displacing  26/coordinate 1 (+)>>>
             <<<Displacing  25/coordinate 3 (+)>>>
             <<<Displacing  26/coordinate 1 (-)>>>
             <<<Displacing  25/coordinate 3 (-)>>>
             <<<Displacing  26/coordinate 2 (+)>>>
             <<<Displacing  26/coordinate 3 (+)>>>
             <<<Displacing  26/coordinate 2 (-)>>>
             <<<Displacing  26/coordinate 3 (-)>>>
             <<<Displacing  27/coordinate 2 (+)>>>
             <<<Displacing  27/coordinate 1 (+)>>>
             <<<Displacing  27/coordinate 1 (-)>>>
             <<<Displacing  27/coordinate 2 (-)>>>
             <<<Displacing  27/coordinate 3 (+)>>>
             <<<Displacing  27/coordinate 3 (-)>>>
             <<<Displacing  28/coordinate 1 (+)>>>
             <<<Displacing  28/coordinate 1 (-)>>>
             <<<Displacing  28/coordinate 2 (+)>>>
             <<<Displacing  28/coordinate 2 (-)>>>
             <<<Displacing  29/coordinate 1 (+)>>>
             <<<Displacing  28/coordinate 3 (+)>>>
             <<<Displacing  29/coordinate 1 (-)>>>
             <<<Displacing  28/coordinate 3 (-)>>>
             <<<Displacing  29/coordinate 2 (+)>>>
             <<<Displacing  29/coordinate 2 (-)>>>
             <<<Displacing  29/coordinate 3 (+)>>>
             <<<Displacing  29/coordinate 3 (-)>>>
             <<<Displacing  30/coordinate 1 (+)>>>
             <<<Displacing  30/coordinate 1 (-)>>>
             <<<Displacing  30/coordinate 2 (+)>>>
             <<<Displacing  30/coordinate 2 (-)>>>
             <<<Displacing  30/coordinate 3 (+)>>>
             <<<Displacing  30/coordinate 3 (-)>>>
             <<<Displacing  32/coordinate 1 (+)>>>
             <<<Displacing  32/coordinate 1 (-)>>>
             <<<Displacing  31/coordinate 1 (+)>>>
             <<<Displacing  31/coordinate 1 (-)>>>
             <<<Displacing  31/coordinate 3 (+)>>>
             <<<Displacing  31/coordinate 2 (+)>>>
             <<<Displacing  31/coordinate 3 (-)>>>
             <<<Displacing  31/coordinate 2 (-)>>>
             <<<Displacing  32/coordinate 2 (+)>>>
             <<<Displacing  32/coordinate 2 (-)>>>
             <<<Displacing  32/coordinate 3 (+)>>>
             <<<Displacing  32/coordinate 3 (-)>>>
             <<<Displacing  33/coordinate 1 (+)>>>
             <<<Displacing  33/coordinate 1 (-)>>>
             <<<Displacing  33/coordinate 2 (+)>>>
             <<<Displacing  33/coordinate 3 (+)>>>
             <<<Displacing  33/coordinate 2 (-)>>>
             <<<Displacing  33/coordinate 3 (-)>>>

-----------------------
VIBRATIONAL FREQUENCIES
-----------------------

Scaling factor for frequencies =  1.000000000 (already applied!)

   0:         0.00 cm**-1
   1:         0.00 cm**-1
   2:         0.00 cm**-1
   3:         0.00 cm**-1
   4:         0.00 cm**-1
   5:         0.00 cm**-1
   6:        20.33 cm**-1
   7:        40.01 cm**-1
   8:        48.06 cm**-1
   9:        55.95 cm**-1
  10:        70.16 cm**-1
  11:        73.26 cm**-1
  12:        78.81 cm**-1
  13:       107.89 cm**-1
  14:       119.98 cm**-1
  15:       143.37 cm**-1
  16:       161.35 cm**-1
  17:       173.27 cm**-1
  18:       219.90 cm**-1
  19:       226.61 cm**-1
  20:       267.38 cm**-1
  21:       274.29 cm**-1
  22:       281.61 cm**-1
  23:       294.33 cm**-1
  24:       377.80 cm**-1
  25:       383.86 cm**-1
  26:       411.60 cm**-1
  27:       428.14 cm**-1
  28:       451.24 cm**-1
  29:       472.28 cm**-1
  30:       507.22 cm**-1
  31:       588.40 cm**-1
  32:       622.06 cm**-1
  33:       643.87 cm**-1
  34:       664.62 cm**-1
  35:       702.49 cm**-1
  36:       758.30 cm**-1
  37:       772.98 cm**-1
  38:       825.34 cm**-1
  39:       859.35 cm**-1
  40:       878.85 cm**-1
  41:       906.11 cm**-1
  42:       918.36 cm**-1
  43:       935.16 cm**-1
  44:       942.87 cm**-1
  45:       943.17 cm**-1
  46:       953.77 cm**-1
  47:       984.25 cm**-1
  48:      1021.41 cm**-1
  49:      1067.85 cm**-1
  50:      1071.23 cm**-1
  51:      1100.75 cm**-1
  52:      1115.15 cm**-1
  53:      1125.96 cm**-1
  54:      1144.69 cm**-1
  55:      1179.30 cm**-1
  56:      1185.53 cm**-1
  57:      1210.70 cm**-1
  58:      1219.52 cm**-1
  59:      1255.86 cm**-1
  60:      1267.76 cm**-1
  61:      1275.11 cm**-1
  62:      1277.14 cm**-1
  63:      1296.12 cm**-1
  64:      1324.19 cm**-1
  65:      1356.59 cm**-1
  66:      1369.19 cm**-1
  67:      1422.30 cm**-1
  68:      1427.84 cm**-1
  69:      1454.30 cm**-1
  70:      1469.96 cm**-1
  71:      1498.02 cm**-1
  72:      1503.61 cm**-1
  73:      1506.93 cm**-1
  74:      1510.57 cm**-1
  75:      1537.47 cm**-1
  76:      1559.54 cm**-1
  77:      1560.84 cm**-1
  78:      1566.98 cm**-1
  79:      1666.40 cm**-1
  80:      2882.02 cm**-1
  81:      2898.69 cm**-1
  82:      2942.10 cm**-1
  83:      2944.05 cm**-1
  84:      2959.61 cm**-1
  85:      2967.00 cm**-1
  86:      2979.57 cm**-1
  87:      2982.18 cm**-1
  88:      2987.21 cm**-1
  89:      2997.66 cm**-1
  90:      3024.70 cm**-1
  91:      3050.20 cm**-1
  92:      3059.23 cm**-1
  93:      3065.82 cm**-1
  94:      3074.21 cm**-1
  95:      3115.05 cm**-1
  96:      3284.11 cm**-1
  97:      3577.43 cm**-1
  98:      3596.29 cm**-1


------------
NORMAL MODES
------------

These modes are the cartesian displacements weighted by the diagonal matrix
M(i,i)=1/sqrt(m[i]) where m[i] is the mass of the displaced atom
Thus, these vectors are normalized but *not* orthogonal

                  0          1          2          3          4          5    
      0       0.000000   0.000000   0.000000   0.000000   0.000000   0.000000
      1       0.000000   0.000000   0.000000   0.000000   0.000000   0.000000
      2       0.000000   0.000000   0.000000   0.000000   0.000000   0.000000
      3       0.000000   0.000000   0.000000   0.000000   0.000000   0.000000
      4       0.000000   0.000000   0.000000   0.000000   0.000000   0.000000
      5       0.000000   0.000000   0.000000   0.000000   0.000000   0.000000
      6       0.000000   0.000000   0.000000   0.000000   0.000000   0.000000
      7       0.000000   0.000000   0.000000   0.000000   0.000000   0.000000
      8       0.000000   0.000000   0.000000   0.000000   0.000000   0.000000
      9       0.000000   0.000000   0.000000   0.000000   0.000000   0.000000
     10       0.000000   0.000000   0.000000   0.000000   0.000000   0.000000
     11       0.000000   0.000000   0.000000   0.000000   0.000000   0.000000
     12       0.000000   0.000000   0.000000   0.000000   0.000000   0.000000
     13       0.000000   0.000000   0.000000   0.000000   0.000000   0.000000
     14       0.000000   0.000000   0.000000   0.000000   0.000000   0.000000
     15       0.000000   0.000000   0.000000   0.000000   0.000000   0.000000
     16       0.000000   0.000000   0.000000   0.000000   0.000000   0.000000
     17       0.000000   0.000000   0.000000   0.000000   0.000000   0.000000
     18       0.000000   0.000000   0.000000   0.000000   0.000000   0.000000
     19       0.000000   0.000000   0.000000   0.000000   0.000000   0.000000
     20       0.000000   0.000000   0.000000   0.000000   0.000000   0.000000
     21       0.000000   0.000000   0.000000   0.000000   0.000000   0.000000
     22       0.000000   0.000000   0.000000   0.000000   0.000000   0.000000
     23       0.000000   0.000000   0.000000   0.000000   0.000000   0.000000
     24       0.000000   0.000000   0.000000   0.000000   0.000000   0.000000
     25       0.000000   0.000000   0.000000   0.000000   0.000000   0.000000
     26       0.000000   0.000000   0.000000   0.000000   0.000000   0.000000
     27       0.000000   0.000000   0.000000   0.000000   0.000000   0.000000
     28       0.000000   0.000000   0.000000   0.000000   0.000000   0.000000
     29       0.000000   0.000000   0.000000   0.000000   0.000000   0.000000
     30       0.000000   0.000000   0.000000   0.000000   0.000000   0.000000
     31       0.000000   0.000000   0.000000   0.000000   0.000000   0.000000
     32       0.000000   0.000000   0.000000   0.000000   0.000000   0.000000
     33       0.000000   0.000000   0.000000   0.000000   0.000000   0.000000
     34       0.000000   0.000000   0.000000   0.000000   0.000000   0.000000
     35       0.000000   0.000000   0.000000   0.000000   0.000000   0.000000
     36       0.000000   0.000000   0.000000   0.000000   0.000000   0.000000
     37       0.000000   0.000000   0.000000   0.000000   0.000000   0.000000
     38       0.000000   0.000000   0.000000   0.000000   0.000000   0.000000
     39       0.000000   0.000000   0.000000   0.000000   0.000000   0.000000
     40       0.000000   0.000000   0.000000   0.000000   0.000000   0.000000
     41       0.000000   0.000000   0.000000   0.000000   0.000000   0.000000
     42       0.000000   0.000000   0.000000   0.000000   0.000000   0.000000
     43       0.000000   0.000000   0.000000   0.000000   0.000000   0.000000
     44       0.000000   0.000000   0.000000   0.000000   0.000000   0.000000
     45       0.000000   0.000000   0.000000   0.000000   0.000000   0.000000
     46       0.000000   0.000000   0.000000   0.000000   0.000000   0.000000
     47       0.000000   0.000000   0.000000   0.000000   0.000000   0.000000
     48       0.000000   0.000000   0.000000   0.000000   0.000000   0.000000
     49       0.000000   0.000000   0.000000   0.000000   0.000000   0.000000
     50       0.000000   0.000000   0.000000   0.000000   0.000000   0.000000
     51       0.000000   0.000000   0.000000   0.000000   0.000000   0.000000
     52       0.000000   0.000000   0.000000   0.000000   0.000000   0.000000
     53       0.000000   0.000000   0.000000   0.000000   0.000000   0.000000
     54       0.000000   0.000000   0.000000   0.000000   0.000000   0.000000
     55       0.000000   0.000000   0.000000   0.000000   0.000000   0.000000
     56       0.000000   0.000000   0.000000   0.000000   0.000000   0.000000
     57       0.000000   0.000000   0.000000   0.000000   0.000000   0.000000
     58       0.000000   0.000000   0.000000   0.000000   0.000000   0.000000
     59       0.000000   0.000000   0.000000   0.000000   0.000000   0.000000
     60       0.000000   0.000000   0.000000   0.000000   0.000000   0.000000
     61       0.000000   0.000000   0.000000   0.000000   0.000000   0.000000
     62       0.000000   0.000000   0.000000   0.000000   0.000000   0.000000
     63       0.000000   0.000000   0.000000   0.000000   0.000000   0.000000
     64       0.000000   0.000000   0.000000   0.000000   0.000000   0.000000
     65       0.000000   0.000000   0.000000   0.000000   0.000000   0.000000
     66       0.000000   0.000000   0.000000   0.000000   0.000000   0.000000
     67       0.000000   0.000000   0.000000   0.000000   0.000000   0.000000
     68       0.000000   0.000000   0.000000   0.000000   0.000000   0.000000
     69       0.000000   0.000000   0.000000   0.000000   0.000000   0.000000
     70       0.000000   0.000000   0.000000   0.000000   0.000000   0.000000
     71       0.000000   0.000000   0.000000   0.000000   0.000000   0.000000
     72       0.000000   0.000000   0.000000   0.000000   0.000000   0.000000
     73       0.000000   0.000000   0.000000   0.000000   0.000000   0.000000
     74       0.000000   0.000000   0.000000   0.000000   0.000000   0.000000
     75       0.000000   0.000000   0.000000   0.000000   0.000000   0.000000
     76       0.000000   0.000000   0.000000   0.000000   0.000000   0.000000
     77       0.000000   0.000000   0.000000   0.000000   0.000000   0.000000
     78       0.000000   0.000000   0.000000   0.000000   0.000000   0.000000
     79       0.000000   0.000000   0.000000   0.000000   0.000000   0.000000
     80       0.000000   0.000000   0.000000   0.000000   0.000000   0.000000
     81       0.000000   0.000000   0.000000   0.000000   0.000000   0.000000
     82       0.000000   0.000000   0.000000   0.000000   0.000000   0.000000
     83       0.000000   0.000000   0.000000   0.000000   0.000000   0.000000
     84       0.000000   0.000000   0.000000   0.000000   0.000000   0.000000
     85       0.000000   0.000000   0.000000   0.000000   0.000000   0.000000
     86       0.000000   0.000000   0.000000   0.000000   0.000000   0.000000
     87       0.000000   0.000000   0.000000   0.000000   0.000000   0.000000
     88       0.000000   0.000000   0.000000   0.000000   0.000000   0.000000
     89       0.000000   0.000000   0.000000   0.000000   0.000000   0.000000
     90       0.000000   0.000000   0.000000   0.000000   0.000000   0.000000
     91       0.000000   0.000000   0.000000   0.000000   0.000000   0.000000
     92       0.000000   0.000000   0.000000   0.000000   0.000000   0.000000
     93       0.000000   0.000000   0.000000   0.000000   0.000000   0.000000
     94       0.000000   0.000000   0.000000   0.000000   0.000000   0.000000
     95       0.000000   0.000000   0.000000   0.000000   0.000000   0.000000
     96       0.000000   0.000000   0.000000   0.000000   0.000000   0.000000
     97       0.000000   0.000000   0.000000   0.000000   0.000000   0.000000
     98       0.000000   0.000000   0.000000   0.000000   0.000000   0.000000
                  6          7          8          9         10         11    
      0      -0.044781   0.022342  -0.032481  -0.015712   0.005004  -0.024812
      1       0.020673   0.025192   0.032311   0.009392   0.039279  -0.050858
      2      -0.010356   0.004816   0.003380   0.023140  -0.014346  -0.028764
      3      -0.055820   0.029787  -0.019308  -0.026095  -0.022740  -0.006202
      4       0.013932  -0.007118  -0.013685   0.028326   0.028071  -0.017670
      5       0.010717  -0.078696  -0.125353   0.092573   0.050941  -0.023774
      6      -0.047000   0.022773  -0.031608  -0.018088  -0.002399  -0.018132
      7       0.017994  -0.015081  -0.007651  -0.015717  -0.018157   0.045375
      8       0.053603  -0.120342  -0.166780   0.057291   0.063939   0.026007
      9      -0.027032   0.009233  -0.057251   0.001741   0.046685  -0.049752
     10       0.027530   0.006592   0.044301  -0.078400  -0.052673   0.077376
     11       0.074701  -0.084856  -0.079884  -0.049773   0.012599   0.076262
     12      -0.016007   0.002693  -0.069979   0.013055   0.074889  -0.069300
     13       0.035694   0.036778   0.089696  -0.097137  -0.040653   0.044199
     14       0.056983  -0.005248   0.049089  -0.120875  -0.049693   0.071171
     15      -0.024430   0.009755  -0.058071   0.004806   0.054190  -0.057106
     16       0.033333   0.047393   0.084393  -0.053831   0.004820  -0.020555
     17       0.017041   0.042043   0.092087  -0.086717  -0.063312   0.018374
     18      -0.055136   0.030587  -0.020519  -0.019307  -0.013372  -0.012849
     19       0.011944   0.024606   0.025502   0.039077   0.078431  -0.089968
     20      -0.068292   0.038802   0.042904   0.058536  -0.026034  -0.048397
     21      -0.071042   0.040653  -0.000080  -0.040506  -0.060437   0.017897
     22       0.005307  -0.025756  -0.054630   0.076815   0.054927  -0.040310
     23      -0.007863  -0.109547  -0.194137   0.175845   0.090763  -0.059011
     24      -0.015320   0.007055  -0.067393   0.016155   0.075291  -0.071973
     25       0.039047   0.073404   0.121071  -0.065509   0.015375  -0.044458
     26       0.001117   0.103566   0.194985  -0.143153  -0.106999   0.017506
     27      -0.020217   0.003711  -0.066689   0.007856   0.062499  -0.058645
     28       0.028493  -0.000612   0.049728  -0.112235  -0.088100   0.127665
     29       0.104535  -0.119257  -0.110807  -0.077694   0.022273   0.118954
     30      -0.042426   0.016384  -0.032788  -0.024264  -0.004901  -0.016811
     31       0.045501   0.039669   0.002850   0.024577   0.065733  -0.121506
     32      -0.064611   0.093811   0.050626   0.053814  -0.065834  -0.072754
     33      -0.056826   0.030529  -0.017278  -0.011748  -0.001249  -0.013220
     34       0.035792   0.008107  -0.004837   0.007466   0.061890  -0.095270
     35      -0.122571   0.089059   0.085299   0.068551  -0.055078  -0.026231
     36       0.005175   0.001953   0.058375   0.108501  -0.103020   0.038919
     37       0.088213   0.138827  -0.095296   0.058449   0.064523  -0.011837
     38      -0.040567   0.224492  -0.107828   0.019608  -0.049819   0.045704
     39       0.038813  -0.063575  -0.069017  -0.086195  -0.061248  -0.010143
     40      -0.062627   0.006966   0.026880   0.003809   0.077968   0.007869
     41       0.104939  -0.014741  -0.011555  -0.010245  -0.142382  -0.149782
     42      -0.079056   0.052962   0.008379   0.014850   0.015454  -0.010372
     43      -0.088080   0.055614   0.054577   0.053371   0.114552  -0.018489
     44      -0.305088   0.154519   0.168380   0.130860   0.021022   0.090129
     45      -0.121310   0.087750   0.009256   0.026474   0.034394  -0.001449
     46       0.242497  -0.083181  -0.106075  -0.076984  -0.030771  -0.212287
     47      -0.151960   0.084339   0.102758   0.073396  -0.045498   0.005907
     48       0.075626  -0.079866  -0.142676  -0.191451  -0.248394  -0.122911
     49       0.056479  -0.029815  -0.047517  -0.064233  -0.034272  -0.117480
     50       0.282964  -0.068465  -0.112210  -0.094100  -0.277542  -0.321736
     51       0.093517  -0.131295  -0.070258  -0.092380  -0.011632   0.060566
     52      -0.272818   0.083433   0.166015   0.143403   0.301425   0.229451
     53       0.136685   0.000631  -0.052346  -0.048389  -0.236969  -0.255571
     54       0.149820   0.096976   0.229876   0.039935   0.042505   0.015485
     55      -0.120178  -0.211832  -0.030379   0.221229  -0.109049   0.016688
     56      -0.164311  -0.105762   0.115127  -0.159417   0.134943  -0.074971
     57      -0.076218   0.051691   0.002320  -0.016382  -0.036809  -0.000903
     58      -0.028870   0.000276   0.039741   0.062905   0.105590  -0.069159
     59      -0.124898   0.004280   0.062555   0.092109   0.013249  -0.020048
     60       0.123561   0.001895   0.302189   0.004085   0.020104  -0.005447
     61      -0.191305  -0.335944  -0.005581   0.268763  -0.146906  -0.002124
     62      -0.099739  -0.048137   0.163491  -0.262170   0.159591  -0.073431
     63       0.034819  -0.010500   0.127400   0.187470  -0.148983   0.060534
     64       0.100123   0.182258  -0.125291   0.075694   0.053455   0.052725
     65      -0.043553   0.273883  -0.174806  -0.004252  -0.035978   0.098734
     66       0.115425   0.067924   0.192462   0.113312  -0.042177   0.043483
     67      -0.047875  -0.083904  -0.055933   0.169905  -0.044475   0.026190
     68      -0.129661   0.024428  -0.004362  -0.085131   0.055454  -0.002642
     69      -0.006848  -0.115192   0.199519   0.161237  -0.121115   0.006046
     70       0.119518   0.231287  -0.153794   0.101264   0.035605   0.121380
     71      -0.028751   0.310287  -0.203805  -0.005081  -0.042516   0.085430
     72      -0.055477   0.027735  -0.021421  -0.027320  -0.024624  -0.002446
     73       0.012616  -0.038787  -0.042287  -0.001966  -0.027057   0.070964
     74       0.068630  -0.181242  -0.264524   0.111637   0.113331   0.028646
     75      -0.001495  -0.009957  -0.089038   0.029072   0.111756  -0.093923
     76       0.042287   0.050955   0.130118  -0.144136  -0.065067   0.067761
     77       0.071686   0.017710   0.118056  -0.202137  -0.086260   0.108680
     78       0.012427  -0.051271  -0.020173  -0.016699   0.060455   0.060604
     79      -0.036510  -0.049534  -0.033576  -0.109066  -0.072801  -0.004989
     80       0.042008  -0.060834   0.084464   0.081332   0.093402   0.111258
     81      -0.008140   0.004535  -0.035777  -0.022093  -0.008285  -0.023060
     82       0.109140  -0.106168  -0.144776  -0.234883  -0.278641  -0.224012
     83       0.014018  -0.076765   0.123284   0.118314   0.187466   0.217322
     84      -0.030145  -0.031689   0.060187   0.098359   0.259659   0.172336
     85      -0.113723  -0.024994   0.020400  -0.053600   0.022376   0.115018
     86      -0.079074  -0.023779   0.157506   0.148938   0.209045   0.288568
     87       0.065664  -0.136047  -0.054601  -0.089315   0.013351   0.096860
     88      -0.096258  -0.065358  -0.023554  -0.137071  -0.086224   0.115554
     89       0.167750  -0.131053   0.036961   0.038354   0.059722   0.008319
     90       0.084950  -0.155115  -0.108253  -0.175691  -0.127973   0.035943
     91      -0.036249  -0.086998  -0.062683  -0.177391  -0.153250   0.023466
     92       0.270337  -0.164900  -0.019179  -0.011378  -0.023532  -0.140951
     93       0.055370  -0.125166  -0.031022  -0.050952   0.073806   0.121511
     94      -0.083368  -0.105080  -0.059130  -0.209831  -0.175029   0.124387
     95       0.143632  -0.162096   0.079495   0.075278   0.174104   0.152327
     96       0.094408  -0.189338  -0.049707  -0.094890   0.059770   0.161302
     97      -0.213120  -0.015350   0.058412  -0.044562   0.060441   0.288746
     98       0.180324  -0.116526   0.015970   0.020045   0.003838  -0.062372
                 12         13         14         15         16         17    
      0       0.029756  -0.002599   0.023019   0.031833   0.024710   0.003906
      1       0.004468   0.032458  -0.088807  -0.074579  -0.110833  -0.006724
      2       0.017617   0.083162  -0.147417   0.057793   0.081922   0.012273
      3      -0.002919   0.002220   0.035480   0.063582   0.076377   0.007836
      4      -0.113300   0.020686  -0.034178  -0.037465  -0.040900  -0.008346
      5      -0.105442   0.044013  -0.077327   0.027604   0.047581  -0.001488
      6       0.018606  -0.004789   0.034495   0.037709   0.030209   0.004258
      7      -0.146950  -0.009759   0.060889   0.010404   0.046316  -0.001915
      8      -0.066810  -0.033899   0.066417  -0.011431  -0.021547  -0.006335
      9       0.070835  -0.017508   0.024236  -0.026612  -0.078817  -0.003093
     10      -0.058838  -0.025211   0.094062   0.017571   0.038016   0.005061
     11       0.101025  -0.064142   0.123232  -0.012020  -0.060400   0.003359
     12       0.103538  -0.022282   0.011529  -0.061759  -0.137340  -0.007238
     13       0.051994  -0.004501   0.016322  -0.020746  -0.029380   0.003461
     14       0.216317  -0.008527   0.009822   0.018887  -0.013318   0.014321
     15       0.080069  -0.015364   0.013756  -0.033308  -0.083270  -0.002801
     16       0.082970   0.023164  -0.073984  -0.071744  -0.104758  -0.002866
     17       0.169975   0.063549  -0.123846   0.050760   0.069071   0.018895
     18       0.011463  -0.000481   0.026262   0.035942   0.015559   0.003888
     19       0.033639   0.038058  -0.097814  -0.071400  -0.107177  -0.005114
     20      -0.006911   0.102271  -0.141833   0.076764   0.029777   0.011189
     21      -0.047408   0.011001   0.048021   0.110230   0.157427   0.013478
     22      -0.178812   0.030285  -0.053114  -0.040885  -0.040837  -0.014151
     23      -0.231703   0.062820  -0.108085   0.031634   0.064490  -0.010254
     24       0.102477  -0.019087   0.006810  -0.074647  -0.138487   0.000329
     25       0.156504   0.035868  -0.120646  -0.118294  -0.169117  -0.002324
     26       0.240825   0.100241  -0.193656   0.078706   0.112588   0.012096
     27       0.086536  -0.022766   0.023489  -0.046619  -0.112437  -0.005039
     28      -0.077786  -0.051435   0.174744   0.054267   0.085980   0.008413
     29       0.136070  -0.127573   0.248134  -0.037355  -0.124615  -0.000088
     30       0.020735   0.012400   0.001299   0.044908   0.085773   0.006261
     31       0.082538  -0.041455   0.039662  -0.058989   0.079728  -0.002875
     32       0.024939  -0.021730   0.079843   0.063082   0.055372   0.006055
     33       0.014836  -0.000583   0.007603   0.054402  -0.016425   0.006767
     34       0.078528  -0.021606   0.055255  -0.055681   0.176375  -0.002983
     35       0.003281  -0.035075   0.126546   0.099218  -0.136996   0.008053
     36       0.005985   0.050232   0.000803  -0.226046   0.049146  -0.033379
     37       0.010801  -0.049867  -0.006100   0.151050   0.024957   0.022834
     38      -0.052760   0.022769   0.054271  -0.230649   0.044644  -0.030879
     39      -0.036159  -0.046066  -0.078421   0.012661   0.028275   0.003538
     40       0.071825   0.044601   0.104893  -0.007385   0.126995   0.000388
     41      -0.046175  -0.167322  -0.026078  -0.008508  -0.026826  -0.000345
     42       0.013072  -0.021121   0.022784   0.066196  -0.177579   0.007244
     43       0.096448   0.040242   0.133271   0.005357   0.044167   0.001608
     44       0.032225   0.065994   0.242022   0.191139  -0.284405   0.015369
     45       0.048602   0.054797   0.049156   0.080648   0.005545   0.008829
     46       0.041586  -0.116634  -0.085924  -0.161925   0.401432  -0.011581
     47      -0.004877  -0.035917   0.146159   0.117736  -0.225039   0.009509
     48      -0.133028  -0.033539  -0.076789   0.038612  -0.044066   0.004669
     49       0.017647  -0.005779   0.048120  -0.042146   0.156508  -0.002647
     50      -0.109771  -0.247797  -0.113732  -0.068229   0.036547  -0.005320
     51      -0.029129  -0.079608  -0.151041  -0.033030   0.076543   0.000529
     52       0.183202   0.127786   0.205485   0.050075   0.084572   0.005819
     53      -0.083451  -0.172390  -0.015426   0.000432  -0.042074  -0.000268
     54      -0.200422  -0.024376   0.016981   0.106384  -0.028145   0.045036
     55       0.045433  -0.015229  -0.021206   0.098909  -0.012021  -0.010753
     56      -0.206003  -0.014951   0.007305  -0.093584   0.010166   0.032927
     57      -0.011217  -0.010029   0.050274   0.030406  -0.075705  -0.000314
     58      -0.000656   0.111741  -0.196376  -0.057279  -0.204211  -0.004131
     59      -0.053548   0.204534  -0.279330   0.098423  -0.106921   0.013313
     60      -0.102102  -0.035487  -0.005801   0.330453  -0.020791  -0.503081
     61       0.046384  -0.011947  -0.005304  -0.014310  -0.026060   0.179443
     62      -0.097509  -0.031515  -0.039084   0.304315   0.037072  -0.827280
     63      -0.034849   0.042214   0.020531  -0.248590   0.029568  -0.039833
     64      -0.038412  -0.025628  -0.043245   0.169098  -0.018460   0.016585
     65      -0.080713   0.048515   0.004032  -0.168648   0.012107  -0.030322
     66      -0.138095  -0.000725   0.014888   0.020943  -0.020342   0.079090
     67      -0.003650  -0.024850  -0.024457   0.160600  -0.008509  -0.018184
     68      -0.145583   0.022741  -0.003293  -0.200595   0.033275   0.093694
     69      -0.012979   0.036386   0.029782  -0.332178   0.100215  -0.019498
     70      -0.092146  -0.004300  -0.079814   0.209178  -0.066891   0.008281
     71      -0.055826   0.036654   0.024926  -0.140837  -0.001161  -0.038930
     72      -0.007492  -0.000182   0.042479   0.067842   0.083648   0.007894
     73      -0.236802  -0.022393   0.111421   0.042650   0.112057  -0.002877
     74      -0.163422  -0.072275   0.140751  -0.038855  -0.053662  -0.018431
     75       0.148575  -0.031696  -0.001112  -0.102047  -0.220592  -0.026571
     76       0.111867  -0.012988   0.032686  -0.013383  -0.032616   0.001136
     77       0.332435  -0.025589   0.036751   0.023792  -0.035143   0.007113
     78       0.028587  -0.047656  -0.074266  -0.001486   0.086681   0.003396
     79      -0.028760   0.060271   0.066436   0.010316   0.012789   0.000331
     80       0.045530  -0.149475  -0.061718  -0.038024   0.009521  -0.001956
     81       0.012655  -0.161949  -0.105961  -0.006813   0.110216   0.004318
     82      -0.131444   0.279205   0.197336   0.064562  -0.080189   0.000659
     83       0.082132  -0.144088  -0.079315  -0.049623   0.020875  -0.002581
     84       0.135991  -0.044863  -0.053898  -0.024193   0.192213   0.003020
     85       0.015307  -0.059099  -0.013286  -0.018107   0.045447   0.000024
     86       0.095736  -0.351309  -0.200205  -0.080500   0.041397  -0.002359
     87      -0.025648   0.106359  -0.053841   0.024599  -0.029764   0.003018
     88      -0.060497  -0.056262  -0.065224  -0.007340  -0.065605  -0.000130
     89       0.025770   0.148186   0.115409   0.009289  -0.024315  -0.002081
     90      -0.108458   0.137058  -0.058434   0.059774  -0.168003   0.005157
     91      -0.092123   0.074000   0.023362   0.026774  -0.109899   0.000887
     92      -0.009275   0.373818   0.275609   0.061237  -0.067480  -0.000818
     93       0.010577   0.087616  -0.053168   0.008941   0.031688   0.002180
     94      -0.126602  -0.017672  -0.092659   0.015109  -0.193041   0.000788
     95       0.066416   0.137506   0.060156  -0.021120   0.011548  -0.004224
     96      -0.019329   0.209396  -0.036484   0.025416  -0.044501   0.001858
     97       0.013806  -0.311788  -0.227918  -0.076802   0.045199  -0.002168
     98       0.005819   0.156262   0.143931   0.024742  -0.042350  -0.001059
                 18         19         20         21         22         23    
      0       0.029213   0.013461   0.012469  -0.042530  -0.039353   0.001935
      1       0.014833  -0.022257  -0.009212   0.041628   0.006586   0.001236
      2       0.029648   0.012872  -0.000696  -0.009717  -0.018621  -0.002087
      3       0.044005   0.027224   0.022932  -0.078990  -0.084842   0.005383
      4       0.033374  -0.003825  -0.008449   0.040940  -0.087278   0.006203
      5       0.032461   0.010694  -0.023306   0.076389  -0.098392   0.000237
      6       0.043547   0.019655   0.022332  -0.070846  -0.085073   0.007066
      7       0.022103   0.015235   0.005011  -0.017864  -0.053719   0.002742
      8       0.001177   0.002374  -0.014507   0.052295  -0.009374  -0.002299
      9       0.041830   0.002221   0.021771  -0.055014  -0.087596   0.012101
     10      -0.011389   0.008039   0.023949  -0.085977   0.033110  -0.000445
     11      -0.058172  -0.014665   0.019070  -0.064770   0.144173  -0.006675
     12       0.034774  -0.009869   0.014130  -0.024422  -0.068769   0.011605
     13      -0.001650  -0.006913   0.000988   0.002752  -0.023872   0.002585
     14      -0.017946  -0.004772  -0.000979   0.010198  -0.029402   0.000767
     15       0.037398   0.000816   0.015896  -0.038368  -0.072150   0.010480
     16       0.023068  -0.018846  -0.019624   0.082377  -0.055189   0.003664
     17       0.040880   0.017592  -0.019986   0.066772  -0.126325   0.002942
     18       0.021782   0.007897   0.002010  -0.000322  -0.006950  -0.001206
     19      -0.056358  -0.026251   0.017337  -0.071016   0.120562  -0.004976
     20      -0.069081  -0.004010   0.045242  -0.151661   0.137430  -0.001598
     21       0.058657   0.045977   0.034249  -0.123392  -0.126973   0.007548
     22       0.042436  -0.003636  -0.016274   0.069171  -0.118697   0.007343
     23       0.052556   0.015392  -0.034254   0.115711  -0.165832   0.002870
     24       0.038166  -0.003364   0.015071  -0.026497  -0.080057   0.011421
     25       0.029385  -0.019749  -0.025953   0.117186  -0.098266   0.009071
     26       0.048200   0.031782  -0.031119   0.102583  -0.179934   0.009496
     27       0.037606  -0.004149   0.020392  -0.047160  -0.076456   0.012350
     28      -0.042353   0.014297   0.047378  -0.175071   0.118569  -0.004613
     29      -0.124061  -0.031124   0.051031  -0.174965   0.323272  -0.011607
     30       0.004117   0.002293   0.001613  -0.017908   0.024629  -0.005658
     31       0.112355   0.009923  -0.030647   0.042457   0.159978  -0.029176
     32       0.164476   0.042666  -0.015180   0.047241   0.129178  -0.020375
     33      -0.025633   0.014747  -0.019042   0.060631   0.083777  -0.013284
     34      -0.022074  -0.037340  -0.006030  -0.025384   0.040542  -0.008804
     35      -0.086137   0.033631  -0.013261   0.095578   0.024895  -0.004711
     36      -0.033940   0.053250   0.003735  -0.014845  -0.020287  -0.094380
     37       0.063857   0.189119  -0.015943   0.044014   0.077254   0.066923
     38       0.111256  -0.141388  -0.030197   0.048675   0.114318   0.143880
     39      -0.130976  -0.034425  -0.011573   0.077945   0.015253   0.005567
     40      -0.136099  -0.053537  -0.016903   0.034916  -0.046833   0.007593
     41      -0.061967  -0.001647   0.020709   0.008398  -0.017040   0.003805
     42      -0.063567   0.042424  -0.038033   0.129748   0.126209  -0.022467
     43      -0.111859  -0.020237  -0.026262   0.044198   0.035783  -0.011762
     44      -0.212000   0.050846  -0.038609   0.180862   0.005923  -0.006874
     45       0.105053   0.045374  -0.023472   0.038830   0.163440  -0.029131
     46       0.099865  -0.074838   0.032579  -0.149755   0.021038   0.006621
     47      -0.204404   0.027334  -0.022904   0.148181  -0.016995   0.000123
     48      -0.163366  -0.034136   0.046086   0.128308  -0.010654   0.011006
     49      -0.128361  -0.067206   0.027314   0.015259  -0.042892   0.005309
     50      -0.045548  -0.024324   0.077798  -0.031401  -0.006690  -0.000857
     51      -0.124102  -0.053577  -0.023577   0.034209  -0.039872   0.013939
     52      -0.120103  -0.023025  -0.100278   0.052762  -0.030313   0.001995
     53      -0.068302   0.000778   0.052938   0.026761   0.010390   0.000696
     54       0.035395  -0.167871  -0.001921  -0.000625   0.010067   0.032888
     55       0.029233  -0.127219  -0.001320  -0.000809   0.002262   0.023039
     56      -0.018054   0.077010   0.003288   0.000454  -0.003166  -0.032343
     57       0.044570   0.011061   0.003318   0.027956  -0.039087   0.005672
     58      -0.290436  -0.064772   0.076611  -0.246017   0.140891   0.012377
     59      -0.395330  -0.057199   0.128342  -0.396905   0.162915   0.022254
     60       0.049358  -0.267850  -0.002839  -0.004085  -0.002230  -0.044513
     61       0.050095  -0.250642  -0.001802   0.000376  -0.029154  -0.097237
     62      -0.030111   0.128816   0.002857  -0.004730   0.024161   0.038777
     63      -0.047365   0.153204   0.003806   0.001736  -0.012721  -0.080527
     64      -0.044320   0.219299   0.007861   0.000946  -0.010550  -0.011057
     65       0.009508  -0.156216  -0.004661  -0.004823   0.018793   0.052595
     66       0.035993  -0.212443  -0.002741  -0.001196  -0.010482   0.010916
     67       0.014194  -0.010105  -0.000792  -0.000376   0.036606   0.136471
     68      -0.046747   0.187281   0.002608   0.000021   0.005529   0.097982
     69      -0.003871   0.496026  -0.037463   0.063654   0.256462   0.817981
     70      -0.160639   0.241060   0.038466  -0.049521  -0.136709  -0.207489
     71       0.066263  -0.416130   0.001462  -0.010632  -0.076659  -0.434460
     72       0.043414   0.028876   0.023328  -0.081846  -0.082222   0.004653
     73       0.022440   0.030083   0.003733  -0.022098  -0.054413  -0.000027
     74       0.002564   0.004028  -0.019562   0.075745  -0.020476  -0.000435
     75       0.024939  -0.031292   0.003940   0.017721  -0.037293   0.011218
     76      -0.014559  -0.009772   0.004638  -0.006822  -0.032120   0.004017
     77      -0.043336  -0.014302   0.003400   0.001645  -0.037162   0.002994
     78      -0.139916  -0.046080  -0.049005   0.078922   0.051140  -0.000300
     79      -0.070201  -0.024162   0.027654   0.021711  -0.102796   0.016892
     80       0.026697   0.008187  -0.033033  -0.077931  -0.078652   0.006186
     81      -0.233957  -0.066724  -0.060957   0.103731   0.038794   0.004812
     82      -0.077345  -0.012448   0.095884   0.076933  -0.078601   0.021688
     83       0.082666   0.017068  -0.043816  -0.106323  -0.076113   0.001922
     84      -0.182954  -0.075185  -0.080239   0.075507   0.031856  -0.000814
     85      -0.041523  -0.021718  -0.006956  -0.013855  -0.101911   0.012651
     86       0.082714   0.018249  -0.082547  -0.135559  -0.075725  -0.000061
     87       0.057464   0.015205  -0.022485   0.068550   0.199272  -0.022306
     88       0.109328   0.032282   0.002836  -0.039873   0.005692  -0.002984
     89       0.033861   0.009923   0.027538  -0.035833  -0.079924   0.009110
     90       0.113360   0.078118  -0.487269  -0.224449   0.239743  -0.042726
     91       0.073906   0.040982  -0.172987  -0.137683  -0.025907  -0.003616
     92      -0.044358   0.009028  -0.165728  -0.134412  -0.147803   0.013490
     93       0.027454  -0.013222   0.171096   0.191473   0.176946  -0.012842
     94       0.253942   0.100514  -0.231731  -0.203146   0.126114  -0.029116
     95       0.193967   0.013413   0.501330   0.234698   0.066713   0.000715
     96       0.199257   0.032464   0.270608   0.234821   0.327507  -0.032972
     97       0.148019   0.001998   0.385212   0.180438   0.045849   0.002187
     98      -0.043761   0.008477  -0.201205  -0.166259  -0.150872   0.013148
                 24         25         26         27         28         29    
      0       0.018430   0.047568   0.000071   0.057731   0.008381  -0.015829
      1      -0.050619  -0.102600   0.003843   0.019117   0.012001   0.018025
      2      -0.018082  -0.013387   0.000274   0.035532  -0.021252   0.219685
      3       0.031662   0.069065  -0.003011  -0.003856  -0.011755   0.059773
      4       0.076377  -0.090573   0.000721  -0.068686   0.001540  -0.011488
      5       0.197004  -0.019318   0.001308   0.031922   0.004196   0.014414
      6       0.009709   0.045496  -0.002863  -0.028704  -0.010314   0.047533
      7      -0.076722   0.068948  -0.002246  -0.054885  -0.012383   0.008973
      8      -0.149662   0.098894  -0.000108   0.005192   0.010703  -0.114010
[...]
     19      -0.000133   0.000036  -0.000011
     20       0.000117  -0.000043   0.000009
     21       0.000159  -0.000086  -0.000010
     22      -0.000470   0.000177   0.000143
     23       0.000252  -0.000098  -0.000083
     24      -0.000192   0.000473  -0.001271
     25       0.004039  -0.000129   0.000164
     26      -0.002933  -0.000398   0.001089
     27       0.001344  -0.000222  -0.000072
     28       0.000474   0.000013   0.000020
     29      -0.000312  -0.000000  -0.000030
     30      -0.000039   0.000019   0.000010
     31       0.000266  -0.000088  -0.000009
     32      -0.000242   0.000173   0.000003
     33       0.000015  -0.000067  -0.000002
     34      -0.000159   0.000007   0.000000
     35       0.000127  -0.000121   0.000004
     36       0.035736  -0.021969  -0.001174
     37      -0.049024  -0.000736   0.001016
     38       0.053252  -0.035353  -0.000738
     39       0.000071  -0.000034   0.000005
     40       0.000080  -0.000062   0.000028
     41       0.000012  -0.000037  -0.000001
     42      -0.000726   0.000478   0.000031
     43       0.001033  -0.000099   0.000023
     44      -0.000888   0.000406  -0.000065
     45      -0.000304   0.000947   0.000037
     46      -0.000754   0.000945   0.000020
     47      -0.000150   0.000911   0.000044
     48      -0.000609  -0.000170   0.000030
     49      -0.000131   0.000102  -0.000111
     50       0.001111  -0.000841   0.000059
     51      -0.000509   0.000470  -0.000045
     52      -0.000113   0.000117  -0.000049
     53      -0.000767   0.001076  -0.000078
     54      -0.048979   0.000823  -0.033469
     55      -0.029877   0.000658   0.039863
     56       0.024176  -0.000269   0.030140
     57       0.000315  -0.000079   0.000094
     58       0.000912  -0.000230   0.000149
     59      -0.000491  -0.000035  -0.000126
     60      -0.006316   0.000148   0.576701
     61      -0.043012  -0.000783  -0.634917
     62      -0.005870  -0.000798  -0.507646
     63      -0.002297  -0.029835   0.000202
     64       0.002690  -0.031211  -0.000020
     65      -0.004172  -0.042352   0.000044
     66       0.771667  -0.014917  -0.045747
     67       0.504350  -0.011392   0.002117
     68      -0.370516   0.004286   0.029453
     69       0.012769   0.496118  -0.001263
     70       0.016641   0.498430  -0.000926
     71       0.007512   0.706869  -0.000663
     72       0.000367  -0.000102  -0.000086
     73      -0.000083   0.000068   0.000112
     74       0.000046  -0.000036  -0.000083
     75      -0.000619   0.000051   0.000452
     76       0.000284   0.000269   0.000272
     77      -0.000193  -0.000161  -0.000032
     78       0.000013  -0.000024   0.000004
     79       0.000001  -0.000002   0.000007
     80      -0.000011  -0.000034  -0.000002
     81      -0.000105   0.000311  -0.000005
     82      -0.000071   0.000219   0.000001
     83       0.000249   0.000340   0.000018
     84      -0.000103   0.000084  -0.000018
     85       0.000257  -0.000004  -0.000087
     86      -0.000178   0.000081   0.000047
     87       0.000011  -0.000009   0.000004
     88       0.000024  -0.000011   0.000015
     89      -0.000029  -0.000007  -0.000001
     90      -0.000100   0.000025   0.000028
     91      -0.000041   0.000035  -0.000082
     92       0.000171  -0.000057   0.000038
     93       0.000008   0.000023  -0.000013
     94       0.000080   0.000011  -0.000015
     95       0.000079   0.000010   0.000011
     96      -0.000056   0.000060  -0.000011
     97       0.000043   0.000053  -0.000006
     98       0.000119   0.000199  -0.000024


-----------
IR SPECTRUM  
-----------

 Mode    freq (cm**-1)   T**2         TX         TY         TZ
-------------------------------------------------------------------
   6:        20.33    0.000000  (  0.000000   0.000000   0.000000)
   7:        40.01    0.000000  (  0.000000   0.000000   0.000000)
   8:        48.06    0.000000  (  0.000000   0.000000   0.000000)
   9:        55.95    0.000000  (  0.000000   0.000000   0.000000)
  10:        70.16    0.000000  (  0.000000   0.000000   0.000000)
  11:        73.26    0.000000  (  0.000000   0.000000   0.000000)
  12:        78.81    0.000000  (  0.000000   0.000000   0.000000)
  13:       107.89    0.000000  (  0.000000   0.000000   0.000000)
  14:       119.98    0.000000  (  0.000000   0.000000   0.000000)
  15:       143.37    0.000000  (  0.000000   0.000000   0.000000)
  16:       161.35    0.000000  (  0.000000   0.000000   0.000000)
  17:       173.27    0.000000  (  0.000000   0.000000   0.000000)
  18:       219.90    0.000000  (  0.000000   0.000000   0.000000)
  19:       226.61    0.000000  (  0.000000   0.000000   0.000000)
  20:       267.38    0.000000  (  0.000000   0.000000   0.000000)
  21:       274.29    0.000000  (  0.000000   0.000000   0.000000)
  22:       281.61    0.000000  (  0.000000   0.000000   0.000000)
  23:       294.33    0.000000  (  0.000000   0.000000   0.000000)
  24:       377.80    0.000000  (  0.000000   0.000000   0.000000)
  25:       383.86    0.000000  (  0.000000   0.000000   0.000000)
  26:       411.60    0.000000  (  0.000000   0.000000   0.000000)
  27:       428.14    0.000000  (  0.000000   0.000000   0.000000)
  28:       451.24    0.000000  (  0.000000   0.000000   0.000000)
  29:       472.28    0.000000  (  0.000000   0.000000   0.000000)
  30:       507.22    0.000000  (  0.000000   0.000000   0.000000)
  31:       588.40    0.000000  (  0.000000   0.000000   0.000000)
  32:       622.06    0.000000  (  0.000000   0.000000   0.000000)
  33:       643.87    0.000000  (  0.000000   0.000000   0.000000)
  34:       664.62    0.000000  (  0.000000   0.000000   0.000000)
  35:       702.49    0.000000  (  0.000000   0.000000   0.000000)
  36:       758.30    0.000000  (  0.000000   0.000000   0.000000)
  37:       772.98    0.000000  (  0.000000   0.000000   0.000000)
  38:       825.34    0.000000  (  0.000000   0.000000   0.000000)
  39:       859.35    0.000000  (  0.000000   0.000000   0.000000)
  40:       878.85    0.000000  (  0.000000   0.000000   0.000000)
  41:       906.11    0.000000  (  0.000000   0.000000   0.000000)
  42:       918.36    0.000000  (  0.000000   0.000000   0.000000)
  43:       935.16    0.000000  (  0.000000   0.000000   0.000000)
  44:       942.87    0.000000  (  0.000000   0.000000   0.000000)
  45:       943.17    0.000000  (  0.000000   0.000000   0.000000)
  46:       953.77    0.000000  (  0.000000   0.000000   0.000000)
  47:       984.25    0.000000  (  0.000000   0.000000   0.000000)
  48:      1021.41    0.000000  (  0.000000   0.000000   0.000000)
  49:      1067.85    0.000000  (  0.000000   0.000000   0.000000)
  50:      1071.23    0.000000  (  0.000000   0.000000   0.000000)
  51:      1100.75    0.000000  (  0.000000   0.000000   0.000000)
  52:      1115.15    0.000000  (  0.000000   0.000000   0.000000)
  53:      1125.96    0.000000  (  0.000000   0.000000   0.000000)
  54:      1144.69    0.000000  (  0.000000   0.000000   0.000000)
  55:      1179.30    0.000000  (  0.000000   0.000000   0.000000)
  56:      1185.53    0.000000  (  0.000000   0.000000   0.000000)
  57:      1210.70    0.000000  (  0.000000   0.000000   0.000000)
  58:      1219.52    0.000000  (  0.000000   0.000000   0.000000)
  59:      1255.86    0.000000  (  0.000000   0.000000   0.000000)
  60:      1267.76    0.000000  (  0.000000   0.000000   0.000000)
  61:      1275.11    0.000000  (  0.000000   0.000000   0.000000)
  62:      1277.14    0.000000  (  0.000000   0.000000   0.000000)
  63:      1296.12    0.000000  (  0.000000   0.000000   0.000000)
  64:      1324.19    0.000000  (  0.000000   0.000000   0.000000)
  65:      1356.59    0.000000  (  0.000000   0.000000   0.000000)
  66:      1369.19    0.000000  (  0.000000   0.000000   0.000000)
  67:      1422.30    0.000000  (  0.000000   0.000000   0.000000)
  68:      1427.84    0.000000  (  0.000000   0.000000   0.000000)
  69:      1454.30    0.000000  (  0.000000   0.000000   0.000000)
  70:      1469.96    0.000000  (  0.000000   0.000000   0.000000)
  71:      1498.02    0.000000  (  0.000000   0.000000   0.000000)
  72:      1503.61    0.000000  (  0.000000   0.000000   0.000000)
  73:      1506.93    0.000000  (  0.000000   0.000000   0.000000)
  74:      1510.57    0.000000  (  0.000000   0.000000   0.000000)
  75:      1537.47    0.000000  (  0.000000   0.000000   0.000000)
  76:      1559.54    0.000000  (  0.000000   0.000000   0.000000)
  77:      1560.84    0.000000  (  0.000000   0.000000   0.000000)
  78:      1566.98    0.000000  (  0.000000   0.000000   0.000000)
  79:      1666.40    0.000000  (  0.000000   0.000000   0.000000)
  80:      2882.02    0.000000  (  0.000000   0.000000   0.000000)
  81:      2898.69    0.000000  (  0.000000   0.000000   0.000000)
  82:      2942.10    0.000000  (  0.000000   0.000000   0.000000)
  83:      2944.05    0.000000  (  0.000000   0.000000   0.000000)
  84:      2959.61    0.000000  (  0.000000   0.000000   0.000000)
  85:      2967.00    0.000000  (  0.000000   0.000000   0.000000)
  86:      2979.57    0.000000  (  0.000000   0.000000   0.000000)
  87:      2982.18    0.000000  (  0.000000   0.000000   0.000000)
  88:      2987.21    0.000000  (  0.000000   0.000000   0.000000)
  89:      2997.66    0.000000  (  0.000000   0.000000   0.000000)
  90:      3024.70    0.000000  (  0.000000   0.000000   0.000000)
  91:      3050.20    0.000000  (  0.000000   0.000000   0.000000)
  92:      3059.23    0.000000  (  0.000000   0.000000   0.000000)
  93:      3065.82    0.000000  (  0.000000   0.000000   0.000000)
  94:      3074.21    0.000000  (  0.000000   0.000000   0.000000)
  95:      3115.05    0.000000  (  0.000000   0.000000   0.000000)
  96:      3284.11    0.000000  (  0.000000   0.000000   0.000000)
  97:      3577.43    0.000000  (  0.000000   0.000000   0.000000)
  98:      3596.29    0.000000  (  0.000000   0.000000   0.000000)

The first frequency considered to be a vibration is 6
The total number of vibrations considered is 93


--------------------------
THERMOCHEMISTRY AT 298.15K
--------------------------

Temperature         ... 298.15 K
Pressure            ... 1.00 atm
Total Mass          ... 197.28 AMU

Throughout the following assumptions are being made:
  (1) The electronic state is orbitally nondegenerate
  (2) There are no thermally accessible electronically excited states
  (3) Hindered rotations indicated by low frequency modes are not
      treated as such but are treated as vibrations and this may
      cause some error
  (4) All equations used are the standard statistical mechanics
      equations for an ideal gas
  (5) All vibrations are strictly harmonic

freq.      20.33  E(vib)   ...       0.56 
freq.      40.01  E(vib)   ...       0.54 
freq.      48.06  E(vib)   ...       0.53 
freq.      55.95  E(vib)   ...       0.52 
freq.      70.16  E(vib)   ...       0.50 
freq.      73.26  E(vib)   ...       0.49 
freq.      78.81  E(vib)   ...       0.49 
freq.     107.89  E(vib)   ...       0.45 
freq.     119.98  E(vib)   ...       0.44 
freq.     143.37  E(vib)   ...       0.41 
freq.     161.35  E(vib)   ...       0.39 
freq.     173.27  E(vib)   ...       0.38 
freq.     219.90  E(vib)   ...       0.33 
freq.     226.61  E(vib)   ...       0.33 
freq.     267.38  E(vib)   ...       0.29 
freq.     274.29  E(vib)   ...       0.28 
freq.     281.61  E(vib)   ...       0.28 
freq.     294.33  E(vib)   ...       0.27 
freq.     377.80  E(vib)   ...       0.21 
freq.     383.86  E(vib)   ...       0.20 
freq.     411.60  E(vib)   ...       0.19 
freq.     428.14  E(vib)   ...       0.18 
freq.     451.24  E(vib)   ...       0.16 
freq.     472.28  E(vib)   ...       0.15 
freq.     507.22  E(vib)   ...       0.14 
freq.     588.40  E(vib)   ...       0.10 
freq.     622.06  E(vib)   ...       0.09 
freq.     643.87  E(vib)   ...       0.09 
freq.     664.62  E(vib)   ...       0.08 
freq.     702.49  E(vib)   ...       0.07 
freq.     758.30  E(vib)   ...       0.06 
freq.     772.98  E(vib)   ...       0.05 
freq.     825.34  E(vib)   ...       0.04 
freq.     859.35  E(vib)   ...       0.04 
freq.     878.85  E(vib)   ...       0.04 
freq.     906.11  E(vib)   ...       0.03 
freq.     918.36  E(vib)   ...       0.03 
freq.     935.16  E(vib)   ...       0.03 
freq.     942.87  E(vib)   ...       0.03 
freq.     943.17  E(vib)   ...       0.03 
freq.     953.77  E(vib)   ...       0.03 
freq.     984.25  E(vib)   ...       0.02 
freq.    1021.41  E(vib)   ...       0.02 
freq.    1067.85  E(vib)   ...       0.02 
freq.    1071.23  E(vib)   ...       0.02 
freq.    1100.75  E(vib)   ...       0.02 
freq.    1115.15  E(vib)   ...       0.01 
freq.    1125.96  E(vib)   ...       0.01 
freq.    1144.69  E(vib)   ...       0.01 
freq.    1179.30  E(vib)   ...       0.01 
freq.    1185.53  E(vib)   ...       0.01 
freq.    1210.70  E(vib)   ...       0.01 
freq.    1219.52  E(vib)   ...       0.01 
freq.    1255.86  E(vib)   ...       0.01 
freq.    1267.76  E(vib)   ...       0.01 
freq.    1275.11  E(vib)   ...       0.01 
freq.    1277.14  E(vib)   ...       0.01 
freq.    1296.12  E(vib)   ...       0.01 
freq.    1324.19  E(vib)   ...       0.01 
freq.    1356.59  E(vib)   ...       0.01 
freq.    1369.19  E(vib)   ...       0.01 
freq.    1422.30  E(vib)   ...       0.00 
freq.    1427.84  E(vib)   ...       0.00 
freq.    1454.30  E(vib)   ...       0.00 
freq.    1469.96  E(vib)   ...       0.00 
freq.    1498.02  E(vib)   ...       0.00 
freq.    1503.61  E(vib)   ...       0.00 
freq.    1506.93  E(vib)   ...       0.00 
freq.    1510.57  E(vib)   ...       0.00 
freq.    1537.47  E(vib)   ...       0.00 
freq.    1559.54  E(vib)   ...       0.00 
freq.    1560.84  E(vib)   ...       0.00 
freq.    1566.98  E(vib)   ...       0.00 
freq.    1666.40  E(vib)   ...       0.00 
freq.    2882.02  E(vib)   ...       0.00 
freq.    2898.69  E(vib)   ...       0.00 
freq.    2942.10  E(vib)   ...       0.00 
freq.    2944.05  E(vib)   ...       0.00 
freq.    2959.61  E(vib)   ...       0.00 
freq.    2967.00  E(vib)   ...       0.00 
freq.    2979.57  E(vib)   ...       0.00 
freq.    2982.18  E(vib)   ...       0.00 
freq.    2987.21  E(vib)   ...       0.00 
freq.    2997.66  E(vib)   ...       0.00 
freq.    3024.70  E(vib)   ...       0.00 
freq.    3050.20  E(vib)   ...       0.00 
freq.    3059.23  E(vib)   ...       0.00 
freq.    3065.82  E(vib)   ...       0.00 
freq.    3074.21  E(vib)   ...       0.00 
freq.    3115.05  E(vib)   ...       0.00 
freq.    3284.11  E(vib)   ...       0.00 
freq.    3577.43  E(vib)   ...       0.00 
freq.    3596.29  E(vib)   ...       0.00 

------------
INNER ENERGY
------------

The inner energy is: U= E(el) + E(ZPE) + E(vib) + E(rot) + E(trans)
    E(el)   - is the total energy from the electronic structure calculation
              = E(kin-el) + E(nuc-el) + E(el-el) + E(nuc-nuc)
    E(ZPE)  - the the zero temperature vibrational energy from the frequency calculation
    E(vib)  - the the finite temperature correction to E(ZPE) due to population
              of excited vibrational states
    E(rot)  - is the rotational thermal energy
    E(trans)- is the translational thermal energy

Summary of contributions to the inner energy U:
Electronic energy                ...    -44.28050510 Eh
Zero point energy                ...      0.27457526 Eh     172.30 kcal/mol
Thermal vibrational correction   ...      0.01566347 Eh       9.83 kcal/mol
Thermal rotational correction    ...      0.00141627 Eh       0.89 kcal/mol
Thermal translational correction ...      0.00141627 Eh       0.89 kcal/mol
-----------------------------------------------------------------------
Total thermal energy                    -43.98743383 Eh


Summary of corrections to the electronic energy:
(perhaps to be used in another calculation)
Total thermal correction                  0.01849601 Eh      11.61 kcal/mol
Non-thermal (ZPE) correction              0.27457526 Eh     172.30 kcal/mol
-----------------------------------------------------------------------
Total correction                          0.29307127 Eh     183.90 kcal/mol


--------
ENTHALPY
--------

The enthalpy is H = U + kB*T
                kB is Boltzmann's constant
Total free energy                 ...    -43.98743383 Eh 
Thermal Enthalpy correction       ...      0.00094421 Eh       0.59 kcal/mol
-----------------------------------------------------------------------
Total Enthalpy                    ...    -43.98648962 Eh


Note: Only C1 symmetry has been detected, increase convergence thresholds 
      if your molecule has a higher symmetry. Symmetry factor of 1.0 is   
      used for the rotational entropy correction. 
 

Note: Rotational entropy computed according to Herzberg 
Infrared and Raman Spectra, Chapter V,1, Van Nostrand Reinhold, 1945 
Point Group:  C1, Symmetry Number:   1  
Rotational constants in cm-1:     0.028681     0.009277     0.007386 

Vibrational entropy computed according to the QRRHO of S. Grimme
Chem.Eur.J. 2012 18 9955


-------
ENTROPY
-------

The entropy contributions are T*S = T*(S(el)+S(vib)+S(rot)+S(trans))
     S(el)   - electronic entropy
     S(vib)  - vibrational entropy
     S(rot)  - rotational entropy
     S(trans)- translational entropy
The entropies will be listed as mutliplied by the temperature to get
units of energy

Electronic entropy                ...      0.00000000 Eh      0.00 kcal/mol
Vibrational entropy               ...      0.02849559 Eh     17.88 kcal/mol
Rotational entropy                ...      0.01571402 Eh      9.86 kcal/mol
Translational entropy             ...      0.01983352 Eh     12.45 kcal/mol
-----------------------------------------------------------------------
Final entropy term                ...      0.06404313 Eh     40.19 kcal/mol

In case the symmetry of your molecule has not been determined correctly
or in case you have a reason to use a different symmetry number we print 
out the resulting rotational entropy values for sn=1,12 :
 --------------------------------------------------------
|  sn= 1 | S(rot)=       0.01571402 Eh      9.86 kcal/mol|
|  sn= 2 | S(rot)=       0.01505956 Eh      9.45 kcal/mol|
|  sn= 3 | S(rot)=       0.01467673 Eh      9.21 kcal/mol|
|  sn= 4 | S(rot)=       0.01440510 Eh      9.04 kcal/mol|
|  sn= 5 | S(rot)=       0.01419442 Eh      8.91 kcal/mol|
|  sn= 6 | S(rot)=       0.01402227 Eh      8.80 kcal/mol|
|  sn= 7 | S(rot)=       0.01387672 Eh      8.71 kcal/mol|
|  sn= 8 | S(rot)=       0.01375065 Eh      8.63 kcal/mol|
|  sn= 9 | S(rot)=       0.01363944 Eh      8.56 kcal/mol|
|  sn=10 | S(rot)=       0.01353996 Eh      8.50 kcal/mol|
|  sn=11 | S(rot)=       0.01344997 Eh      8.44 kcal/mol|
|  sn=12 | S(rot)=       0.01336781 Eh      8.39 kcal/mol|
 --------------------------------------------------------


-------------------
GIBBS FREE ENERGY
-------------------

The Gibbs free energy is G = H - T*S

Total enthalpy                    ...    -43.98648962 Eh 
Total entropy correction          ...     -0.06404313 Eh    -40.19 kcal/mol
-----------------------------------------------------------------------
Final Gibbs free energy         ...    -44.05053275 Eh

For completeness - the Gibbs free energy minus the electronic energy
G-E(el)                           ...      0.22997235 Eh    144.31 kcal/mol


Total Time for Numerical Frequencies  :        82.727 sec
Time for Reference State(s)           :         0.104 sec
Time for Displacements                :        76.567 sec

Timings for individual modules:

Sum of individual times         ...        0.285 sec (=   0.005 min)
XTB module                      ...        0.285 sec (=   0.005 min) 100.0 %
                             ****ORCA TERMINATED NORMALLY****
TOTAL RUN TIME: 0 days 0 hours 1 minutes 23 seconds 423 msec
(SLURM) EXECUTION TIME: 83.448816929 seconds.
