(SLURM) JOB ID:         406

                                 *****************
                                 * O   R   C   A *
                                 *****************

           --- An Ab Initio, DFT and Semiempirical electronic structure package ---

                  #######################################################
                  #                        -***-                        #
                  #          Department of theory and spectroscopy      #
                  #               Directorship: Frank Neese             #
                  #        Max Planck Institute fuer Kohlenforschung    #
                  #                Kaiser Wilhelm Platz 1               #
                  #                 D-45470 Muelheim/Ruhr               #
                  #                      Germany                        #
                  #                                                     #
                  #                  All rights reserved                #
                  #                        -***-                        #
                  #######################################################


                         Program Version 4.2.1 -  RELEASE  -


 With contributions from (in alphabetic order):
   Daniel Aravena         : Magnetic Suceptibility
   Michael Atanasov       : Ab Initio Ligand Field Theory (pilot matlab implementation)
   Alexander A. Auer      : GIAO ZORA, VPT2
   Ute Becker             : Parallelization
   Giovanni Bistoni       : ED, misc. LED, open-shell LED, HFLD
   Martin Brehm           : Molecular dynamics
   Dmytro Bykov           : SCF Hessian
   Vijay G. Chilkuri      : MRCI spin determinant printing, contributions to CSF-ICE
   Dipayan Datta          : RHF DLPNO-CCSD density
   Achintya Kumar Dutta   : EOM-CC, STEOM-CC
   Dmitry Ganyushin       : Spin-Orbit,Spin-Spin,Magnetic field MRCI
   Miquel Garcia          : C-PCM Hessian, Gaussian charge scheme
   Yang Guo               : DLPNO-NEVPT2, CIM, IAO-localization
   Andreas Hansen         : Spin unrestricted coupled pair/coupled cluster methods
   Benjamin Helmich-Paris : CASSCF linear response (MC-RPA)
   Lee Huntington         : MR-EOM, pCC
   Robert Izsak           : Overlap fitted RIJCOSX, COSX-SCS-MP3, EOM
   Christian Kollmar      : KDIIS, OOCD, Brueckner-CCSD(T), CCSD density
   Simone Kossmann        : Meta GGA functionals, TD-DFT gradient, OOMP2, MP2 Hessian
   Martin Krupicka        : AUTO-CI
   Lucas Lang             : DCDCAS
   Dagmar Lenk            : GEPOL surface, SMD
   Dimitrios Liakos       : Extrapolation schemes; Compound Job, initial MDCI parallelization
   Dimitrios Manganas     : Further ROCIS development; embedding schemes
   Dimitrios Pantazis     : SARC Basis sets
   Taras Petrenko         : DFT Hessian,TD-DFT gradient, ASA, ECA, R-Raman, ABS, FL, XAS/XES, NRVS
   Peter Pinski           : DLPNO-MP2, DLPNO-MP2 Gradient
   Christoph Reimann      : Effective Core Potentials
   Marius Retegan         : Local ZFS, SOC
   Christoph Riplinger    : Optimizer, TS searches, QM/MM, DLPNO-CCSD(T), (RO)-DLPNO pert. Triples
   Tobias Risthaus        : Range-separated hybrids, TD-DFT gradient, RPA, STAB
   Michael Roemelt        : Original ROCIS implementation
   Masaaki Saitow         : Open-shell DLPNO-CCSD energy and density
   Barbara Sandhoefer     : DKH picture change effects
   Avijit Sen             : IP-ROCIS
   Kantharuban Sivalingam : CASSCF convergence, NEVPT2, FIC-MRCI
   Bernardo de Souza      : ESD, SOC TD-DFT
   Georgi Stoychev        : AutoAux, RI-MP2 NMR
   Willem Van den Heuvel  : Paramagnetic NMR
   Boris Wezisla          : Elementary symmetry handling
   Frank Wennmohs         : Technical directorship


 We gratefully acknowledge several colleagues who have allowed us to
 interface, adapt or use parts of their codes:
   Stefan Grimme, W. Hujo, H. Kruse,             : VdW corrections, initial TS optimization,
                  C. Bannwarth                     DFT functionals, gCP, sTDA/sTD-DF
   Ed Valeev, F. Pavosevic, A. Kumar             : LibInt (2-el integral package), F12 methods
   Garnet Chan, S. Sharma, J. Yang, R. Olivares  : DMRG
   Ulf Ekstrom                                   : XCFun DFT Library
   Mihaly Kallay                                 : mrcc  (arbitrary order and MRCC methods)
   Andreas Klamt, Michael Diedenhofen            : otool_cosmo (COSMO solvation model)
   Jiri Pittner, Ondrej Demel                    : Mk-CCSD
   Frank Weinhold                                : gennbo (NPA and NBO analysis)
   Christopher J. Cramer and Donald G. Truhlar   : smd solvation model
   Lars Goerigk                                  : TD-DFT with DH, B97 family of functionals
   V. Asgeirsson, H. Jonsson                     : NEB implementation
   FAccTs GmbH                                   : IRC, NEB, NEB-TS, Multilevel, MM, QM/MM, CI optimization
   S Lehtola, MJT Oliveira, MAL Marques          : LibXC Library


 Your calculation uses the libint2 library for the computation of 2-el integrals
 For citations please refer to: http://libint.valeyev.net

 Your ORCA version has been built with support for libXC version: 4.2.3
 For citations please refer to: https://tddft.org/programs/libxc/

 This ORCA versions uses:
   CBLAS   interface :  Fast vector & matrix operations
   LAPACKE interface :  Fast linear algebra routines
   SCALAPACK package :  Parallel linear algebra routines




***************************************
The coordinates will be read from file: init.xyz
***************************************


Your calculation utilizes the SMD solvation module
Please cite in your paper:
A.V. Marenich, C.J. Cramer, D.G. Truhlar J. Phys. Chem. B, 113, (2009), 6378 

Your calculation utilizes the semiempirical GFN2-xTB method
Please cite in your paper:
C. Bannwarth, Ehlert S., S. Grimme,  J. Chem. Theory Comput., 15, (2019), 1652.
   

----- Orbital basis set information -----
Your calculation utilizes the basis: def2-SVP
   F. Weigend and R. Ahlrichs, Phys. Chem. Chem. Phys. 7, 3297 (2005).

================================================================================
                                        WARNINGS
                       Please study these warnings very carefully!
================================================================================

WARNING: Gradients needed for Numerical Frequencies
  ===> : Setting RunTyp to EnGrad

WARNING: The environment variable RSH_COMMAND is not set!
  ===> : All Displacements for the Numerical Hessian calculation
         will be started on localhost

WARNING: Found dipole moment calculation with XTB calculation
  ===> : Switching off dipole moment calculation


INFO   : the flag for use of LIBINT has been found!

================================================================================
                                       INPUT FILE
================================================================================
NAME = /tmp/slurm-scratch/freq.406/freq.inp
|  1> ! XTB2 NumFreq
|  2> %maxcore 1150
|  3> 
|  4> * xyzfile 0 1 init.xyz
|  5> 
|  6> %cpcm
|  7>  smd true
|  8>  smdsolvent "ch2cl2"
|  9> end
| 10> %pal nprocs 9 end
| 11> 
| 12>                          ****END OF INPUT****
================================================================================

                     *******************************
                     * Energy+Gradient Calculation *
                     *******************************

      -----------------------------------------------------------      
     |                   =====================                   |     
     |                           x T B                           |     
     |                   =====================                   |     
     |                         S. Grimme                         |     
     |          Mulliken Center for Theoretical Chemistry        |     
     |                    University of Bonn                     |     
      -----------------------------------------------------------      

   * xtb version 6.3.2 (30e43eb) compiled by 'schneider@apollo14' on 2020-08-08

   xtb is free software: you can redistribute it and/or modify it under
   the terms of the GNU Lesser General Public License as published by
   the Free Software Foundation, either version 3 of the License, or
   (at your option) any later version.
   
   xtb is distributed in the hope that it will be useful,
   but WITHOUT ANY WARRANTY; without even the implied warranty of
   MERCHANTABILITY or FITNESS FOR A PARTICULAR PURPOSE.  See the
   GNU Lesser General Public License for more details.
   
   Cite this work as:
   * S. Grimme, C. Bannwarth, P. Shushkov, J. Chem. Theory Comput., 2017,
     13, 1989-2009. DOI: 10.1021/acs.jctc.7b00118
   * C. Bannwarth, S. Ehlert and S. Grimme., J. Chem. Theory Comput., 2019,
     15, 1652-1671. DOI: 10.1021/acs.jctc.8b01176
   * P. Pracht, E. Caldeweyher, S. Ehlert, S. Grimme, ChemRxiv, 2019, preprint.
     DOI: 10.26434/chemrxiv.8326202.v1
   
   for GFN-FF:
   * S. Spicher and S. Grimme, Angew. Chem. Int. Ed., 2020,
     DOI: 10.1002/anie.202004239
   
   for DFT-D4:
   * E. Caldeweyher, C. Bannwarth and S. Grimme, J. Chem. Phys., 2017,
     147, 034112. DOI: 10.1063/1.4993215
   * E. Caldeweyher, S. Ehlert, A. Hansen, H. Neugebauer, S. Spicher,
     C. Bannwarth and S. Grimme, J. Chem. Phys., 2019, 150, 154122.
     DOI: 10.1063/1.5090222
   
   for sTDA-xTB:
   * S. Grimme and C. Bannwarth, J. Chem. Phys., 2016, 145, 054103.
     DOI: 10.1063/1.4959605
   
   in the mass-spec context:
   * V. Asgeirsson, C. Bauer and S. Grimme, Chem. Sci., 2017, 8, 4879.
     DOI: 10.1039/c7sc00601b
   * J. Koopman and S. Grimme, ACS Omega 2019, 4, 12, 15120-15133.
     DOI: 10.1021/acsomega.9b02011
   
   for metadynamics refer to:
   * S. Grimme, J. Chem. Theory Comput., 2019, 155, 2847-2862
     DOI: 10.1021/acs.jctc.9b00143
   
   with help from (in alphabetical order)
   C. Bannwarth, F. Bohle, G. Brandenburg, E. Caldeweyher, M. Checinski,
   S. Dohm, S. Ehlert, S. Ehrlich, F. März, H. Neugebauer, J. Pisarek,
   P. Pracht, P. Shushkov, and S. Spicher.
   
 * started run on 2020/08/21 at 13:40:10.080     

           -------------------------------------------------
          |                Calculation Setup                |
           -------------------------------------------------

          program call               : /opt/orca/otool_xtb /tmp/slurm-scratch/freq.406/freq_XTB.xyz --grad -c 0 -u 0 -P 9 --namespace /tmp/slurm-scratch/freq.406/freq --gbsa CH2Cl2
          hostname                   : apollo14
          calculation namespace      : /tmp/slurm-scratch/freq.406/freq
          coordinate file            : /tmp/slurm-scratch/freq.406/freq_XTB.xyz
          omp threads                :                     9
          number of atoms            :                    46
          number of electrons        :                   104
          charge                     :                     0
          spin                       :                   0.0
          first test random number   :      0.73466100489380

   ID    Z sym.   atoms
    1    6 C      1-6, 12, 17, 20, 23, 29, 32, 35, 39, 43
    2    1 H      7-9, 11, 13-16, 18, 21, 22, 24-28, 30, 31, 33, 34, 36, 37,
                  40-42, 44-46
    3    7 N      10, 38
    4    8 O      19

molecular fragmentation (1/2 indicates fragments):
1111111112222222111222222112222222222222222222
# atoms in fragment 1/2:    14    32
 fragment masses (1/2) :      106.12      146.27
CMA distance (Bohr)    :   9.293
constraining FC (au)   :  0.0500
########################################################################
[WARNING] Please study the warnings concerning your input carefully
-1- prog_main_parseArguments: Process number higher than OMP_NUM_THREADS, I hope you know what you are doing.
########################################################################

           -------------------------------------------------
          |                 G F N 2 - x T B                 |
           -------------------------------------------------

        Reference                      10.1021/acs.jctc.8b01176
      * Hamiltonian:
        H0-scaling (s, p, d)           1.850000    2.230000    2.230000
        zeta-weighting                 0.500000
      * Dispersion:
        s8                             2.700000
        a1                             0.520000
        a2                             5.000000
        s9                             5.000000
      * Repulsion:
        kExp                           1.500000    1.000000
        rExp                           1.000000
      * Coulomb:
        alpha                          2.000000
        third order                    shell-resolved
        anisotropic                    true
        a3                             3.000000
        a5                             4.000000
        cn-shift                       1.200000
        cn-exp                         4.000000
        max-rad                        5.000000

      * Solvation model:               GBSA
        Solvent                        CH2Cl2
        Parameter file                 internal GFN2-xTB/GBSA
        Dielectric constant                8.9300E+00
        Reference state                gsolv [1 M gas/solution]
        Free energy shift                  4.4408E-03 Eh       2.7867E+00 kcal/mol
        Temperature                        2.9815E+02 K
        Density                            1.3300E+00 kg/L
        Solvent mass                       8.4930E+01 g/mol
        Interaction kernel             Still
        Born radius scaling (c1)           1.4917E+00
        Born radii integrator          GBOBC
        Born offset                        0.0000E+00 a0       0.0000E+00 AA
        H-bond correction              false
        Ion screening                  false
        Surface tension                    1.0000E-05 Eh       1.5569E+01 dyn/cm
        Grid points                               230 per atom

          ...................................................
          :                      SETUP                      :
          :.................................................:
          :  # basis functions                 100          :
          :  # atomic orbitals                 100          :
          :  # shells                           64          :
          :  # electrons                       104          :
          :  max. iterations                   250          :
          :  Hamiltonian                  GFN2-xTB          :
          :  restarted?                      false          :
          :  GBSA solvation                   true          :
          :  PC potential                    false          :
          :  electronic temp.          300.0000000     K    :
          :  accuracy                    1.0000000          :
          :  -> integral cutoff          0.2500000E+02      :
          :  -> integral neglect         0.1000000E-07      :
          :  -> SCF convergence          0.1000000E-05 Eh   :
          :  -> wf. convergence          0.1000000E-03 e    :
          :  Broyden damping             0.4000000          :
          ...................................................

 iter      E             dE          RMSdq      gap      omega  full diag
   1    -56.9548707 -0.569549E+02  0.341E+00    2.34       0.0  T
   2    -57.0461516 -0.912808E-01  0.178E+00    2.20       1.0  T
   3    -57.0478009 -0.164930E-02  0.907E-01    2.36       1.0  T
   4    -57.0523684 -0.456757E-02  0.223E-01    2.17       1.0  T
   5    -57.0534874 -0.111897E-02  0.676E-02    2.20       1.0  T
   6    -57.0535278 -0.404105E-04  0.337E-02    2.21       1.0  T
   7    -57.0535456 -0.177504E-04  0.122E-02    2.21       1.2  T
   8    -57.0535467 -0.111742E-05  0.358E-03    2.21       4.1  T
   9    -57.0535468 -0.148151E-06  0.148E-03    2.21      10.0  T
  10    -57.0535469 -0.321593E-07  0.732E-04    2.21      20.1  T
  11    -57.0535469 -0.479105E-08  0.330E-04    2.21      44.7  T

   *** convergence criteria satisfied after 11 iterations ***

         #    Occupation            Energy/Eh            Energy/eV
      -------------------------------------------------------------
         1        2.0000           -0.7049032             -19.1814
       ...           ...                  ...                  ...
        46        2.0000           -0.4252265             -11.5710
        47        2.0000           -0.4236940             -11.5293
        48        2.0000           -0.4159494             -11.3186
        49        2.0000           -0.4143750             -11.2757
        50        2.0000           -0.3999336             -10.8827
        51        2.0000           -0.3796570             -10.3310
        52        2.0000           -0.3715361             -10.1100 (HOMO)
        53                         -0.2904746              -7.9042 (LUMO)
        54                         -0.2370944              -6.4517
        55                         -0.2045279              -5.5655
        56                         -0.1013423              -2.7577
        57                          0.0031560               0.0859
       ...                                ...                  ...
       100                          0.6182011              16.8221
      -------------------------------------------------------------
                  HL-Gap            0.0810615 Eh            2.2058 eV
             Fermi-level           -0.3310053 Eh           -9.0071 eV

 SCC (total)                   0 d,  0 h,  0 min,  0.184 sec
 SCC setup                      ...        0 min,  0.006 sec (  3.319%)
 Dispersion                     ...        0 min,  0.006 sec (  3.093%)
 classical contributions        ...        0 min,  0.006 sec (  3.057%)
 integral evaluation            ...        0 min,  0.022 sec ( 12.163%)
 iterations                     ...        0 min,  0.056 sec ( 30.585%)
 molecular gradient             ...        0 min,  0.086 sec ( 47.067%)
 printout                       ...        0 min,  0.001 sec (  0.698%)

         :::::::::::::::::::::::::::::::::::::::::::::::::::::
         ::                     SUMMARY                     ::
         :::::::::::::::::::::::::::::::::::::::::::::::::::::
         :: total energy             -56.277497717654 Eh    ::
         :: total w/o Gsasa/hb       -56.253073982139 Eh    ::
         :: gradient norm              0.052682954263 Eh/a0 ::
         :: HOMO-LUMO gap              2.205795476129 eV    ::
         ::.................................................::
         :: SCC energy               -57.053546859632 Eh    ::
         :: -> isotropic ES            0.060571637207 Eh    ::
         :: -> anisotropic ES          0.009196213230 Eh    ::
         :: -> anisotropic XC          0.039492718509 Eh    ::
         :: -> dispersion             -0.035427799043 Eh    ::
         :: -> Gsolv                  -0.032640161388 Eh    ::
         ::    -> Gborn               -0.008216425873 Eh    ::
         ::    -> Gsasa               -0.028864564689 Eh    ::
         ::    -> Ghb                  0.000000000000 Eh    ::
         ::    -> Gshift               0.004440829173 Eh    ::
         :: repulsion energy           0.775807825045 Eh    ::
         :: add. restraining           0.000000000000 Eh    ::
         :: total charge               0.000000000000 e     ::
         :::::::::::::::::::::::::::::::::::::::::::::::::::::

           -------------------------------------------------
          |                Property Printout                |
           -------------------------------------------------

    * Orbital Energies and Occupations

         #    Occupation            Energy/Eh            Energy/eV
      -------------------------------------------------------------
         1        2.0000           -0.7049032             -19.1814
       ...           ...                  ...                  ...
        40        2.0000           -0.4453286             -12.1180
        41        2.0000           -0.4402719             -11.9804
        42        2.0000           -0.4376391             -11.9088
        43        2.0000           -0.4363514             -11.8737
        44        2.0000           -0.4354813             -11.8500
        45        2.0000           -0.4319435             -11.7538
        46        2.0000           -0.4252265             -11.5710
        47        2.0000           -0.4236940             -11.5293
        48        2.0000           -0.4159494             -11.3186
        49        2.0000           -0.4143750             -11.2757
        50        2.0000           -0.3999336             -10.8827
        51        2.0000           -0.3796570             -10.3310
        52        2.0000           -0.3715361             -10.1100 (HOMO)
        53                         -0.2904746              -7.9042 (LUMO)
        54                         -0.2370944              -6.4517
        55                         -0.2045279              -5.5655
        56                         -0.1013423              -2.7577
        57                          0.0031560               0.0859
        58                          0.0233074               0.6342
        59                          0.0610106               1.6602
        60                          0.0741790               2.0185
        61                          0.0797454               2.1700
        62                          0.0962326               2.6186
        63                          0.1024080               2.7867
       ...                                ...                  ...
       100                          0.6182011              16.8221
      -------------------------------------------------------------
                  HL-Gap            0.0810615 Eh            2.2058 eV
             Fermi-level           -0.3310053 Eh           -9.0071 eV

     #   Z          covCN         q      C6AA      α(0)
     1   6 C        2.907    -0.025    28.616     8.771
     2   6 C        2.913    -0.023    28.583     8.767
     3   6 C        2.961    -0.008    28.218     8.713
     4   6 C        2.911    -0.016    28.405     8.739
     5   6 C        2.907    -0.026    28.663     8.779
     6   6 C        2.909    -0.019    28.483     8.751
     7   1 H        0.925     0.052     2.293     2.368
     8   1 H        0.925     0.046     2.374     2.409
     9   1 H        0.925     0.053     2.283     2.363
    10   7 N        2.626    -0.364    29.397     8.052
    11   1 H        0.859     0.167     1.294     1.782
    12   6 C        3.727     0.023    20.291     6.431
    13   1 H        0.922     0.008     2.922     2.673
    14   1 H        0.923     0.031     2.575     2.510
    15   1 H        0.859     0.144     1.442     1.881
    16   1 H        0.859     0.164     1.308     1.792
    17   6 C        2.763     0.209    23.569     7.951
    18   1 H        0.922     0.031     2.572     2.508
    19   8 O        0.856    -0.417    22.028     6.293
    20   6 C        3.797    -0.062    21.693     6.632
    21   1 H        0.923     0.038     2.470     2.458
    22   1 H        0.923     0.035     2.519     2.482
    23   6 C        3.795    -0.052    21.516     6.605
    24   1 H        0.923     0.030     2.582     2.513
    25   1 H        0.923     0.030     2.589     2.516
    26   1 H        0.925     0.049     2.335     2.389
    27   1 H        0.925     0.053     2.285     2.364
    28   1 H        0.859     0.141     1.467     1.898
    29   6 C        3.727     0.016    20.408     6.450
    30   1 H        0.923     0.032     2.560     2.502
    31   1 H        0.923     0.029     2.597     2.520
    32   6 C        3.795    -0.064    21.742     6.640
    33   1 H        0.923     0.028     2.611     2.527
    34   1 H        0.923     0.029     2.604     2.524
    35   6 C        3.795    -0.053    21.524     6.606
    36   1 H        0.923     0.031     2.575     2.510
    37   1 H        0.923     0.030     2.593     2.518
    38   7 N        2.625    -0.380    29.821     8.110
    39   6 C        3.745    -0.099    22.467     6.761
    40   1 H        0.923     0.036     2.499     2.472
    41   1 H        0.923     0.034     2.526     2.486
    42   1 H        0.923     0.034     2.535     2.490
    43   6 C        3.745    -0.100    22.485     6.764
    44   1 H        0.923     0.036     2.499     2.472
    45   1 H        0.923     0.035     2.514     2.479
    46   1 H        0.923     0.036     2.509     2.477

 Mol. C6AA /au·bohr⁶  :      17445.697420
 Mol. C8AA /au·bohr⁸  :     381500.997040
 Mol. α(0) /au        :        202.700270


Wiberg/Mayer (AO) data.
largest (>0.10) Wiberg bond orders for each atom

 ---------------------------------------------------------------------------
     #   Z sym  total        # sym  WBO       # sym  WBO       # sym  WBO
 ---------------------------------------------------------------------------
     1   6 C    3.990 --     2 C    1.460     6 C    1.428    27 H    0.969
                             4 C    0.105
     2   6 C    3.988 --     1 C    1.460     3 C    1.369     7 H    0.966
                             5 C    0.105
     3   6 C    3.988 --     4 C    1.369     2 C    1.369    17 C    1.066
     4   6 C    3.989 --     5 C    1.459     3 C    1.369     8 H    0.966
                             1 C    0.105
     5   6 C    3.990 --     4 C    1.459     6 C    1.427    26 H    0.970
                             2 C    0.105
     6   6 C    3.988 --     1 C    1.428     5 C    1.427     9 H    0.970
     7   1 H    0.997 --     2 C    0.966
     8   1 H    0.998 --     4 C    0.966
     9   1 H    0.997 --     6 C    0.970
    10   7 N    3.062 --    12 C    1.017    15 H    0.965    11 H    0.941
    11   1 H    0.972 --    10 N    0.941
    12   6 C    3.983 --    10 N    1.017    20 C    1.005    14 H    0.975
                            13 H    0.969
    13   1 H    0.999 --    12 C    0.969
    14   1 H    0.999 --    12 C    0.975
    15   1 H    0.979 --    10 N    0.965
    16   1 H    0.973 --    38 N    0.946
    17   6 C    3.911 --    19 O    1.783     3 C    1.066    18 H    0.936
    18   1 H    0.999 --    17 C    0.936
    19   8 O    2.021 --    17 C    1.783
    20   6 C    3.995 --    23 C    1.007    12 C    1.005    22 H    0.976
                            21 H    0.975
    21   1 H    0.998 --    20 C    0.975
    22   1 H    0.999 --    20 C    0.976
    23   6 C    3.996 --    43 C    1.019    20 C    1.007    25 H    0.978
                            24 H    0.978
    24   1 H    0.999 --    23 C    0.978
    25   1 H    0.999 --    23 C    0.978
    26   1 H    0.997 --     5 C    0.970
    27   1 H    0.997 --     1 C    0.969
    28   1 H    0.980 --    38 N    0.967
    29   6 C    3.982 --    38 N    1.019    32 C    0.997    30 H    0.976
                            31 H    0.976
    30   1 H    0.999 --    29 C    0.976
    31   1 H    0.999 --    29 C    0.976
    32   6 C    3.996 --    35 C    1.006    29 C    0.997    34 H    0.977
                            33 H    0.977
    33   1 H    0.999 --    32 C    0.977
    34   1 H    0.999 --    32 C    0.977
    35   6 C    3.996 --    39 C    1.019    32 C    1.006    37 H    0.978
                            36 H    0.978
    36   1 H    0.999 --    35 C    0.978
    37   1 H    0.999 --    35 C    0.978
    38   7 N    3.016 --    29 C    1.019    28 H    0.967    16 H    0.946
    39   6 C    3.996 --    35 C    1.019    42 H    0.988    41 H    0.988
                            40 H    0.987
    40   1 H    0.998 --    39 C    0.987
    41   1 H    0.999 --    39 C    0.988
    42   1 H    0.999 --    39 C    0.988
    43   6 C    3.996 --    23 C    1.019    45 H    0.988    46 H    0.988
                            44 H    0.987
    44   1 H    0.998 --    43 C    0.987
    45   1 H    0.999 --    43 C    0.988
    46   1 H    0.999 --    43 C    0.988
 ---------------------------------------------------------------------------

Topologies differ in total number of bonds
Writing topology from bond orders to xtbtopo.mol

molecular dipole:
                 x           y           z       tot (Debye)
 q only:       -0.257       0.588      -1.258
   full:       -0.175       0.324      -1.280       3.385
molecular quadrupole (traceless):
                xx          xy          yy          xz          yz          zz
 q only:        2.589      -1.652       2.855      -7.375      -1.253      -5.444
  q+dip:        3.582      -4.538       3.096      -7.553      -1.410      -6.678
   full:        3.529      -2.536       3.927      -6.617      -0.651      -7.456


           -------------------------------------------------
          | TOTAL ENERGY              -56.277497717654 Eh   |
          | GRADIENT NORM               0.052682954263 Eh/α |
          | HOMO-LUMO GAP               2.205795476129 eV   |
           -------------------------------------------------

------------------------------------------------------------------------
 * finished run on 2020/08/21 at 13:40:10.348     
------------------------------------------------------------------------
 total:
 * wall-time:     0 d,  0 h,  0 min,  0.268 sec
 *  cpu-time:     0 d,  0 h,  0 min,  3.024 sec
 * ratio c/w:    11.286 speedup
 SCF:
 * wall-time:     0 d,  0 h,  0 min,  0.190 sec
 *  cpu-time:     0 d,  0 h,  0 min,  2.142 sec
 * ratio c/w:    11.266 speedup


-------------------------   --------------------
FINAL SINGLE POINT ENERGY       -56.277497717650
-------------------------   --------------------


----------------------------------------------------------------------------
                           ORCA NUMERICAL FREQUENCIES
                              (9-process run)
----------------------------------------------------------------------------

Number of atoms                ... 46
Central differences            ... used
Number of displacements        ... 276
Numerical increment            ... 5.000e-03 bohr
IR-spectrum generation         ... on
Raman-spectrum generation      ... off
Surface Crossing Hessian       ... off
List of participating nodes    ...  /tmp/slurm-scratch/freq.406/freq.hostnames

The output will be reduced. Please look at the following files:
SCF program output             ... >/tmp/slurm-scratch/freq.406/freq.lastscf
Integral program output        ... >/tmp/slurm-scratch/freq.406/freq.lastint
Gradient program output        ... >/tmp/slurm-scratch/freq.406/freq.lastgrad
Dipole moment program output   ... >/tmp/slurm-scratch/freq.406/freq.lastmom
AutoCI program output          ... >/tmp/slurm-scratch/freq.406/freq.lastautoci


         <<< Energy and Gradient at the input geometry >>>

        <<< Energy and Gradient at displaced geometries >>>
             <<<Displacing   1/coordinate 3 (+)>>>
             <<<Displacing   3/coordinate 3 (+)>>>
             <<<Displacing   1/coordinate 2 (+)>>>
             <<<Displacing   3/coordinate 3 (-)>>>
             <<<Displacing   1/coordinate 3 (-)>>>
             <<<Displacing   1/coordinate 2 (-)>>>
             <<<Displacing   2/coordinate 1 (+)>>>
             <<<Displacing   2/coordinate 3 (+)>>>
             <<<Displacing   1/coordinate 1 (+)>>>
             <<<Displacing   2/coordinate 1 (-)>>>
             <<<Displacing   2/coordinate 3 (-)>>>
             <<<Displacing   2/coordinate 2 (+)>>>
             <<<Displacing   1/coordinate 1 (-)>>>
             <<<Displacing   3/coordinate 1 (+)>>>
             <<<Displacing   3/coordinate 2 (+)>>>
             <<<Displacing   2/coordinate 2 (-)>>>
             <<<Displacing   3/coordinate 1 (-)>>>
             <<<Displacing   3/coordinate 2 (-)>>>
             <<<Displacing   4/coordinate 1 (+)>>>
             <<<Displacing   4/coordinate 2 (+)>>>
             <<<Displacing   4/coordinate 1 (-)>>>
             <<<Displacing   4/coordinate 3 (+)>>>
             <<<Displacing   4/coordinate 2 (-)>>>
             <<<Displacing   4/coordinate 3 (-)>>>
             <<<Displacing   5/coordinate 3 (+)>>>
             <<<Displacing   5/coordinate 2 (+)>>>
             <<<Displacing   6/coordinate 1 (+)>>>
             <<<Displacing   5/coordinate 3 (-)>>>
             <<<Displacing   5/coordinate 1 (+)>>>
             <<<Displacing   5/coordinate 2 (-)>>>
             <<<Displacing   6/coordinate 1 (-)>>>
             <<<Displacing   5/coordinate 1 (-)>>>
             <<<Displacing   6/coordinate 2 (+)>>>
             <<<Displacing   6/coordinate 3 (+)>>>
             <<<Displacing   6/coordinate 2 (-)>>>
             <<<Displacing   6/coordinate 3 (-)>>>
             <<<Displacing   7/coordinate 2 (+)>>>
             <<<Displacing   7/coordinate 2 (-)>>>
             <<<Displacing   7/coordinate 1 (+)>>>
             <<<Displacing   7/coordinate 3 (+)>>>
             <<<Displacing   8/coordinate 3 (+)>>>
             <<<Displacing   7/coordinate 1 (-)>>>
             <<<Displacing   8/coordinate 3 (-)>>>
             <<<Displacing   7/coordinate 3 (-)>>>
             <<<Displacing   8/coordinate 1 (+)>>>
             <<<Displacing   8/coordinate 2 (+)>>>
             <<<Displacing   8/coordinate 1 (-)>>>
             <<<Displacing   9/coordinate 1 (+)>>>
             <<<Displacing   8/coordinate 2 (-)>>>
             <<<Displacing   9/coordinate 2 (+)>>>
             <<<Displacing   9/coordinate 1 (-)>>>
             <<<Displacing   9/coordinate 2 (-)>>>
             <<<Displacing   9/coordinate 3 (+)>>>
             <<<Displacing   9/coordinate 3 (-)>>>
             <<<Displacing  10/coordinate 2 (+)>>>
             <<<Displacing  10/coordinate 3 (+)>>>
             <<<Displacing  10/coordinate 1 (+)>>>
             <<<Displacing  10/coordinate 2 (-)>>>
             <<<Displacing  10/coordinate 1 (-)>>>
             <<<Displacing  10/coordinate 3 (-)>>>
             <<<Displacing  11/coordinate 3 (+)>>>
             <<<Displacing  11/coordinate 1 (+)>>>
             <<<Displacing  11/coordinate 3 (-)>>>
             <<<Displacing  11/coordinate 2 (+)>>>
             <<<Displacing  11/coordinate 2 (-)>>>
             <<<Displacing  11/coordinate 1 (-)>>>
             <<<Displacing  12/coordinate 1 (+)>>>
             <<<Displacing  12/coordinate 2 (+)>>>
             <<<Displacing  12/coordinate 1 (-)>>>
             <<<Displacing  12/coordinate 2 (-)>>>
             <<<Displacing  12/coordinate 3 (+)>>>
             <<<Displacing  12/coordinate 3 (-)>>>
             <<<Displacing  13/coordinate 3 (+)>>>
             <<<Displacing  13/coordinate 1 (+)>>>
             <<<Displacing  13/coordinate 2 (+)>>>
             <<<Displacing  13/coordinate 3 (-)>>>
             <<<Displacing  13/coordinate 1 (-)>>>
             <<<Displacing  13/coordinate 2 (-)>>>
             <<<Displacing  14/coordinate 2 (+)>>>
             <<<Displacing  14/coordinate 1 (+)>>>
             <<<Displacing  14/coordinate 2 (-)>>>
             <<<Displacing  14/coordinate 1 (-)>>>
             <<<Displacing  14/coordinate 3 (+)>>>
             <<<Displacing  14/coordinate 3 (-)>>>
             <<<Displacing  15/coordinate 1 (+)>>>
             <<<Displacing  15/coordinate 1 (-)>>>
             <<<Displacing  15/coordinate 2 (+)>>>
             <<<Displacing  15/coordinate 3 (+)>>>
             <<<Displacing  15/coordinate 2 (-)>>>
             <<<Displacing  15/coordinate 3 (-)>>>
             <<<Displacing  16/coordinate 1 (+)>>>
             <<<Displacing  16/coordinate 2 (+)>>>
             <<<Displacing  16/coordinate 1 (-)>>>
             <<<Displacing  16/coordinate 2 (-)>>>
             <<<Displacing  16/coordinate 3 (+)>>>
             <<<Displacing  16/coordinate 3 (-)>>>
             <<<Displacing  17/coordinate 1 (+)>>>
             <<<Displacing  17/coordinate 2 (+)>>>
             <<<Displacing  17/coordinate 1 (-)>>>
             <<<Displacing  17/coordinate 3 (+)>>>
             <<<Displacing  17/coordinate 2 (-)>>>
             <<<Displacing  17/coordinate 3 (-)>>>
             <<<Displacing  18/coordinate 1 (+)>>>
             <<<Displacing  18/coordinate 2 (+)>>>
             <<<Displacing  18/coordinate 2 (-)>>>
             <<<Displacing  18/coordinate 1 (-)>>>
             <<<Displacing  18/coordinate 3 (+)>>>
             <<<Displacing  18/coordinate 3 (-)>>>
             <<<Displacing  19/coordinate 1 (+)>>>
             <<<Displacing  19/coordinate 1 (-)>>>
             <<<Displacing  19/coordinate 2 (+)>>>
             <<<Displacing  20/coordinate 1 (+)>>>
             <<<Displacing  19/coordinate 3 (+)>>>
             <<<Displacing  19/coordinate 2 (-)>>>
             <<<Displacing  19/coordinate 3 (-)>>>
             <<<Displacing  20/coordinate 1 (-)>>>
             <<<Displacing  20/coordinate 3 (+)>>>
             <<<Displacing  20/coordinate 2 (+)>>>
             <<<Displacing  20/coordinate 3 (-)>>>
             <<<Displacing  20/coordinate 2 (-)>>>
             <<<Displacing  21/coordinate 1 (+)>>>
             <<<Displacing  21/coordinate 2 (+)>>>
             <<<Displacing  21/coordinate 2 (-)>>>
             <<<Displacing  21/coordinate 1 (-)>>>
             <<<Displacing  21/coordinate 3 (+)>>>
             <<<Displacing  21/coordinate 3 (-)>>>
             <<<Displacing  22/coordinate 1 (+)>>>
             <<<Displacing  22/coordinate 2 (+)>>>
             <<<Displacing  22/coordinate 1 (-)>>>
             <<<Displacing  22/coordinate 2 (-)>>>
             <<<Displacing  22/coordinate 3 (+)>>>
             <<<Displacing  23/coordinate 1 (+)>>>
             <<<Displacing  23/coordinate 1 (-)>>>
             <<<Displacing  22/coordinate 3 (-)>>>
             <<<Displacing  23/coordinate 2 (+)>>>
             <<<Displacing  23/coordinate 2 (-)>>>
             <<<Displacing  23/coordinate 3 (+)>>>
             <<<Displacing  23/coordinate 3 (-)>>>
             <<<Displacing  24/coordinate 1 (+)>>>
             <<<Displacing  24/coordinate 1 (-)>>>
             <<<Displacing  24/coordinate 2 (+)>>>
             <<<Displacing  24/coordinate 2 (-)>>>
             <<<Displacing  24/coordinate 3 (+)>>>
             <<<Displacing  24/coordinate 3 (-)>>>
             <<<Displacing  25/coordinate 1 (+)>>>
             <<<Displacing  25/coordinate 2 (+)>>>
             <<<Displacing  25/coordinate 3 (+)>>>
             <<<Displacing  25/coordinate 1 (-)>>>
             <<<Displacing  26/coordinate 1 (+)>>>
             <<<Displacing  25/coordinate 2 (-)>>>
             <<<Displacing  25/coordinate 3 (-)>>>
             <<<Displacing  26/coordinate 1 (-)>>>
             <<<Displacing  26/coordinate 2 (+)>>>
             <<<Displacing  26/coordinate 3 (+)>>>
             <<<Displacing  26/coordinate 2 (-)>>>
             <<<Displacing  26/coordinate 3 (-)>>>
             <<<Displacing  27/coordinate 1 (+)>>>
             <<<Displacing  27/coordinate 2 (+)>>>
             <<<Displacing  27/coordinate 1 (-)>>>
             <<<Displacing  27/coordinate 2 (-)>>>
             <<<Displacing  27/coordinate 3 (+)>>>
             <<<Displacing  27/coordinate 3 (-)>>>
             <<<Displacing  28/coordinate 2 (+)>>>
             <<<Displacing  28/coordinate 2 (-)>>>
             <<<Displacing  28/coordinate 1 (+)>>>
             <<<Displacing  28/coordinate 3 (+)>>>
             <<<Displacing  29/coordinate 1 (+)>>>
             <<<Displacing  28/coordinate 1 (-)>>>
             <<<Displacing  28/coordinate 3 (-)>>>
             <<<Displacing  29/coordinate 1 (-)>>>
             <<<Displacing  29/coordinate 2 (+)>>>
             <<<Displacing  29/coordinate 2 (-)>>>
             <<<Displacing  29/coordinate 3 (+)>>>
             <<<Displacing  29/coordinate 3 (-)>>>
             <<<Displacing  30/coordinate 1 (+)>>>
             <<<Displacing  30/coordinate 1 (-)>>>
             <<<Displacing  30/coordinate 2 (+)>>>
             <<<Displacing  30/coordinate 2 (-)>>>
             <<<Displacing  31/coordinate 3 (+)>>>
             <<<Displacing  30/coordinate 3 (+)>>>
             <<<Displacing  31/coordinate 1 (+)>>>
             <<<Displacing  30/coordinate 3 (-)>>>
             <<<Displacing  31/coordinate 1 (-)>>>
             <<<Displacing  31/coordinate 3 (-)>>>
             <<<Displacing  31/coordinate 2 (+)>>>
             <<<Displacing  31/coordinate 2 (-)>>>
             <<<Displacing  32/coordinate 1 (+)>>>
             <<<Displacing  32/coordinate 1 (-)>>>
             <<<Displacing  32/coordinate 2 (+)>>>
             <<<Displacing  32/coordinate 2 (-)>>>
             <<<Displacing  32/coordinate 3 (+)>>>
             <<<Displacing  32/coordinate 3 (-)>>>
             <<<Displacing  33/coordinate 1 (+)>>>
             <<<Displacing  33/coordinate 1 (-)>>>
             <<<Displacing  33/coordinate 2 (+)>>>
             <<<Displacing  33/coordinate 2 (-)>>>
             <<<Displacing  34/coordinate 1 (+)>>>
             <<<Displacing  34/coordinate 2 (+)>>>
             <<<Displacing  34/coordinate 1 (-)>>>
             <<<Displacing  33/coordinate 3 (+)>>>
             <<<Displacing  34/coordinate 2 (-)>>>
             <<<Displacing  33/coordinate 3 (-)>>>
             <<<Displacing  34/coordinate 3 (+)>>>
             <<<Displacing  35/coordinate 1 (+)>>>
             <<<Displacing  34/coordinate 3 (-)>>>
             <<<Displacing  35/coordinate 1 (-)>>>
             <<<Displacing  35/coordinate 2 (+)>>>
             <<<Displacing  35/coordinate 3 (+)>>>
             <<<Displacing  35/coordinate 2 (-)>>>
             <<<Displacing  35/coordinate 3 (-)>>>
             <<<Displacing  36/coordinate 1 (+)>>>
             <<<Displacing  36/coordinate 2 (+)>>>
             <<<Displacing  36/coordinate 1 (-)>>>
             <<<Displacing  36/coordinate 2 (-)>>>
             <<<Displacing  37/coordinate 1 (+)>>>
             <<<Displacing  36/coordinate 3 (+)>>>
             <<<Displacing  37/coordinate 1 (-)>>>
             <<<Displacing  36/coordinate 3 (-)>>>
             <<<Displacing  37/coordinate 2 (+)>>>
             <<<Displacing  38/coordinate 1 (+)>>>
             <<<Displacing  37/coordinate 3 (+)>>>
             <<<Displacing  37/coordinate 2 (-)>>>
             <<<Displacing  38/coordinate 1 (-)>>>
             <<<Displacing  37/coordinate 3 (-)>>>
             <<<Displacing  38/coordinate 3 (+)>>>
             <<<Displacing  38/coordinate 2 (+)>>>
             <<<Displacing  38/coordinate 3 (-)>>>
             <<<Displacing  38/coordinate 2 (-)>>>
             <<<Displacing  39/coordinate 1 (+)>>>
             <<<Displacing  39/coordinate 1 (-)>>>
             <<<Displacing  39/coordinate 2 (+)>>>
             <<<Displacing  39/coordinate 2 (-)>>>
             <<<Displacing  39/coordinate 3 (+)>>>
             <<<Displacing  40/coordinate 1 (+)>>>
             <<<Displacing  39/coordinate 3 (-)>>>
             <<<Displacing  40/coordinate 1 (-)>>>
             <<<Displacing  40/coordinate 3 (+)>>>
             <<<Displacing  41/coordinate 1 (+)>>>
             <<<Displacing  40/coordinate 2 (+)>>>
             <<<Displacing  40/coordinate 3 (-)>>>
             <<<Displacing  41/coordinate 1 (-)>>>
             <<<Displacing  40/coordinate 2 (-)>>>
             <<<Displacing  41/coordinate 2 (+)>>>
             <<<Displacing  41/coordinate 2 (-)>>>
             <<<Displacing  41/coordinate 3 (+)>>>
             <<<Displacing  41/coordinate 3 (-)>>>
             <<<Displacing  42/coordinate 1 (+)>>>
             <<<Displacing  42/coordinate 2 (+)>>>
             <<<Displacing  42/coordinate 2 (-)>>>
             <<<Displacing  42/coordinate 1 (-)>>>
             <<<Displacing  43/coordinate 1 (+)>>>
             <<<Displacing  42/coordinate 3 (+)>>>
             <<<Displacing  42/coordinate 3 (-)>>>
             <<<Displacing  43/coordinate 1 (-)>>>
             <<<Displacing  43/coordinate 2 (+)>>>
             <<<Displacing  43/coordinate 3 (+)>>>
             <<<Displacing  43/coordinate 2 (-)>>>
             <<<Displacing  44/coordinate 1 (+)>>>
             <<<Displacing  43/coordinate 3 (-)>>>
             <<<Displacing  44/coordinate 1 (-)>>>
             <<<Displacing  44/coordinate 2 (+)>>>
             <<<Displacing  44/coordinate 3 (+)>>>
             <<<Displacing  44/coordinate 2 (-)>>>
             <<<Displacing  44/coordinate 3 (-)>>>
             <<<Displacing  45/coordinate 2 (+)>>>
             <<<Displacing  46/coordinate 1 (+)>>>
             <<<Displacing  45/coordinate 1 (+)>>>
             <<<Displacing  45/coordinate 2 (-)>>>
             <<<Displacing  46/coordinate 1 (-)>>>
             <<<Displacing  45/coordinate 1 (-)>>>
             <<<Displacing  45/coordinate 3 (+)>>>
             <<<Displacing  45/coordinate 3 (-)>>>
             <<<Displacing  46/coordinate 2 (+)>>>
             <<<Displacing  46/coordinate 2 (-)>>>
             <<<Displacing  46/coordinate 3 (+)>>>
             <<<Displacing  46/coordinate 3 (-)>>>

-----------------------
VIBRATIONAL FREQUENCIES
-----------------------

Scaling factor for frequencies =  1.000000000 (already applied!)

   0:         0.00 cm**-1
   1:         0.00 cm**-1
   2:         0.00 cm**-1
   3:         0.00 cm**-1
   4:         0.00 cm**-1
   5:         0.00 cm**-1
   6:       -64.99 cm**-1 ***imaginary mode***
   7:        39.07 cm**-1
   8:        43.89 cm**-1
   9:        59.03 cm**-1
  10:        71.83 cm**-1
  11:        77.94 cm**-1
  12:        87.39 cm**-1
  13:        96.15 cm**-1
  14:       102.84 cm**-1
  15:       117.47 cm**-1
  16:       152.20 cm**-1
  17:       156.70 cm**-1
  18:       175.23 cm**-1
  19:       177.83 cm**-1
  20:       194.51 cm**-1
  21:       200.86 cm**-1
  22:       207.29 cm**-1
  23:       227.36 cm**-1
  24:       231.51 cm**-1
  25:       239.56 cm**-1
  26:       327.82 cm**-1
  27:       347.12 cm**-1
  28:       347.93 cm**-1
  29:       387.35 cm**-1
  30:       391.42 cm**-1
  31:       401.42 cm**-1
  32:       423.04 cm**-1
  33:       430.59 cm**-1
  34:       431.50 cm**-1
  35:       459.91 cm**-1
  36:       473.70 cm**-1
  37:       533.53 cm**-1
  38:       588.03 cm**-1
  39:       628.85 cm**-1
  40:       671.15 cm**-1
  41:       772.77 cm**-1
  42:       792.67 cm**-1
  43:       798.90 cm**-1
  44:       815.50 cm**-1
  45:       839.83 cm**-1
  46:       850.86 cm**-1
  47:       896.11 cm**-1
  48:       909.26 cm**-1
  49:       934.19 cm**-1
  50:       936.39 cm**-1
  51:       937.31 cm**-1
  52:       939.55 cm**-1
  53:       944.75 cm**-1
  54:       950.56 cm**-1
  55:       954.25 cm**-1
  56:       971.93 cm**-1
  57:       973.93 cm**-1
  58:       990.46 cm**-1
  59:      1002.65 cm**-1
  60:      1032.29 cm**-1
  61:      1045.25 cm**-1
  62:      1051.32 cm**-1
  63:      1062.42 cm**-1
  64:      1067.19 cm**-1
  65:      1072.55 cm**-1
  66:      1088.69 cm**-1
  67:      1106.97 cm**-1
  68:      1107.47 cm**-1
  69:      1134.79 cm**-1
  70:      1146.42 cm**-1
  71:      1166.16 cm**-1
  72:      1182.84 cm**-1
  73:      1195.72 cm**-1
  74:      1206.53 cm**-1
  75:      1211.45 cm**-1
  76:      1237.82 cm**-1
  77:      1249.77 cm**-1
  78:      1266.96 cm**-1
  79:      1272.46 cm**-1
  80:      1280.50 cm**-1
  81:      1281.61 cm**-1
  82:      1282.48 cm**-1
  83:      1286.71 cm**-1
  84:      1300.09 cm**-1
  85:      1316.91 cm**-1
  86:      1340.39 cm**-1
  87:      1347.63 cm**-1
  88:      1357.87 cm**-1
  89:      1374.45 cm**-1
  90:      1379.11 cm**-1
  91:      1410.34 cm**-1
  92:      1433.01 cm**-1
  93:      1433.66 cm**-1
  94:      1433.84 cm**-1
  95:      1495.58 cm**-1
  96:      1503.12 cm**-1
  97:      1505.78 cm**-1
  98:      1507.27 cm**-1
  99:      1509.17 cm**-1
 100:      1511.18 cm**-1
 101:      1511.65 cm**-1
 102:      1511.89 cm**-1
 103:      1516.27 cm**-1
 104:      1516.33 cm**-1
 105:      1523.08 cm**-1
 106:      1533.92 cm**-1
 107:      1551.85 cm**-1
 108:      1573.03 cm**-1
 109:      1583.04 cm**-1
 110:      2755.46 cm**-1
 111:      2782.76 cm**-1
 112:      2859.58 cm**-1
 113:      2860.97 cm**-1
 114:      2872.07 cm**-1
 115:      2874.49 cm**-1
 116:      2882.37 cm**-1
 117:      2886.35 cm**-1
 118:      2893.17 cm**-1
 119:      2893.60 cm**-1
 120:      2895.62 cm**-1
 121:      2899.86 cm**-1
 122:      2905.35 cm**-1
 123:      2910.08 cm**-1
 124:      2910.95 cm**-1
 125:      2914.97 cm**-1
 126:      2916.58 cm**-1
 127:      2927.54 cm**-1
 128:      2929.40 cm**-1
 129:      2982.69 cm**-1
 130:      2988.17 cm**-1
 131:      2993.75 cm**-1
 132:      3001.23 cm**-1
 133:      3007.32 cm**-1
 134:      3190.23 cm**-1
 135:      3260.79 cm**-1
 136:      3300.13 cm**-1
 137:      3301.75 cm**-1


------------
NORMAL MODES
------------

These modes are the cartesian displacements weighted by the diagonal matrix
M(i,i)=1/sqrt(m[i]) where m[i] is the mass of the displaced atom
Thus, these vectors are normalized but *not* orthogonal

                  0          1          2          3          4          5    
      0       0.000000   0.000000   0.000000   0.000000   0.000000   0.000000
      1       0.000000   0.000000   0.000000   0.000000   0.000000   0.000000
      2       0.000000   0.000000   0.000000   0.000000   0.000000   0.000000
      3       0.000000   0.000000   0.000000   0.000000   0.000000   0.000000
      4       0.000000   0.000000   0.000000   0.000000   0.000000   0.000000
      5       0.000000   0.000000   0.000000   0.000000   0.000000   0.000000
      6       0.000000   0.000000   0.000000   0.000000   0.000000   0.000000
      7       0.000000   0.000000   0.000000   0.000000   0.000000   0.000000
      8       0.000000   0.000000   0.000000   0.000000   0.000000   0.000000
      9       0.000000   0.000000   0.000000   0.000000   0.000000   0.000000
     10       0.000000   0.000000   0.000000   0.000000   0.000000   0.000000
     11       0.000000   0.000000   0.000000   0.000000   0.000000   0.000000
     12       0.000000   0.000000   0.000000   0.000000   0.000000   0.000000
     13       0.000000   0.000000   0.000000   0.000000   0.000000   0.000000
     14       0.000000   0.000000   0.000000   0.000000   0.000000   0.000000
     15       0.000000   0.000000   0.000000   0.000000   0.000000   0.000000
     16       0.000000   0.000000   0.000000   0.000000   0.000000   0.000000
     17       0.000000   0.000000   0.000000   0.000000   0.000000   0.000000
     18       0.000000   0.000000   0.000000   0.000000   0.000000   0.000000
     19       0.000000   0.000000   0.000000   0.000000   0.000000   0.000000
     20       0.000000   0.000000   0.000000   0.000000   0.000000   0.000000
     21       0.000000   0.000000   0.000000   0.000000   0.000000   0.000000
     22       0.000000   0.000000   0.000000   0.000000   0.000000   0.000000
     23       0.000000   0.000000   0.000000   0.000000   0.000000   0.000000
     24       0.000000   0.000000   0.000000   0.000000   0.000000   0.000000
     25       0.000000   0.000000   0.000000   0.000000   0.000000   0.000000
     26       0.000000   0.000000   0.000000   0.000000   0.000000   0.000000
     27       0.000000   0.000000   0.000000   0.000000   0.000000   0.000000
     28       0.000000   0.000000   0.000000   0.000000   0.000000   0.000000
     29       0.000000   0.000000   0.000000   0.000000   0.000000   0.000000
     30       0.000000   0.000000   0.000000   0.000000   0.000000   0.000000
     31       0.000000   0.000000   0.000000   0.000000   0.000000   0.000000
     32       0.000000   0.000000   0.000000   0.000000   0.000000   0.000000
     33       0.000000   0.000000   0.000000   0.000000   0.000000   0.000000
     34       0.000000   0.000000   0.000000   0.000000   0.000000   0.000000
     35       0.000000   0.000000   0.000000   0.000000   0.000000   0.000000
     36       0.000000   0.000000   0.000000   0.000000   0.000000   0.000000
     37       0.000000   0.000000   0.000000   0.000000   0.000000   0.000000
     38       0.000000   0.000000   0.000000   0.000000   0.000000   0.000000
     39       0.000000   0.000000   0.000000   0.000000   0.000000   0.000000
     40       0.000000   0.000000   0.000000   0.000000   0.000000   0.000000
     41       0.000000   0.000000   0.000000   0.000000   0.000000   0.000000
     42       0.000000   0.000000   0.000000   0.000000   0.000000   0.000000
     43       0.000000   0.000000   0.000000   0.000000   0.000000   0.000000
     44       0.000000   0.000000   0.000000   0.000000   0.000000   0.000000
     45       0.000000   0.000000   0.000000   0.000000   0.000000   0.000000
     46       0.000000   0.000000   0.000000   0.000000   0.000000   0.000000
     47       0.000000   0.000000   0.000000   0.000000   0.000000   0.000000
     48       0.000000   0.000000   0.000000   0.000000   0.000000   0.000000
     49       0.000000   0.000000   0.000000   0.000000   0.000000   0.000000
     50       0.000000   0.000000   0.000000   0.000000   0.000000   0.000000
     51       0.000000   0.000000   0.000000   0.000000   0.000000   0.000000
     52       0.000000   0.000000   0.000000   0.000000   0.000000   0.000000
     53       0.000000   0.000000   0.000000   0.000000   0.000000   0.000000
     54       0.000000   0.000000   0.000000   0.000000   0.000000   0.000000
     55       0.000000   0.000000   0.000000   0.000000   0.000000   0.000000
     56       0.000000   0.000000   0.000000   0.000000   0.000000   0.000000
     57       0.000000   0.000000   0.000000   0.000000   0.000000   0.000000
     58       0.000000   0.000000   0.000000   0.000000   0.000000   0.000000
     59       0.000000   0.000000   0.000000   0.000000   0.000000   0.000000
     60       0.000000   0.000000   0.000000   0.000000   0.000000   0.000000
     61       0.000000   0.000000   0.000000   0.000000   0.000000   0.000000
     62       0.000000   0.000000   0.000000   0.000000   0.000000   0.000000
     63       0.000000   0.000000   0.000000   0.000000   0.000000   0.000000
     64       0.000000   0.000000   0.000000   0.000000   0.000000   0.000000
     65       0.000000   0.000000   0.000000   0.000000   0.000000   0.000000
     66       0.000000   0.000000   0.000000   0.000000   0.000000   0.000000
     67       0.000000   0.000000   0.000000   0.000000   0.000000   0.000000
     68       0.000000   0.000000   0.000000   0.000000   0.000000   0.000000
     69       0.000000   0.000000   0.000000   0.000000   0.000000   0.000000
     70       0.000000   0.000000   0.000000   0.000000   0.000000   0.000000
     71       0.000000   0.000000   0.000000   0.000000   0.000000   0.000000
     72       0.000000   0.000000   0.000000   0.000000   0.000000   0.000000
     73       0.000000   0.000000   0.000000   0.000000   0.000000   0.000000
     74       0.000000   0.000000   0.000000   0.000000   0.000000   0.000000
     75       0.000000   0.000000   0.000000   0.000000   0.000000   0.000000
     76       0.000000   0.000000   0.000000   0.000000   0.000000   0.000000
     77       0.000000   0.000000   0.000000   0.000000   0.000000   0.000000
     78       0.000000   0.000000   0.000000   0.000000   0.000000   0.000000
     79       0.000000   0.000000   0.000000   0.000000   0.000000   0.000000
     80       0.000000   0.000000   0.000000   0.000000   0.000000   0.000000
     81       0.000000   0.000000   0.000000   0.000000   0.000000   0.000000
     82       0.000000   0.000000   0.000000   0.000000   0.000000   0.000000
     83       0.000000   0.000000   0.000000   0.000000   0.000000   0.000000
     84       0.000000   0.000000   0.000000   0.000000   0.000000   0.000000
     85       0.000000   0.000000   0.000000   0.000000   0.000000   0.000000
     86       0.000000   0.000000   0.000000   0.000000   0.000000   0.000000
     87       0.000000   0.000000   0.000000   0.000000   0.000000   0.000000
     88       0.000000   0.000000   0.000000   0.000000   0.000000   0.000000
     89       0.000000   0.000000   0.000000   0.000000   0.000000   0.000000
     90       0.000000   0.000000   0.000000   0.000000   0.000000   0.000000
     91       0.000000   0.000000   0.000000   0.000000   0.000000   0.000000
     92       0.000000   0.000000   0.000000   0.000000   0.000000   0.000000
     93       0.000000   0.000000   0.000000   0.000000   0.000000   0.000000
     94       0.000000   0.000000   0.000000   0.000000   0.000000   0.000000
     95       0.000000   0.000000   0.000000   0.000000   0.000000   0.000000
     96       0.000000   0.000000   0.000000   0.000000   0.000000   0.000000
     97       0.000000   0.000000   0.000000   0.000000   0.000000   0.000000
     98       0.000000   0.000000   0.000000   0.000000   0.000000   0.000000
     99       0.000000   0.000000   0.000000   0.000000   0.000000   0.000000
    100       0.000000   0.000000   0.000000   0.000000   0.000000   0.000000
    101       0.000000   0.000000   0.000000   0.000000   0.000000   0.000000
    102       0.000000   0.000000   0.000000   0.000000   0.000000   0.000000
    103       0.000000   0.000000   0.000000   0.000000   0.000000   0.000000
    104       0.000000   0.000000   0.000000   0.000000   0.000000   0.000000
    105       0.000000   0.000000   0.000000   0.000000   0.000000   0.000000
    106       0.000000   0.000000   0.000000   0.000000   0.000000   0.000000
    107       0.000000   0.000000   0.000000   0.000000   0.000000   0.000000
    108       0.000000   0.000000   0.000000   0.000000   0.000000   0.000000
    109       0.000000   0.000000   0.000000   0.000000   0.000000   0.000000
    110       0.000000   0.000000   0.000000   0.000000   0.000000   0.000000
    111       0.000000   0.000000   0.000000   0.000000   0.000000   0.000000
    112       0.000000   0.000000   0.000000   0.000000   0.000000   0.000000
    113       0.000000   0.000000   0.000000   0.000000   0.000000   0.000000
    114       0.000000   0.000000   0.000000   0.000000   0.000000   0.000000
    115       0.000000   0.000000   0.000000   0.000000   0.000000   0.000000
    116       0.000000   0.000000   0.000000   0.000000   0.000000   0.000000
    117       0.000000   0.000000   0.000000   0.000000   0.000000   0.000000
    118       0.000000   0.000000   0.000000   0.000000   0.000000   0.000000
    119       0.000000   0.000000   0.000000   0.000000   0.000000   0.000000
    120       0.000000   0.000000   0.000000   0.000000   0.000000   0.000000
    121       0.000000   0.000000   0.000000   0.000000   0.000000   0.000000
    122       0.000000   0.000000   0.000000   0.000000   0.000000   0.000000
    123       0.000000   0.000000   0.000000   0.000000   0.000000   0.000000
    124       0.000000   0.000000   0.000000   0.000000   0.000000   0.000000
    125       0.000000   0.000000   0.000000   0.000000   0.000000   0.000000
    126       0.000000   0.000000   0.000000   0.000000   0.000000   0.000000
    127       0.000000   0.000000   0.000000   0.000000   0.000000   0.000000
    128       0.000000   0.000000   0.000000   0.000000   0.000000   0.000000
    129       0.000000   0.000000   0.000000   0.000000   0.000000   0.000000
    130       0.000000   0.000000   0.000000   0.000000   0.000000   0.000000
    131       0.000000   0.000000   0.000000   0.000000   0.000000   0.000000
    132       0.000000   0.000000   0.000000   0.000000   0.000000   0.000000
    133       0.000000   0.000000   0.000000   0.000000   0.000000   0.000000
    134       0.000000   0.000000   0.000000   0.000000   0.000000   0.000000
    135       0.000000   0.000000   0.000000   0.000000   0.000000   0.000000
    136       0.000000   0.000000   0.000000   0.000000   0.000000   0.000000
    137       0.000000   0.000000   0.000000   0.000000   0.000000   0.000000
                  6          7          8          9         10         11    
      0      -0.040597  -0.010350  -0.050189  -0.095259  -0.109032   0.094469
      1       0.007013  -0.141039   0.063617  -0.015509  -0.117784  -0.020342
      2       0.010688   0.045288   0.018980   0.086628  -0.037628  -0.041165
      3      -0.089063  -0.009032  -0.037968  -0.061085  -0.034725   0.037418
      4      -0.024919  -0.118034   0.054788  -0.010619  -0.032745   0.006581
      5      -0.014512   0.052397   0.020343   0.098695   0.012248  -0.051902
      6      -0.132660  -0.003436  -0.033909  -0.033869   0.023477  -0.013825
      7      -0.054899  -0.098999   0.045500  -0.001328   0.032395   0.000634
      8      -0.018926   0.073613   0.003594   0.086224   0.049267  -0.010941
      9      -0.106294   0.002194  -0.045378  -0.045068  -0.008020  -0.002062
     10      -0.032883  -0.102848   0.043231   0.001501  -0.003523  -0.031700
     11       0.012740   0.087755  -0.014909   0.062729   0.026729   0.042269
     12      -0.054469  -0.000716  -0.056440  -0.080921  -0.085021   0.055998
     13      -0.001281  -0.127901   0.053797  -0.003937  -0.091204  -0.057507
     14       0.037454   0.079096  -0.015033   0.050340  -0.024527   0.052566
     15      -0.026242  -0.006825  -0.058628  -0.105607  -0.132108   0.103869
     16       0.013339  -0.146869   0.064279  -0.012152  -0.144112  -0.052734
     17       0.032327   0.058061   0.002190   0.063117  -0.053829   0.010648
     18      -0.099156  -0.012532  -0.031071  -0.054335  -0.018014   0.029648
     19      -0.025403  -0.115241   0.054858  -0.015925  -0.014611   0.030262
     20      -0.031838   0.042519   0.033179   0.115978   0.024475  -0.090210
     21      -0.124212   0.013912  -0.049251  -0.026931   0.031211  -0.038306
     22      -0.045251  -0.082371   0.031092   0.008657   0.043014  -0.036168
     23       0.012959   0.104647  -0.028071   0.054670   0.052708   0.072115
     24       0.006299  -0.007883  -0.067138  -0.131230  -0.183957   0.146469
     25       0.031130  -0.164313   0.071889  -0.015308  -0.202624  -0.074123
     26       0.048283   0.052443   0.001694   0.053824  -0.088432   0.018018
     27       0.328812  -0.039918  -0.040321  -0.036854   0.084230  -0.049198
     28       0.129985   0.040753   0.003528  -0.078476   0.040950   0.072561
     29       0.129689   0.034611  -0.038669  -0.209846   0.002719  -0.111664
     30       0.265032  -0.055860  -0.043390  -0.023706   0.121456  -0.045367
     31       0.083756   0.024645  -0.008823  -0.068013   0.064597   0.081093
     32       0.092448   0.038548  -0.012281  -0.204122   0.024393  -0.126512
     33       0.195629  -0.074724  -0.052873   0.013558   0.069180  -0.011874
     34       0.087300   0.066422   0.046217  -0.057526   0.012342   0.030263
     35       0.033100   0.022936  -0.029982  -0.173768  -0.019295  -0.105445
     36       0.228283  -0.090033  -0.075834  -0.039652   0.102430  -0.011095
     37       0.090810   0.075836   0.055792  -0.033307  -0.004831   0.033072
     38      -0.073383   0.020274  -0.009690  -0.142034  -0.034134  -0.121311
     39       0.118308  -0.095825  -0.059115   0.047031   0.054282   0.015092
     40       0.059755   0.058159   0.044233  -0.090933   0.034259   0.006404
     41       0.100238   0.041200  -0.024756  -0.214461   0.000521  -0.137519
     42       0.411810  -0.021380  -0.033623  -0.065204   0.095827  -0.067644
     43       0.326570   0.064843  -0.017395  -0.124391   0.009178   0.073607
     44       0.112082   0.025485  -0.049812  -0.197826  -0.015342  -0.096052
     45       0.011100   0.004873   0.029380  -0.007940   0.089702  -0.186489
     46      -0.010226   0.046749  -0.104419  -0.010788   0.114378   0.053653
     47       0.022259  -0.080162   0.106080  -0.059028   0.146003   0.147225
     48      -0.195454  -0.009181  -0.017863  -0.008545   0.104162  -0.083880
     49      -0.091558  -0.075619   0.033184  -0.011865   0.122283   0.033008
     50      -0.037978   0.078342   0.004236   0.085682   0.098470  -0.024501
     51      -0.145106   0.005034  -0.025244  -0.027854   0.107404  -0.085645
     52      -0.039526  -0.055366   0.020202  -0.036989   0.129858   0.058371
     53      -0.020218   0.075266   0.010621   0.087803   0.096261  -0.068408
     54      -0.178653  -0.024395  -0.010841  -0.011579   0.138337  -0.130874
     55      -0.078241  -0.080914   0.031415  -0.022254   0.166438   0.033098
     56      -0.022445   0.084498  -0.005184   0.071943   0.123534   0.012666
     57       0.129683  -0.064595  -0.027269   0.093518   0.024257  -0.001129
     58       0.050591   0.092815   0.083526  -0.010869  -0.018967   0.002543
     59      -0.021766  -0.011854  -0.057626  -0.115727  -0.044050  -0.027357
     60       0.087058  -0.053054  -0.006123   0.144444  -0.005003  -0.003670
     61       0.066305   0.087140   0.075296  -0.028785  -0.006260   0.004173
     62       0.023163  -0.017196  -0.077891  -0.172960  -0.022814  -0.027883
     63       0.166889  -0.047446  -0.020496   0.042669   0.043415  -0.044783
     64       0.035892   0.091480   0.081714   0.003281  -0.032494   0.015696
     65      -0.058731  -0.027296  -0.064006  -0.066871  -0.064646   0.014799
     66       0.073050  -0.093575  -0.039401   0.175370  -0.002956   0.072555
     67       0.014195   0.126734   0.131552   0.042197  -0.047774  -0.048688
     68      -0.067758  -0.018149  -0.048831  -0.048660  -0.071498   0.000701
     69       0.091807  -0.102157  -0.056626   0.136472   0.016816   0.076836
     70       0.013432   0.130559   0.137132   0.051036  -0.053686  -0.051704
     71      -0.110734  -0.012484  -0.028687   0.012845  -0.096987   0.002726
     72       0.040571  -0.110112  -0.045524   0.225293  -0.020311   0.117020
     73       0.005781   0.129778   0.135760   0.043477  -0.046338  -0.059049
     74      -0.041617  -0.002464  -0.042048  -0.092648  -0.055508  -0.042097
     75      -0.037280   0.003057  -0.063995  -0.089470  -0.104787   0.063853
     76       0.007617  -0.131066   0.053314  -0.000777  -0.113032  -0.080903
     77       0.060143   0.089486  -0.028796   0.031142  -0.039145   0.091344
     78      -0.016760  -0.013783  -0.052735  -0.112616  -0.145696   0.129776
     79       0.025819  -0.153885   0.069818  -0.022336  -0.160631  -0.017098
     80       0.013569   0.030014   0.030587   0.094325  -0.063170  -0.072017
     81       0.008560   0.001370   0.053107   0.021989   0.051179  -0.208594
     82       0.002877   0.067159  -0.095986  -0.027517   0.145372   0.079174
     83       0.008342  -0.096232   0.106912  -0.038336   0.111616   0.122574
     84      -0.000910   0.052903   0.072981  -0.003321   0.007084  -0.109176
     85      -0.007603   0.039529  -0.126509  -0.006915   0.124650   0.030604
     86      -0.002759  -0.084151   0.096107  -0.038919   0.071102   0.146249
     87       0.001708   0.060953   0.053183   0.020574  -0.051412  -0.143513
     88      -0.002768   0.030167  -0.113648  -0.023159   0.179189   0.036693
     89      -0.010162  -0.078005   0.092845  -0.034359   0.042505   0.160278
     90      -0.003736   0.059815   0.093021  -0.024430   0.036283  -0.059018
     91      -0.010254   0.019591  -0.138532  -0.000238   0.134407   0.002118
     92      -0.005094  -0.070032   0.121102  -0.063242   0.097976   0.207162
     93      -0.006174   0.081391   0.092558  -0.016883  -0.011673  -0.038204
     94      -0.012703   0.073286  -0.148399   0.020410   0.012568   0.042384
     95       0.001424  -0.107600   0.049085   0.004418   0.017719   0.033447
     96      -0.002990   0.072702   0.076462  -0.001101  -0.028825  -0.076518
     97      -0.013052   0.089736  -0.117906  -0.001401   0.036085   0.122486
     98       0.004814  -0.121662   0.023102   0.027374  -0.007101  -0.031082
     99      -0.007682   0.074009   0.104189  -0.032014   0.028915  -0.031511
    100      -0.014430   0.085088  -0.170109   0.041661  -0.054272   0.022218
    101       0.004508  -0.117491   0.068587  -0.012162   0.074242   0.054029
    102      -0.013181   0.127747   0.117384  -0.030164  -0.061207   0.077879
    103      -0.013272   0.069739  -0.182133   0.047125  -0.041071  -0.023906
    104      -0.001887  -0.097811   0.008982   0.039052  -0.078372  -0.025954
    105      -0.011932   0.135034   0.112824  -0.025788  -0.087151   0.074582
    106      -0.011601   0.057859  -0.162516   0.029621   0.020264  -0.004157
    107      -0.004658  -0.088173  -0.011812   0.057383  -0.135820  -0.047745
    108      -0.015574   0.134017   0.126936  -0.036914  -0.054144   0.111476
    109      -0.012442   0.055086  -0.213651   0.070579  -0.067822  -0.104060
    110      -0.004739  -0.086513   0.029111   0.024481  -0.062476   0.034773
    111       0.008450   0.008948   0.048359   0.007245   0.061304  -0.187117
    112      -0.000635   0.047710  -0.114247  -0.020163   0.148193   0.049445
    113       0.009166  -0.083297   0.107182  -0.055193   0.120918   0.152756
    114      -0.017261   0.151055   0.131060  -0.038149  -0.081560   0.146025
    115      -0.016462   0.100467  -0.200547   0.065177  -0.136462  -0.011197
    116       0.002611  -0.115075  -0.027445   0.066131  -0.115189  -0.133365
    117      -0.020966   0.176886   0.138939  -0.041835  -0.116371   0.207548
    118      -0.016422   0.098265  -0.210913   0.073569  -0.151396  -0.035368
    119       0.001135  -0.107763  -0.039756   0.077232  -0.151979  -0.144444
    120      -0.015051   0.146055   0.117269  -0.028074  -0.098942   0.106176
    121      -0.017327   0.112391  -0.189398   0.056829  -0.138902   0.030663
    122       0.005327  -0.125051  -0.046726   0.080284  -0.133195  -0.192654
    123      -0.018316   0.145690   0.145701  -0.049765  -0.042744   0.170332
    124      -0.017614   0.111555  -0.215162   0.078061  -0.185194  -0.022005
    125       0.004535  -0.124089  -0.020237   0.059003  -0.085024  -0.136402
    126       0.042518  -0.087939  -0.020283   0.238014  -0.031369   0.080441
    127      -0.004389   0.147166   0.160857   0.080194  -0.067747  -0.078675
    128      -0.086805  -0.050742  -0.074240  -0.008878  -0.085274   0.079701
    129       0.027405  -0.102619  -0.030281   0.262592  -0.040067   0.117316
    130      -0.017400   0.166805   0.185880   0.101996  -0.078796  -0.113705
    131      -0.101064  -0.052102  -0.070683   0.014316  -0.094718   0.088558
    132       0.023162  -0.081603  -0.004912   0.279666  -0.050553   0.080308
    133       0.001703   0.145633   0.155759   0.063469  -0.059778  -0.081322
    134      -0.068466  -0.058323  -0.087711  -0.035082  -0.074138   0.089402
    135       0.056574  -0.075936  -0.012876   0.214415  -0.022612   0.049168
    136      -0.010316   0.142498   0.160518   0.101518  -0.077603  -0.061001
    137      -0.102105  -0.063714  -0.081456   0.020434  -0.096761   0.115232
                 12         13         14         15         16         17    
      0      -0.043538  -0.002977   0.018530   0.152722  -0.004670  -0.000950
      1       0.063031  -0.022894  -0.016373   0.154831  -0.003167   0.003867
      2       0.106346  -0.006458  -0.050005   0.076918   0.003027   0.010417
      3       0.034281   0.024432   0.004563   0.139592   0.003350  -0.001095
      4       0.008465   0.028531   0.054190   0.176748   0.007826  -0.006156
      5       0.114947   0.017894  -0.032554   0.079614   0.008567   0.006799
      6       0.065062   0.020654  -0.002322  -0.016615   0.005769  -0.001268
      7      -0.038156   0.034321   0.093287   0.018371   0.009723  -0.012408
      8       0.018281   0.029090   0.030198   0.004791   0.009586  -0.001152
      9       0.011533  -0.013597   0.000430  -0.155712   0.001969  -0.002472
     10      -0.031694  -0.015043   0.055619  -0.161434   0.003262  -0.010657
     11      -0.086956   0.016001   0.073079  -0.074347   0.008417  -0.006106
     12      -0.063501  -0.039284   0.014799  -0.152681  -0.006361  -0.003378
     13       0.027273  -0.064356  -0.014831  -0.195033  -0.006863  -0.000807
     14      -0.092724  -0.007329   0.056391  -0.082991   0.003078  -0.003240
     15      -0.091122  -0.034070   0.024270   0.002066  -0.010576  -0.001737
     16       0.074623  -0.068113  -0.049513  -0.034936  -0.011445   0.006783
     17       0.004119  -0.017954  -0.004313  -0.007327   0.000262   0.005706
     18       0.071286   0.046597   0.000065   0.241063   0.005753  -0.001529
     19      -0.000331   0.060047   0.080045   0.311205   0.010274  -0.010748
     20       0.192381   0.027088  -0.066421   0.135224   0.010368   0.010313
     21       0.027406  -0.019662  -0.012386  -0.253809   0.003111  -0.002836
     22      -0.072112  -0.013008   0.079658  -0.265459   0.005269  -0.015776
     23      -0.158441   0.025147   0.120363  -0.124929   0.010177  -0.013228
     24      -0.147630  -0.053097   0.035528   0.006080  -0.017465  -0.001202
     25       0.118409  -0.104391  -0.100824  -0.056958  -0.020648   0.014079
     26      -0.000926  -0.035174  -0.016237  -0.012616  -0.004778   0.008087
     27       0.076474  -0.017661   0.070517   0.000504  -0.080724  -0.086555
     28       0.035138   0.253960  -0.133860  -0.052604  -0.034564  -0.035163
     29       0.007727  -0.062018   0.074281   0.012796  -0.075923  -0.084387
     30       0.058443  -0.049355   0.069908   0.013600  -0.092179  -0.066692
     31       0.014672   0.256901  -0.146253  -0.044787  -0.033961  -0.022640
     32       0.010130  -0.129897   0.096465   0.022699  -0.096358  -0.070915
     33       0.040527   0.003864   0.081625  -0.003647   0.071913   0.053320
     34       0.026731   0.161879  -0.079666  -0.048449   0.036998   0.034718
     35      -0.018061  -0.081031   0.100127   0.011585   0.044488   0.026333
     36       0.055473   0.035005   0.093300   0.001434   0.037675   0.016395
     37       0.022274   0.154851  -0.097288  -0.052525   0.033859   0.034657
     38      -0.040759  -0.137233   0.155696   0.016898   0.163857   0.137190
     39       0.016435   0.019867   0.081943  -0.007772   0.164362   0.139640
     40       0.027892   0.134146  -0.021378  -0.036643   0.069451   0.058424
     41       0.005301  -0.102958   0.114670   0.018516  -0.035956  -0.050795
     42       0.094463  -0.032031   0.058346   0.003719  -0.173945  -0.166318
     43       0.064078   0.314841  -0.175030  -0.065476  -0.116365  -0.144452
     44      -0.000109  -0.034929   0.073591   0.006950  -0.018992  -0.045601
     45      -0.153457  -0.012215  -0.108271   0.028741  -0.031455   0.002033
     46      -0.037031  -0.118925  -0.139092   0.030600  -0.017896   0.052564
     47       0.031225  -0.098174  -0.097983   0.010399  -0.104762   0.118843
     48       0.154613   0.039278  -0.011130  -0.032086  -0.003100  -0.009395
     49      -0.098634   0.072436   0.157847   0.041504   0.005300  -0.017265
     50       0.027646   0.046078   0.046463   0.006343   0.001609  -0.009014
     51       0.182768   0.067625  -0.036865  -0.018154  -0.008551  -0.018380
     52      -0.114692   0.105624   0.156345   0.067178   0.003574  -0.022915
     53       0.109011   0.054851   0.000148  -0.003383  -0.005549  -0.018890
     54       0.197191   0.018889  -0.005319  -0.056787  -0.034197  -0.031044
     55      -0.132865   0.057146   0.203923   0.036341  -0.019149  -0.030382
     56      -0.043502   0.041719   0.093099   0.018034  -0.006419  -0.009084
     57       0.012197  -0.032835   0.069094  -0.009164   0.135728   0.119823
     58       0.012445   0.084905  -0.054839  -0.044145   0.070492   0.069167
     59      -0.046541   0.010255   0.018616  -0.009090   0.100472   0.086522
     60      -0.005745  -0.071451   0.069762  -0.009345   0.177793   0.162678
     61       0.016398   0.093608  -0.051765  -0.041180   0.026317   0.027117
     62      -0.015621   0.073922   0.003107  -0.021901   0.180928   0.155562
     63       0.040864  -0.055195   0.107763  -0.003977   0.176109   0.149431
     64       0.013553   0.113894  -0.080324  -0.056423   0.164821   0.157907
     65      -0.071503   0.038196  -0.023110  -0.017155   0.090587   0.084761
     66      -0.032959   0.007377   0.002107  -0.018001   0.051065   0.055636
     67      -0.012819  -0.059563   0.015471  -0.019107   0.023463   0.024825
     68      -0.083388  -0.012173  -0.001057  -0.006435   0.031073   0.030813
     69      -0.013078   0.057409  -0.002152  -0.028233   0.144796   0.146056
     70      -0.017015  -0.074809   0.014378  -0.015354  -0.022680  -0.021763
     71      -0.116284  -0.075273   0.014203   0.003910  -0.015263  -0.005192
     72      -0.060917   0.031136  -0.040676  -0.023493  -0.010692   0.007350
     73      -0.014275  -0.079508   0.041210  -0.016750   0.087325   0.089603
     74      -0.058874  -0.039473   0.044809  -0.000817   0.104887   0.092960
     75      -0.100055  -0.062370   0.017897  -0.258989  -0.010398  -0.004809
     76       0.035508  -0.097667  -0.040769  -0.331923  -0.011412   0.001301
     77      -0.170044  -0.016528   0.088951  -0.142401   0.000297  -0.008116
     78      -0.065344   0.000248   0.024610   0.267840  -0.006499   0.000000
     79       0.095987  -0.027694  -0.044438   0.273658  -0.006536   0.008507
     80       0.176627  -0.016756  -0.097186   0.134440   0.000089   0.016385
     81      -0.264292   0.025570  -0.228340   0.062737   0.054357  -0.033038
     82      -0.043238  -0.123575  -0.121377   0.038866  -0.078925   0.109810
     83       0.009447  -0.080310  -0.137586   0.008557  -0.034571   0.063721
     84      -0.145370   0.025375  -0.113624   0.043605   0.004302   0.005441
     85      -0.026212  -0.129344  -0.136410   0.026562  -0.014329   0.036306
     86       0.090109  -0.084399  -0.073451  -0.011984  -0.020684   0.034862
     87      -0.162029   0.073745  -0.100921   0.053882   0.124123  -0.131805
     88      -0.047154  -0.151958  -0.150473   0.028054  -0.084605   0.112126
     89       0.126254  -0.086951  -0.062337  -0.020431  -0.012203   0.029833
     90      -0.109776  -0.008543  -0.103421   0.033878  -0.089858   0.112945
     91      -0.032007  -0.143873  -0.162378   0.020773  -0.015479   0.040224
     92       0.128787  -0.114492  -0.054208  -0.020187  -0.118509   0.145560
     93      -0.080946   0.018497  -0.065899   0.034662  -0.037546   0.050401
     94       0.033597  -0.076072  -0.067725   0.025417   0.110359  -0.110514
     95       0.022100  -0.028709  -0.106420   0.001882   0.145768  -0.152249
     96      -0.113572   0.034342  -0.091710   0.042267   0.086070  -0.084474
     97       0.063497  -0.115160  -0.080379   0.021323   0.217982  -0.221559
     98      -0.021142  -0.000198  -0.128943   0.011062   0.238719  -0.255546
     99      -0.079169   0.000137  -0.062132   0.029982  -0.207060   0.237569
    100       0.058123  -0.033127  -0.021317   0.024424   0.132003  -0.145244
    101      -0.009142  -0.069310  -0.164740   0.006067   0.224669  -0.226395
    102       0.035470   0.017414   0.024771   0.015940  -0.013149   0.010103
    103       0.027849  -0.024356  -0.029054   0.027852   0.036277  -0.040756
    104       0.051102   0.049051  -0.019749  -0.001448   0.044678  -0.062565
    105       0.043714   0.041606   0.058110   0.011944  -0.068339   0.071918
    106      -0.001492  -0.071769  -0.095275   0.033061   0.109851  -0.109117
    107       0.081300   0.090967   0.039367  -0.005244  -0.010033  -0.018364
    108       0.061743  -0.001562   0.025938   0.013294   0.035225  -0.049341
    109      -0.006018   0.013472  -0.026216   0.035225  -0.021870   0.016846
    110       0.089301   0.017230  -0.019415  -0.006549   0.113094  -0.142143
    111      -0.212186   0.008634  -0.170924   0.050262   0.013925  -0.010626
    112      -0.032986  -0.131549  -0.125143   0.030445  -0.057477   0.078179
    113       0.059926  -0.094869  -0.078290  -0.001974  -0.081326   0.094848
    114       0.104654   0.008801   0.073464   0.004705   0.019313  -0.038315
    115       0.104979   0.038898   0.096155   0.013265  -0.074774   0.060250
    116      -0.010200   0.112561  -0.009248   0.006288  -0.094289   0.096077
    117       0.179253   0.012683   0.140498  -0.008067   0.021784  -0.055964
[...]
  13:        96.15    0.000000  (  0.000000   0.000000   0.000000)
  14:       102.84    0.000000  (  0.000000   0.000000   0.000000)
  15:       117.47    0.000000  (  0.000000   0.000000   0.000000)
  16:       152.20    0.000000  (  0.000000   0.000000   0.000000)
  17:       156.70    0.000000  (  0.000000   0.000000   0.000000)
  18:       175.23    0.000000  (  0.000000   0.000000   0.000000)
  19:       177.83    0.000000  (  0.000000   0.000000   0.000000)
  20:       194.51    0.000000  (  0.000000   0.000000   0.000000)
  21:       200.86    0.000000  (  0.000000   0.000000   0.000000)
  22:       207.29    0.000000  (  0.000000   0.000000   0.000000)
  23:       227.36    0.000000  (  0.000000   0.000000   0.000000)
  24:       231.51    0.000000  (  0.000000   0.000000   0.000000)
  25:       239.56    0.000000  (  0.000000   0.000000   0.000000)
  26:       327.82    0.000000  (  0.000000   0.000000   0.000000)
  27:       347.12    0.000000  (  0.000000   0.000000   0.000000)
  28:       347.93    0.000000  (  0.000000   0.000000   0.000000)
  29:       387.35    0.000000  (  0.000000   0.000000   0.000000)
  30:       391.42    0.000000  (  0.000000   0.000000   0.000000)
  31:       401.42    0.000000  (  0.000000   0.000000   0.000000)
  32:       423.04    0.000000  (  0.000000   0.000000   0.000000)
  33:       430.59    0.000000  (  0.000000   0.000000   0.000000)
  34:       431.50    0.000000  (  0.000000   0.000000   0.000000)
  35:       459.91    0.000000  (  0.000000   0.000000   0.000000)
  36:       473.70    0.000000  (  0.000000   0.000000   0.000000)
  37:       533.53    0.000000  (  0.000000   0.000000   0.000000)
  38:       588.03    0.000000  (  0.000000   0.000000   0.000000)
  39:       628.85    0.000000  (  0.000000   0.000000   0.000000)
  40:       671.15    0.000000  (  0.000000   0.000000   0.000000)
  41:       772.77    0.000000  (  0.000000   0.000000   0.000000)
  42:       792.67    0.000000  (  0.000000   0.000000   0.000000)
  43:       798.90    0.000000  (  0.000000   0.000000   0.000000)
  44:       815.50    0.000000  (  0.000000   0.000000   0.000000)
  45:       839.83    0.000000  (  0.000000   0.000000   0.000000)
  46:       850.86    0.000000  (  0.000000   0.000000   0.000000)
  47:       896.11    0.000000  (  0.000000   0.000000   0.000000)
  48:       909.26    0.000000  (  0.000000   0.000000   0.000000)
  49:       934.19    0.000000  (  0.000000   0.000000   0.000000)
  50:       936.39    0.000000  (  0.000000   0.000000   0.000000)
  51:       937.31    0.000000  (  0.000000   0.000000   0.000000)
  52:       939.55    0.000000  (  0.000000   0.000000   0.000000)
  53:       944.75    0.000000  (  0.000000   0.000000   0.000000)
  54:       950.56    0.000000  (  0.000000   0.000000   0.000000)
  55:       954.25    0.000000  (  0.000000   0.000000   0.000000)
  56:       971.93    0.000000  (  0.000000   0.000000   0.000000)
  57:       973.93    0.000000  (  0.000000   0.000000   0.000000)
  58:       990.46    0.000000  (  0.000000   0.000000   0.000000)
  59:      1002.65    0.000000  (  0.000000   0.000000   0.000000)
  60:      1032.29    0.000000  (  0.000000   0.000000   0.000000)
  61:      1045.25    0.000000  (  0.000000   0.000000   0.000000)
  62:      1051.32    0.000000  (  0.000000   0.000000   0.000000)
  63:      1062.42    0.000000  (  0.000000   0.000000   0.000000)
  64:      1067.19    0.000000  (  0.000000   0.000000   0.000000)
  65:      1072.55    0.000000  (  0.000000   0.000000   0.000000)
  66:      1088.69    0.000000  (  0.000000   0.000000   0.000000)
  67:      1106.97    0.000000  (  0.000000   0.000000   0.000000)
  68:      1107.47    0.000000  (  0.000000   0.000000   0.000000)
  69:      1134.79    0.000000  (  0.000000   0.000000   0.000000)
  70:      1146.42    0.000000  (  0.000000   0.000000   0.000000)
  71:      1166.16    0.000000  (  0.000000   0.000000   0.000000)
  72:      1182.84    0.000000  (  0.000000   0.000000   0.000000)
  73:      1195.72    0.000000  (  0.000000   0.000000   0.000000)
  74:      1206.53    0.000000  (  0.000000   0.000000   0.000000)
  75:      1211.45    0.000000  (  0.000000   0.000000   0.000000)
  76:      1237.82    0.000000  (  0.000000   0.000000   0.000000)
  77:      1249.77    0.000000  (  0.000000   0.000000   0.000000)
  78:      1266.96    0.000000  (  0.000000   0.000000   0.000000)
  79:      1272.46    0.000000  (  0.000000   0.000000   0.000000)
  80:      1280.50    0.000000  (  0.000000   0.000000   0.000000)
  81:      1281.61    0.000000  (  0.000000   0.000000   0.000000)
  82:      1282.48    0.000000  (  0.000000   0.000000   0.000000)
  83:      1286.71    0.000000  (  0.000000   0.000000   0.000000)
  84:      1300.09    0.000000  (  0.000000   0.000000   0.000000)
  85:      1316.91    0.000000  (  0.000000   0.000000   0.000000)
  86:      1340.39    0.000000  (  0.000000   0.000000   0.000000)
  87:      1347.63    0.000000  (  0.000000   0.000000   0.000000)
  88:      1357.87    0.000000  (  0.000000   0.000000   0.000000)
  89:      1374.45    0.000000  (  0.000000   0.000000   0.000000)
  90:      1379.11    0.000000  (  0.000000   0.000000   0.000000)
  91:      1410.34    0.000000  (  0.000000   0.000000   0.000000)
  92:      1433.01    0.000000  (  0.000000   0.000000   0.000000)
  93:      1433.66    0.000000  (  0.000000   0.000000   0.000000)
  94:      1433.84    0.000000  (  0.000000   0.000000   0.000000)
  95:      1495.58    0.000000  (  0.000000   0.000000   0.000000)
  96:      1503.12    0.000000  (  0.000000   0.000000   0.000000)
  97:      1505.78    0.000000  (  0.000000   0.000000   0.000000)
  98:      1507.27    0.000000  (  0.000000   0.000000   0.000000)
  99:      1509.17    0.000000  (  0.000000   0.000000   0.000000)
 100:      1511.18    0.000000  (  0.000000   0.000000   0.000000)
 101:      1511.65    0.000000  (  0.000000   0.000000   0.000000)
 102:      1511.89    0.000000  (  0.000000   0.000000   0.000000)
 103:      1516.27    0.000000  (  0.000000   0.000000   0.000000)
 104:      1516.33    0.000000  (  0.000000   0.000000   0.000000)
 105:      1523.08    0.000000  (  0.000000   0.000000   0.000000)
 106:      1533.92    0.000000  (  0.000000   0.000000   0.000000)
 107:      1551.85    0.000000  (  0.000000   0.000000   0.000000)
 108:      1573.03    0.000000  (  0.000000   0.000000   0.000000)
 109:      1583.04    0.000000  (  0.000000   0.000000   0.000000)
 110:      2755.46    0.000000  (  0.000000   0.000000   0.000000)
 111:      2782.76    0.000000  (  0.000000   0.000000   0.000000)
 112:      2859.58    0.000000  (  0.000000   0.000000   0.000000)
 113:      2860.97    0.000000  (  0.000000   0.000000   0.000000)
 114:      2872.07    0.000000  (  0.000000   0.000000   0.000000)
 115:      2874.49    0.000000  (  0.000000   0.000000   0.000000)
 116:      2882.37    0.000000  (  0.000000   0.000000   0.000000)
 117:      2886.35    0.000000  (  0.000000   0.000000   0.000000)
 118:      2893.17    0.000000  (  0.000000   0.000000   0.000000)
 119:      2893.60    0.000000  (  0.000000   0.000000   0.000000)
 120:      2895.62    0.000000  (  0.000000   0.000000   0.000000)
 121:      2899.86    0.000000  (  0.000000   0.000000   0.000000)
 122:      2905.35    0.000000  (  0.000000   0.000000   0.000000)
 123:      2910.08    0.000000  (  0.000000   0.000000   0.000000)
 124:      2910.95    0.000000  (  0.000000   0.000000   0.000000)
 125:      2914.97    0.000000  (  0.000000   0.000000   0.000000)
 126:      2916.58    0.000000  (  0.000000   0.000000   0.000000)
 127:      2927.54    0.000000  (  0.000000   0.000000   0.000000)
 128:      2929.40    0.000000  (  0.000000   0.000000   0.000000)
 129:      2982.69    0.000000  (  0.000000   0.000000   0.000000)
 130:      2988.17    0.000000  (  0.000000   0.000000   0.000000)
 131:      2993.75    0.000000  (  0.000000   0.000000   0.000000)
 132:      3001.23    0.000000  (  0.000000   0.000000   0.000000)
 133:      3007.32    0.000000  (  0.000000   0.000000   0.000000)
 134:      3190.23    0.000000  (  0.000000   0.000000   0.000000)
 135:      3260.79    0.000000  (  0.000000   0.000000   0.000000)
 136:      3300.13    0.000000  (  0.000000   0.000000   0.000000)
 137:      3301.75    0.000000  (  0.000000   0.000000   0.000000)

The first frequency considered to be a vibration is 7
The total number of vibrations considered is 131


--------------------------
THERMOCHEMISTRY AT 298.15K
--------------------------

Temperature         ... 298.15 K
Pressure            ... 1.00 atm
Total Mass          ... 252.40 AMU

Throughout the following assumptions are being made:
  (1) The electronic state is orbitally nondegenerate
  (2) There are no thermally accessible electronically excited states
  (3) Hindered rotations indicated by low frequency modes are not
      treated as such but are treated as vibrations and this may
      cause some error
  (4) All equations used are the standard statistical mechanics
      equations for an ideal gas
  (5) All vibrations are strictly harmonic

freq.      39.07  E(vib)   ...       0.54 
freq.      43.89  E(vib)   ...       0.53 
freq.      59.03  E(vib)   ...       0.51 
freq.      71.83  E(vib)   ...       0.50 
freq.      77.94  E(vib)   ...       0.49 
freq.      87.39  E(vib)   ...       0.48 
freq.      96.15  E(vib)   ...       0.47 
freq.     102.84  E(vib)   ...       0.46 
freq.     117.47  E(vib)   ...       0.44 
freq.     152.20  E(vib)   ...       0.40 
freq.     156.70  E(vib)   ...       0.40 
freq.     175.23  E(vib)   ...       0.38 
freq.     177.83  E(vib)   ...       0.37 
freq.     194.51  E(vib)   ...       0.36 
freq.     200.86  E(vib)   ...       0.35 
freq.     207.29  E(vib)   ...       0.34 
freq.     227.36  E(vib)   ...       0.33 
freq.     231.51  E(vib)   ...       0.32 
freq.     239.56  E(vib)   ...       0.31 
freq.     327.82  E(vib)   ...       0.24 
freq.     347.12  E(vib)   ...       0.23 
freq.     347.93  E(vib)   ...       0.23 
freq.     387.35  E(vib)   ...       0.20 
freq.     391.42  E(vib)   ...       0.20 
freq.     401.42  E(vib)   ...       0.19 
freq.     423.04  E(vib)   ...       0.18 
freq.     430.59  E(vib)   ...       0.18 
freq.     431.50  E(vib)   ...       0.18 
freq.     459.91  E(vib)   ...       0.16 
freq.     473.70  E(vib)   ...       0.15 
freq.     533.53  E(vib)   ...       0.13 
freq.     588.03  E(vib)   ...       0.10 
freq.     628.85  E(vib)   ...       0.09 
freq.     671.15  E(vib)   ...       0.08 
freq.     772.77  E(vib)   ...       0.05 
freq.     792.67  E(vib)   ...       0.05 
freq.     798.90  E(vib)   ...       0.05 
freq.     815.50  E(vib)   ...       0.05 
freq.     839.83  E(vib)   ...       0.04 
freq.     850.86  E(vib)   ...       0.04 
freq.     896.11  E(vib)   ...       0.03 
freq.     909.26  E(vib)   ...       0.03 
freq.     934.19  E(vib)   ...       0.03 
freq.     936.39  E(vib)   ...       0.03 
freq.     937.31  E(vib)   ...       0.03 
freq.     939.55  E(vib)   ...       0.03 
freq.     944.75  E(vib)   ...       0.03 
freq.     950.56  E(vib)   ...       0.03 
freq.     954.25  E(vib)   ...       0.03 
freq.     971.93  E(vib)   ...       0.03 
freq.     973.93  E(vib)   ...       0.03 
freq.     990.46  E(vib)   ...       0.02 
freq.    1002.65  E(vib)   ...       0.02 
freq.    1032.29  E(vib)   ...       0.02 
freq.    1045.25  E(vib)   ...       0.02 
freq.    1051.32  E(vib)   ...       0.02 
freq.    1062.42  E(vib)   ...       0.02 
freq.    1067.19  E(vib)   ...       0.02 
freq.    1072.55  E(vib)   ...       0.02 
freq.    1088.69  E(vib)   ...       0.02 
freq.    1106.97  E(vib)   ...       0.02 
freq.    1107.47  E(vib)   ...       0.02 
freq.    1134.79  E(vib)   ...       0.01 
freq.    1146.42  E(vib)   ...       0.01 
freq.    1166.16  E(vib)   ...       0.01 
freq.    1182.84  E(vib)   ...       0.01 
freq.    1195.72  E(vib)   ...       0.01 
freq.    1206.53  E(vib)   ...       0.01 
freq.    1211.45  E(vib)   ...       0.01 
freq.    1237.82  E(vib)   ...       0.01 
freq.    1249.77  E(vib)   ...       0.01 
freq.    1266.96  E(vib)   ...       0.01 
freq.    1272.46  E(vib)   ...       0.01 
freq.    1280.50  E(vib)   ...       0.01 
freq.    1281.61  E(vib)   ...       0.01 
freq.    1282.48  E(vib)   ...       0.01 
freq.    1286.71  E(vib)   ...       0.01 
freq.    1300.09  E(vib)   ...       0.01 
freq.    1316.91  E(vib)   ...       0.01 
freq.    1340.39  E(vib)   ...       0.01 
freq.    1347.63  E(vib)   ...       0.01 
freq.    1357.87  E(vib)   ...       0.01 
freq.    1374.45  E(vib)   ...       0.01 
freq.    1379.11  E(vib)   ...       0.01 
freq.    1410.34  E(vib)   ...       0.00 
freq.    1433.01  E(vib)   ...       0.00 
freq.    1433.66  E(vib)   ...       0.00 
freq.    1433.84  E(vib)   ...       0.00 
freq.    1495.58  E(vib)   ...       0.00 
freq.    1503.12  E(vib)   ...       0.00 
freq.    1505.78  E(vib)   ...       0.00 
freq.    1507.27  E(vib)   ...       0.00 
freq.    1509.17  E(vib)   ...       0.00 
freq.    1511.18  E(vib)   ...       0.00 
freq.    1511.65  E(vib)   ...       0.00 
freq.    1511.89  E(vib)   ...       0.00 
freq.    1516.27  E(vib)   ...       0.00 
freq.    1516.33  E(vib)   ...       0.00 
freq.    1523.08  E(vib)   ...       0.00 
freq.    1533.92  E(vib)   ...       0.00 
freq.    1551.85  E(vib)   ...       0.00 
freq.    1573.03  E(vib)   ...       0.00 
freq.    1583.04  E(vib)   ...       0.00 
freq.    2755.46  E(vib)   ...       0.00 
freq.    2782.76  E(vib)   ...       0.00 
freq.    2859.58  E(vib)   ...       0.00 
freq.    2860.97  E(vib)   ...       0.00 
freq.    2872.07  E(vib)   ...       0.00 
freq.    2874.49  E(vib)   ...       0.00 
freq.    2882.37  E(vib)   ...       0.00 
freq.    2886.35  E(vib)   ...       0.00 
freq.    2893.17  E(vib)   ...       0.00 
freq.    2893.60  E(vib)   ...       0.00 
freq.    2895.62  E(vib)   ...       0.00 
freq.    2899.86  E(vib)   ...       0.00 
freq.    2905.35  E(vib)   ...       0.00 
freq.    2910.08  E(vib)   ...       0.00 
freq.    2910.95  E(vib)   ...       0.00 
freq.    2914.97  E(vib)   ...       0.00 
freq.    2916.58  E(vib)   ...       0.00 
freq.    2927.54  E(vib)   ...       0.00 
freq.    2929.40  E(vib)   ...       0.00 
freq.    2982.69  E(vib)   ...       0.00 
freq.    2988.17  E(vib)   ...       0.00 
freq.    2993.75  E(vib)   ...       0.00 
freq.    3001.23  E(vib)   ...       0.00 
freq.    3007.32  E(vib)   ...       0.00 
freq.    3190.23  E(vib)   ...       0.00 
freq.    3260.79  E(vib)   ...       0.00 
freq.    3300.13  E(vib)   ...       0.00 
freq.    3301.75  E(vib)   ...       0.00 

------------
INNER ENERGY
------------

The inner energy is: U= E(el) + E(ZPE) + E(vib) + E(rot) + E(trans)
    E(el)   - is the total energy from the electronic structure calculation
              = E(kin-el) + E(nuc-el) + E(el-el) + E(nuc-nuc)
    E(ZPE)  - the the zero temperature vibrational energy from the frequency calculation
    E(vib)  - the the finite temperature correction to E(ZPE) due to population
              of excited vibrational states
    E(rot)  - is the rotational thermal energy
    E(trans)- is the translational thermal energy

Summary of contributions to the inner energy U:
Electronic energy                ...    -56.27749772 Eh
Zero point energy                ...      0.39988208 Eh     250.93 kcal/mol
Thermal vibrational correction   ...      0.01843003 Eh      11.56 kcal/mol
Thermal rotational correction    ...      0.00141627 Eh       0.89 kcal/mol
Thermal translational correction ...      0.00141627 Eh       0.89 kcal/mol
-----------------------------------------------------------------------
Total thermal energy                    -55.85635307 Eh


Summary of corrections to the electronic energy:
(perhaps to be used in another calculation)
Total thermal correction                  0.02126257 Eh      13.34 kcal/mol
Non-thermal (ZPE) correction              0.39988208 Eh     250.93 kcal/mol
-----------------------------------------------------------------------
Total correction                          0.42114464 Eh     264.27 kcal/mol


--------
ENTHALPY
--------

The enthalpy is H = U + kB*T
                kB is Boltzmann's constant
Total free energy                 ...    -55.85635307 Eh 
Thermal Enthalpy correction       ...      0.00094421 Eh       0.59 kcal/mol
-----------------------------------------------------------------------
Total Enthalpy                    ...    -55.85540887 Eh


Note: Only C1 symmetry has been detected, increase convergence thresholds 
      if your molecule has a higher symmetry. Symmetry factor of 1.0 is   
      used for the rotational entropy correction. 
 

Note: Rotational entropy computed according to Herzberg 
Infrared and Raman Spectra, Chapter V,1, Van Nostrand Reinhold, 1945 
Point Group:  C1, Symmetry Number:   1  
Rotational constants in cm-1:     0.009227     0.007345     0.004438 

Vibrational entropy computed according to the QRRHO of S. Grimme
Chem.Eur.J. 2012 18 9955


-------
ENTROPY
-------

The entropy contributions are T*S = T*(S(el)+S(vib)+S(rot)+S(trans))
     S(el)   - electronic entropy
     S(vib)  - vibrational entropy
     S(rot)  - rotational entropy
     S(trans)- translational entropy
The entropies will be listed as mutliplied by the temperature to get
units of energy

Electronic entropy                ...      0.00000000 Eh      0.00 kcal/mol
Vibrational entropy               ...      0.03276420 Eh     20.56 kcal/mol
Rotational entropy                ...      0.01660009 Eh     10.42 kcal/mol
Translational entropy             ...      0.02018250 Eh     12.66 kcal/mol
-----------------------------------------------------------------------
Final entropy term                ...      0.06954679 Eh     43.64 kcal/mol

In case the symmetry of your molecule has not been determined correctly
or in case you have a reason to use a different symmetry number we print 
out the resulting rotational entropy values for sn=1,12 :
 --------------------------------------------------------
|  sn= 1 | S(rot)=       0.01660009 Eh     10.42 kcal/mol|
|  sn= 2 | S(rot)=       0.01594564 Eh     10.01 kcal/mol|
|  sn= 3 | S(rot)=       0.01556281 Eh      9.77 kcal/mol|
|  sn= 4 | S(rot)=       0.01529118 Eh      9.60 kcal/mol|
|  sn= 5 | S(rot)=       0.01508049 Eh      9.46 kcal/mol|
|  sn= 6 | S(rot)=       0.01490835 Eh      9.36 kcal/mol|
|  sn= 7 | S(rot)=       0.01476280 Eh      9.26 kcal/mol|
|  sn= 8 | S(rot)=       0.01463672 Eh      9.18 kcal/mol|
|  sn= 9 | S(rot)=       0.01452552 Eh      9.11 kcal/mol|
|  sn=10 | S(rot)=       0.01442604 Eh      9.05 kcal/mol|
|  sn=11 | S(rot)=       0.01433605 Eh      9.00 kcal/mol|
|  sn=12 | S(rot)=       0.01425389 Eh      8.94 kcal/mol|
 --------------------------------------------------------


-------------------
GIBBS FREE ENERGY
-------------------

The Gibbs free energy is G = H - T*S

Total enthalpy                    ...    -55.85540887 Eh 
Total entropy correction          ...     -0.06954679 Eh    -43.64 kcal/mol
-----------------------------------------------------------------------
Final Gibbs free energy         ...    -55.92495566 Eh

For completeness - the Gibbs free energy minus the electronic energy
G-E(el)                           ...      0.35254206 Eh    221.22 kcal/mol


Total Time for Numerical Frequencies  :       176.508 sec
Time for Reference State(s)           :         0.201 sec
Time for Displacements                :       160.433 sec

Timings for individual modules:

Sum of individual times         ...        0.480 sec (=   0.008 min)
XTB module                      ...        0.480 sec (=   0.008 min) 100.0 %
                             ****ORCA TERMINATED NORMALLY****
TOTAL RUN TIME: 0 days 0 hours 2 minutes 57 seconds 775 msec
(SLURM) EXECUTION TIME: 177.795343524 seconds.
