
                                 *****************
                                 * O   R   C   A *
                                 *****************

           --- An Ab Initio, DFT and Semiempirical electronic structure package ---

                  #######################################################
                  #                        -***-                        #
                  #          Department of theory and spectroscopy      #
                  #               Directorship: Frank Neese             #
                  #        Max Planck Institute fuer Kohlenforschung    #
                  #                Kaiser Wilhelm Platz 1               #
                  #                 D-45470 Muelheim/Ruhr               #
                  #                      Germany                        #
                  #                                                     #
                  #                  All rights reserved                #
                  #                        -***-                        #
                  #######################################################


                         Program Version 4.2.1 -  RELEASE  -


 With contributions from (in alphabetic order):
   Daniel Aravena         : Magnetic Suceptibility
   Michael Atanasov       : Ab Initio Ligand Field Theory (pilot matlab implementation)
   Alexander A. Auer      : GIAO ZORA, VPT2
   Ute Becker             : Parallelization
   Giovanni Bistoni       : ED, misc. LED, open-shell LED, HFLD
   Martin Brehm           : Molecular dynamics
   Dmytro Bykov           : SCF Hessian
   Vijay G. Chilkuri      : MRCI spin determinant printing, contributions to CSF-ICE
   Dipayan Datta          : RHF DLPNO-CCSD density
   Achintya Kumar Dutta   : EOM-CC, STEOM-CC
   Dmitry Ganyushin       : Spin-Orbit,Spin-Spin,Magnetic field MRCI
   Miquel Garcia          : C-PCM Hessian, Gaussian charge scheme
   Yang Guo               : DLPNO-NEVPT2, CIM, IAO-localization
   Andreas Hansen         : Spin unrestricted coupled pair/coupled cluster methods
   Benjamin Helmich-Paris : CASSCF linear response (MC-RPA)
   Lee Huntington         : MR-EOM, pCC
   Robert Izsak           : Overlap fitted RIJCOSX, COSX-SCS-MP3, EOM
   Christian Kollmar      : KDIIS, OOCD, Brueckner-CCSD(T), CCSD density
   Simone Kossmann        : Meta GGA functionals, TD-DFT gradient, OOMP2, MP2 Hessian
   Martin Krupicka        : AUTO-CI
   Lucas Lang             : DCDCAS
   Dagmar Lenk            : GEPOL surface, SMD
   Dimitrios Liakos       : Extrapolation schemes; Compound Job, initial MDCI parallelization
   Dimitrios Manganas     : Further ROCIS development; embedding schemes
   Dimitrios Pantazis     : SARC Basis sets
   Taras Petrenko         : DFT Hessian,TD-DFT gradient, ASA, ECA, R-Raman, ABS, FL, XAS/XES, NRVS
   Peter Pinski           : DLPNO-MP2, DLPNO-MP2 Gradient
   Christoph Reimann      : Effective Core Potentials
   Marius Retegan         : Local ZFS, SOC
   Christoph Riplinger    : Optimizer, TS searches, QM/MM, DLPNO-CCSD(T), (RO)-DLPNO pert. Triples
   Tobias Risthaus        : Range-separated hybrids, TD-DFT gradient, RPA, STAB
   Michael Roemelt        : Original ROCIS implementation
   Masaaki Saitow         : Open-shell DLPNO-CCSD energy and density
   Barbara Sandhoefer     : DKH picture change effects
   Avijit Sen             : IP-ROCIS
   Kantharuban Sivalingam : CASSCF convergence, NEVPT2, FIC-MRCI
   Bernardo de Souza      : ESD, SOC TD-DFT
   Georgi Stoychev        : AutoAux, RI-MP2 NMR
   Willem Van den Heuvel  : Paramagnetic NMR
   Boris Wezisla          : Elementary symmetry handling
   Frank Wennmohs         : Technical directorship


 We gratefully acknowledge several colleagues who have allowed us to
 interface, adapt or use parts of their codes:
   Stefan Grimme, W. Hujo, H. Kruse,             : VdW corrections, initial TS optimization,
                  C. Bannwarth                     DFT functionals, gCP, sTDA/sTD-DF
   Ed Valeev, F. Pavosevic, A. Kumar             : LibInt (2-el integral package), F12 methods
   Garnet Chan, S. Sharma, J. Yang, R. Olivares  : DMRG
   Ulf Ekstrom                                   : XCFun DFT Library
   Mihaly Kallay                                 : mrcc  (arbitrary order and MRCC methods)
   Andreas Klamt, Michael Diedenhofen            : otool_cosmo (COSMO solvation model)
   Jiri Pittner, Ondrej Demel                    : Mk-CCSD
   Frank Weinhold                                : gennbo (NPA and NBO analysis)
   Christopher J. Cramer and Donald G. Truhlar   : smd solvation model
   Lars Goerigk                                  : TD-DFT with DH, B97 family of functionals
   V. Asgeirsson, H. Jonsson                     : NEB implementation
   FAccTs GmbH                                   : IRC, NEB, NEB-TS, Multilevel, MM, QM/MM, CI optimization
   S Lehtola, MJT Oliveira, MAL Marques          : LibXC Library


 Your calculation uses the libint2 library for the computation of 2-el integrals
 For citations please refer to: http://libint.valeyev.net

 Your ORCA version has been built with support for libXC version: 4.2.3
 For citations please refer to: https://tddft.org/programs/libxc/

 This ORCA versions uses:
   CBLAS   interface :  Fast vector & matrix operations
   LAPACKE interface :  Fast linear algebra routines
   SCALAPACK package :  Parallel linear algebra routines




***************************************
The coordinates will be read from file: init.xyz
***************************************


Your calculation utilizes the atom-pairwise dispersion correction
based on tight binding partial charges (D4)
Cite in your paper:
E.Caldeweyher, C.Bannwarth, S.Grimme, J.Chem.Phys., (2017), 147, 034112.
E.Caldeweyher, S.Ehlert, A.Hansen, H.Neugebauer, S.Grimme, J.Chem.Phys., (2018), in progress.
   

----- Orbital basis set information -----
Your calculation utilizes the basis: def2-TZVP
   F. Weigend and R. Ahlrichs, Phys. Chem. Chem. Phys. 7, 3297 (2005).

----- AuxJ basis set information -----
Your calculation utilizes the auxiliary basis: def2/J
   F. Weigend, Phys. Chem. Chem. Phys. 8, 1057 (2006).

================================================================================
                                        WARNINGS
                       Please study these warnings very carefully!
================================================================================


INFO   : the flag for use of LIBINT has been found!

================================================================================
                                       INPUT FILE
================================================================================
NAME = neon.inp
|  1> ! BLYP D4 def2-TZVP RI def2/J TightSCF Grid4 FinalGrid5 PrintBasis PrintMOs
|  2> %maxcore 1150
|  3> 
|  4> * xyzfile 0 1 init.xyz
|  5> 
|  6>                          ****END OF INPUT****
================================================================================

                       ****************************
                       * Single Point Calculation *
                       ****************************

---------------------------------
CARTESIAN COORDINATES (ANGSTROEM)
---------------------------------
  Ne     0.000000    0.000000    0.000000

----------------------------
CARTESIAN COORDINATES (A.U.)
----------------------------
  NO LB      ZA    FRAG     MASS         X           Y           Z
   0 Ne   10.0000    0    20.179    0.000000    0.000000    0.000000

--------------------------------
INTERNAL COORDINATES (ANGSTROEM)
--------------------------------
 Ne     0   0   0     0.000000000000     0.00000000     0.00000000

---------------------------
INTERNAL COORDINATES (A.U.)
---------------------------
 Ne     0   0   0     0.000000000000     0.00000000     0.00000000

---------------------
BASIS SET INFORMATION
---------------------
There are 1 groups of distinct atoms

 Group   1 Type Ne  : 11s6p2d1f contracted to 5s3p2d1f pattern {62111/411/11/1}

Atom   0Ne   basis set group =>   1

-------------------------
BASIS SET IN INPUT FORMAT
-------------------------

 # Basis set for element : Ne
 NewGTO Ne
 S 6 
   1   45069.4640220000      0.0005538001
   2    6755.9768656000      0.0042932754
   3    1537.6502864000      0.0223071137
   4     435.5169766700      0.0902980026
   5     142.2865563800      0.2891046794
   6      51.6921538040      0.6806492372
 S 2 
   1      20.3158704900      0.6288529548
   2       8.2021942646      0.4059306294
 S 1 
   1       1.9681276278      1.0000000000
 S 1 
   1       0.7790475600      1.0000000000
 S 1 
   1       0.3022950204      1.0000000000
 P 4 
   1      99.7829960320      0.0124940363
   2      23.1761241010      0.0874383333
   3       7.1163945872      0.3302428999
   4       2.4418711435      0.6950261428
 P 1 
   1       0.8338960577      1.0000000000
 P 1 
   1       0.2660731130      1.0000000000
 D 1 
   1       4.0140000000      1.0000000000
 D 1 
   1       1.0960000000      1.0000000000
 F 1 
   1       2.5440000000      1.0000000000
  end;

---------------------------------
AUXILIARY/J BASIS SET INFORMATION
---------------------------------
There are 1 groups of distinct atoms

 Group   1 Type Ne  : 12s5p4d2f1g contracted to 6s4p3d1f1g pattern {711111/2111/211/2/1}

Atom   0Ne   basis set group =>   1

-------------------------------------
AUXILIARY/J BASIS SET IN INPUT FORMAT
-------------------------------------

 # Auxiliary/J basis set for element : Ne
 NewAuxJGTO Ne
 S 7 
   1    4165.3443917000      0.0184224208
   2    1475.2326437000      0.0374458168
   3     549.2884359000      0.1261212610
   4     214.3631494000      0.2800743078
   5      87.3657300000      0.4254735830
   6      37.0296590000      0.2618277307
   7      16.2441770000     -0.0161778073
 S 1 
   1       7.3360628000      1.0000000000
 S 1 
   1       3.3907965000      1.0000000000
 S 1 
   1       1.5939747000      1.0000000000
 S 1 
   1       0.7570527000      1.0000000000
 S 1 
   1       0.3608023000      1.0000000000
 P 2 
   1      61.2000000000     -0.8405008312
   2      16.7000000000     -0.2331464443
 P 1 
   1       4.9200000000      1.0000000000
 P 1 
   1       1.5200000000      1.0000000000
 P 1 
   1       0.4800000000      1.0000000000
 D 2 
   1      37.1700000000     -0.2160404644
   2       8.4100000000     -0.8915682403
 D 1 
   1       2.2500000000      1.0000000000
 D 1 
   1       0.6400000000      1.0000000000
 F 2 
   1       3.5100000000      0.5757699169
   2       1.1400000000      0.5757699169
 G 1 
   1       2.0000000000      1.0000000000
  end;

------------------------------------------------------------------------------
                           ORCA GTO INTEGRAL CALCULATION
                           -- RI-GTO INTEGRALS CHOSEN --
------------------------------------------------------------------------------

                         BASIS SET STATISTICS AND STARTUP INFO

Gaussian basis set:
 # of primitive gaussian shells          ...   20
 # of primitive gaussian functions       ...   46
 # of contracted shells                  ...   11
 # of contracted basis functions         ...   31
 Highest angular momentum                ...    3
 Maximum contraction depth               ...    6
Auxiliary gaussian basis set:
 # of primitive gaussian shells          ...   24
 # of primitive gaussian functions       ...   70
 # of contracted shells                  ...   15
 # of contracted aux-basis functions     ...   49
 Highest angular momentum                ...    4
 Maximum contraction depth               ...    7
Ratio of auxiliary to basis functions    ...  1.58
Integral package used                  ... LIBINT
 One Electron integrals                  ... done
 Ordering auxiliary basis shells         ... done
 Integral threshhold             Thresh  ...  2.500e-11
 Primitive cut-off               TCut    ...  2.500e-12
 Pre-screening matrix                    ... done
 Shell pair data                         ... 
 Ordering of the shell pairs             ... done (   0.000 sec) 66 of 66 pairs
 Determination of significant pairs      ... done (   0.000 sec)
 Creation of shell pair data             ... done (   0.000 sec)
 Storage of shell pair data              ... done (   0.000 sec)
 Shell pair data done in (   0.000 sec)
 Computing two index integrals           ... done
 Cholesky decomposition of the V-matrix  ... done


Timings:
 Total evaluation time                   ...   0.106 sec (  0.002 min)
 One electron matrix time                ...   0.004 sec (  0.000 min) =  3.5%
 Schwartz matrix evaluation time         ...   0.080 sec (  0.001 min) = 75.3%
 Two index repulsion integral time       ...   0.000 sec (  0.000 min) =  0.2%
 Cholesky decomposition of V             ...   0.000 sec (  0.000 min) =  0.4%
 Three index repulsion integral time     ...   0.000 sec (  0.000 min) =  0.0%

-------------------------------------------------------------------------------
                                 ORCA SCF
-------------------------------------------------------------------------------

------------
SCF SETTINGS
------------
Hamiltonian:
 Density Functional     Method          .... DFT(GTOs)
 Exchange Functional    Exchange        .... B88
   X-Alpha parameter    XAlpha          ....  0.666667
   Becke's b parameter  XBeta           ....  0.004200
 Correlation Functional Correlation     .... LYP
 Gradients option       PostSCFGGA      .... off
   Density functional embedding theory  .... OFF
   NL short-range parameter             ....  4.000000
 RI-approximation to the Coulomb term is turned on
   Number of auxiliary basis functions  .... 49


General Settings:
 Integral files         IntName         .... neon
 Hartree-Fock type      HFTyp           .... RHF
 Total Charge           Charge          ....    0
 Multiplicity           Mult            ....    1
 Number of Electrons    NEL             ....   10
 Basis Dimension        Dim             ....   31
 Nuclear Repulsion      ENuc            ....      0.0000000000 Eh

Convergence Acceleration:
 DIIS                   CNVDIIS         .... on
   Start iteration      DIISMaxIt       ....    12
   Startup error        DIISStart       ....  0.200000
   # of expansion vecs  DIISMaxEq       ....     5
   Bias factor          DIISBfac        ....   1.050
   Max. coefficient     DIISMaxC        ....  10.000
 Newton-Raphson         CNVNR           .... off
 SOSCF                  CNVSOSCF        .... on
   Start iteration      SOSCFMaxIt      ....   150
   Startup grad/error   SOSCFStart      ....  0.003300
 Level Shifting         CNVShift        .... on
   Level shift para.    LevelShift      ....    0.2500
   Turn off err/grad.   ShiftErr        ....    0.0010
 Zerner damping         CNVZerner       .... off
 Static damping         CNVDamp         .... on
   Fraction old density DampFac         ....    0.7000
   Max. Damping (<1)    DampMax         ....    0.9800
   Min. Damping (>=0)   DampMin         ....    0.0000
   Turn off err/grad.   DampErr         ....    0.1000
 Fernandez-Rico         CNVRico         .... off

SCF Procedure:
 Maximum # iterations   MaxIter         ....   125
 SCF integral mode      SCFMode         .... Direct
   Integral package                     .... LIBINT
 Reset frequency        DirectResetFreq ....    20
 Integral Threshold     Thresh          ....  2.500e-11 Eh
 Primitive CutOff       TCut            ....  2.500e-12 Eh

Convergence Tolerance:
 Convergence Check Mode ConvCheckMode   .... Total+1el-Energy
 Convergence forced     ConvForced      .... 0
 Energy Change          TolE            ....  1.000e-08 Eh
 1-El. energy change                    ....  1.000e-05 Eh
 Orbital Gradient       TolG            ....  1.000e-05
 Orbital Rotation angle TolX            ....  1.000e-05
 DIIS Error             TolErr          ....  5.000e-07


Diagonalization of the overlap matrix:
Smallest eigenvalue                        ... 3.141e-02
Time for diagonalization                   ...    0.001 sec
Threshold for overlap eigenvalues          ... 1.000e-08
Number of eigenvalues below threshold      ... 0
Time for construction of square roots      ...    0.000 sec
Total time needed                          ...    0.001 sec

-------------------
DFT GRID GENERATION
-------------------

General Integration Accuracy     IntAcc      ...  4.670
Radial Grid Type                 RadialGrid  ... Gauss-Chebyshev
Angular Grid (max. acc.)         AngularGrid ... Lebedev-302
Angular grid pruning method      GridPruning ... 3 (G Style)
Weight generation scheme         WeightScheme... Becke
Basis function cutoff            BFCut       ...    1.0000e-11
Integration weight cutoff        WCut        ...    1.0000e-14
Grids for H and He will be reduced by one unit

# of grid points (after initial pruning)     ...   6272 (   0.0 sec)
# of grid points (after weights+screening)   ...   6272 (   0.0 sec)
Grid point division into batches done        ...    0.0 sec
Reduced shell lists constructed in    0.0 sec

Total number of grid points                  ...     6272
Total number of batches                      ...       99
Average number of points per batch           ...       63
Average number of grid points per atom       ...     6272
Average number of shells per batch           ...     7.88 (71.64%)
Average number of basis functions per batch  ...    23.04 (74.32%)
Average number of large shells per batch     ...     7.56 (95.94%)
Average number of large basis fcns per batch ...    22.24 (96.53%)
Maximum spatial batch extension              ...  21.92, 16.88, 15.22 au
Average spatial batch extension              ...   4.38,  4.21,  4.00 au

Time for grid setup =    0.047 sec

------------------------------
INITIAL GUESS: MODEL POTENTIAL
------------------------------
Loading Hartree-Fock densities                     ... done
Calculating cut-offs                               ... done
Setting up the integral package                    ... done
Initializing the effective Hamiltonian             ... done
Starting the Coulomb interaction                   ... done (   0.0 sec)
Reading the grid                                   ... done
Mapping shells                                     ... done
Starting the XC term evaluation                    ... done (   0.0 sec)
  promolecular density results
     # of electrons  =     10.000003708
     EX              =    -12.138584764
     EC              =     -0.383483032
     EX+EC           =    -12.522067797
Transforming the Hamiltonian                       ... done (   0.0 sec)
Diagonalizing the Hamiltonian                      ... done (   0.0 sec)
Back transforming the eigenvectors                 ... done (   0.0 sec)
Now organizing SCF variables                       ... done
                      ------------------
                      INITIAL GUESS DONE (   0.1 sec)
                      ------------------
--------------
SCF ITERATIONS
--------------
ITER       Energy         Delta-E        Max-DP      RMS-DP      [F,P]     Damp
               ***  Starting incremental Fock matrix formation  ***
  0   -128.9631903835   0.000000000000 0.00372335  0.00040556  0.0280904 0.7000
  1   -128.9634383746  -0.000247991134 0.00232856  0.00024985  0.0108569 0.7000
                               ***Turning on DIIS***
                      *** Initiating the SOSCF procedure ***
                           *** Shutting down DIIS ***
                      *** Re-Reading the Fockian *** 
                      *** Removing any level shift *** 
ITER      Energy       Delta-E        Grad      Rot      Max-DP    RMS-DP
  2   -128.96353017  -0.0000917967  0.002120  0.002120  0.004442  0.000391
               *** Restarting incremental Fock matrix formation ***
  3   -128.96370212  -0.0001719454  0.002601  0.002435  0.002874  0.000312
  4   -128.96368310   0.0000190158  0.003513  0.001331  0.001766  0.000171
  5   -128.96372274  -0.0000396341  0.000049  0.000008  0.000041  0.000003
                 **** Energy Check signals convergence ****
              ***Rediagonalizing the Fockian in SOSCF/NRSCF***

               *****************************************************
               *                     SUCCESS                       *
               *           SCF CONVERGED AFTER   6 CYCLES          *
               *****************************************************

Setting up the final grid:

General Integration Accuracy     IntAcc      ...  5.010
Radial Grid Type                 RadialGrid  ... Gauss-Chebyshev
Angular Grid (max. acc.)         AngularGrid ... Lebedev-434
Angular grid pruning method      GridPruning ... 3 (G Style)
Weight generation scheme         WeightScheme... Becke
Basis function cutoff            BFCut       ...    1.0000e-11
Integration weight cutoff        WCut        ...    1.0000e-14
Grids for H and He will be reduced by one unit

# of grid points (after initial pruning)     ...  10818 (   0.0 sec)
# of grid points (after weights+screening)   ...  10818 (   0.0 sec)
Grid point division into batches done        ...    0.1 sec
Reduced shell lists constructed in    0.1 sec

Total number of grid points                  ...    10818
Total number of batches                      ...      170
Average number of points per batch           ...       63
Average number of grid points per atom       ...    10818
Average number of shells per batch           ...     7.80 (70.87%)
Average number of basis functions per batch  ...    22.50 (72.57%)
Average number of large shells per batch     ...     7.30 (93.62%)
Average number of large basis fcns per batch ...    21.40 (95.14%)
Maximum spatial batch extension              ...  16.29, 16.29, 16.29 au
Average spatial batch extension              ...   3.80,  3.71,  3.72 au

Final grid set up in    0.1 sec
Final integration                            ... done (   0.0 sec)
Change in XC energy                          ...    -0.000000259
Integrated number of electrons               ...    10.000000038
Previous integrated no of electrons          ...     9.999999954

----------------
TOTAL SCF ENERGY
----------------

Total Energy       :         -128.96372300 Eh           -3509.28131 eV

Components:
Nuclear Repulsion  :            0.00000000 Eh               0.00000 eV
Electronic Energy  :         -128.96372300 Eh           -3509.28131 eV
One Electron Energy:         -182.39368994 Eh           -4963.18463 eV
Two Electron Energy:           53.42996694 Eh            1453.90332 eV

Virial components:
Potential Energy   :         -257.61778410 Eh           -7010.13629 eV
Kinetic Energy     :          128.65406110 Eh            3500.85498 eV
Virial Ratio       :            2.00240693


DFT components:
N(Alpha)           :        5.000000018865 electrons
N(Beta)            :        5.000000018865 electrons
N(Total)           :       10.000000037730 electrons
E(X)               :      -12.107947215324 Eh       
E(C)               :       -0.383257538073 Eh       
E(XC)              :      -12.491204753396 Eh       
DFET-embed. en.    :        0.000000000000 Eh       

---------------
SCF CONVERGENCE
---------------

  Last Energy change         ...   -1.0982e-09  Tolerance :   1.0000e-08
  Last MAX-Density change    ...    3.8636e-06  Tolerance :   1.0000e-07
  Last RMS-Density change    ...    2.6525e-07  Tolerance :   5.0000e-09
  Last Orbital Gradient      ...    5.5016e-06  Tolerance :   1.0000e-05
  Last Orbital Rotation      ...    7.7591e-07  Tolerance :   1.0000e-05

             **** THE GBW FILE WAS UPDATED (neon.gbw) ****
             **** DENSITY FILE WAS UPDATED (neon.scfp) ****
             **** ENERGY FILE WAS UPDATED (neon.en.tmp) ****
             **** THE GBW FILE WAS UPDATED (neon.gbw) ****
             **** DENSITY FILE WAS UPDATED (neon.scfp) ****
----------------
ORBITAL ENERGIES
----------------

  NO   OCC          E(Eh)            E(eV) 
   0   2.0000     -30.517859      -830.4332 
   1   2.0000      -1.321010       -35.9465 
   2   2.0000      -0.483678       -13.1616 
   3   2.0000      -0.483678       -13.1616 
   4   2.0000      -0.483678       -13.1616 
   5   0.0000       0.546411        14.8686 
   6   0.0000       0.582886        15.8611 
   7   0.0000       0.582886        15.8611 
   8   0.0000       0.582886        15.8611 
   9   0.0000       2.397021        65.2263 
  10   0.0000       2.397021        65.2263 
  11   0.0000       2.397021        65.2263 
  12   0.0000       2.397021        65.2263 
  13   0.0000       2.397021        65.2263 
  14   0.0000       3.680051       100.1393 
  15   0.0000       3.680051       100.1393 
  16   0.0000       3.680051       100.1393 
  17   0.0000       4.222748       114.9068 
  18   0.0000       8.898165       242.1314 
  19   0.0000       8.898165       242.1314 
  20   0.0000       8.898165       242.1314 
  21   0.0000       8.898165       242.1314 
  22   0.0000       8.898165       242.1314 
  23   0.0000       8.898165       242.1314 
  24   0.0000       8.898165       242.1314 
  25   0.0000      10.358620       281.8724 
  26   0.0000      10.358620       281.8724 
  27   0.0000      10.358620       281.8724 
  28   0.0000      10.358620       281.8724 
  29   0.0000      10.358620       281.8724 
  30   0.0000      70.797379      1926.4946 
------------------
MOLECULAR ORBITALS
------------------
                      0         1         2         3         4         5   
                 -30.51786  -1.32101  -0.48368  -0.48368  -0.48368   0.54641
                   2.00000   2.00000   2.00000   2.00000   2.00000   0.00000
                  --------  --------  --------  --------  --------  --------
  0Ne  1s         0.418112 -0.108431 -0.000000 -0.000000  0.000000 -0.059223
  0Ne  2s         0.655619 -0.268827 -0.000000 -0.000000  0.000000 -0.131029
  0Ne  3s         0.032642  0.385167 -0.000000 -0.000000 -0.000000 -0.055260
  0Ne  4s        -0.015386  0.513512  0.000000  0.000000 -0.000000  1.784259
  0Ne  5s         0.004749  0.245060 -0.000000 -0.000000  0.000000 -1.959073
  0Ne  1pz       -0.000000 -0.000000 -0.535704 -0.005586  0.023810  0.000000
  0Ne  1px        0.000000 -0.000000 -0.023950  0.014166 -0.535539 -0.000000
  0Ne  1py       -0.000000 -0.000000 -0.004950  0.536046  0.014400 -0.000000
  0Ne  2pz       -0.000000 -0.000000 -0.403925 -0.004212  0.017953  0.000000
  0Ne  2px       -0.000000 -0.000000 -0.018059  0.010681 -0.403801 -0.000000
  0Ne  2py        0.000000  0.000000 -0.003732  0.404182  0.010858 -0.000000
  0Ne  3pz        0.000000  0.000000 -0.273715 -0.002854  0.012166 -0.000000
  0Ne  3px        0.000000  0.000000 -0.012237  0.007238 -0.273631  0.000000
  0Ne  3py       -0.000000 -0.000000 -0.002529  0.273889  0.007358  0.000000
  0Ne  1dz2       0.000000 -0.000000  0.000000 -0.000000  0.000000  0.000000
  0Ne  1dxz       0.000000  0.000000 -0.000000 -0.000000  0.000000  0.000000
  0Ne  1dyz      -0.000000  0.000000 -0.000000 -0.000000 -0.000000  0.000000
  0Ne  1dx2y2    -0.000000  0.000000  0.000000 -0.000000 -0.000000  0.000000
  0Ne  1dxy       0.000000  0.000000 -0.000000  0.000000 -0.000000 -0.000000
  0Ne  2dz2      -0.000000  0.000000  0.000000  0.000000 -0.000000 -0.000000
  0Ne  2dxz      -0.000000  0.000000  0.000000 -0.000000  0.000000  0.000000
  0Ne  2dyz       0.000000 -0.000000 -0.000000 -0.000000 -0.000000 -0.000000
  0Ne  2dx2y2     0.000000 -0.000000 -0.000000 -0.000000  0.000000 -0.000000
  0Ne  2dxy       0.000000 -0.000000  0.000000 -0.000000 -0.000000  0.000000
  0Ne  1f0        0.000000 -0.000000 -0.000000 -0.000000  0.000000  0.000000
  0Ne  1f+1      -0.000000  0.000000 -0.000000 -0.000000  0.000000 -0.000000
  0Ne  1f-1      -0.000000 -0.000000  0.000000 -0.000000  0.000000  0.000000
  0Ne  1f+2      -0.000000 -0.000000  0.000000  0.000000  0.000000  0.000000
  0Ne  1f-2      -0.000000  0.000000  0.000000  0.000000 -0.000000  0.000000
  0Ne  1f+3      -0.000000  0.000000 -0.000000 -0.000000  0.000000 -0.000000
  0Ne  1f-3      -0.000000 -0.000000  0.000000  0.000000  0.000000  0.000000
                      6         7         8         9        10        11   
                   0.58289   0.58289   0.58289   2.39702   2.39702   2.39702
                   0.00000   0.00000   0.00000   0.00000   0.00000   0.00000
                  --------  --------  --------  --------  --------  --------
  0Ne  1s        -0.000000 -0.000000 -0.000000 -0.000000  0.000000  0.000000
  0Ne  2s        -0.000000 -0.000000 -0.000000 -0.000000  0.000000  0.000000
  0Ne  3s        -0.000000 -0.000000 -0.000000  0.000000 -0.000000 -0.000000
  0Ne  4s         0.000000  0.000000  0.000000  0.000000  0.000000  0.000000
  0Ne  5s        -0.000000 -0.000000 -0.000000 -0.000000 -0.000000 -0.000000
  0Ne  1pz        0.003345 -0.034554 -0.311510  0.000000  0.000000 -0.000000
  0Ne  1px        0.313394  0.004385  0.002879 -0.000000 -0.000000  0.000000
  0Ne  1py       -0.004040  0.311497 -0.034596 -0.000000 -0.000000  0.000000
  0Ne  2pz        0.006404 -0.066158 -0.596433  0.000000 -0.000000  0.000000
  0Ne  2px        0.600042  0.008395  0.005512  0.000000  0.000000 -0.000000
  0Ne  2py       -0.007736  0.596409 -0.066238  0.000000  0.000000 -0.000000
  0Ne  3pz       -0.012954  0.133817  1.206399 -0.000000 -0.000000  0.000000
  0Ne  3px       -1.213697 -0.016981 -0.011148  0.000000  0.000000 -0.000000
  0Ne  3py        0.015648 -1.206349  0.133980  0.000000  0.000000 -0.000000
  0Ne  1dz2      -0.000000 -0.000000  0.000000  0.000372  0.000114  0.000052
  0Ne  1dxz       0.000000 -0.000000 -0.000000 -0.000002  0.000002 -0.000006
  0Ne  1dyz      -0.000000  0.000000  0.000000 -0.000029 -0.000036  0.000284
  0Ne  1dx2y2    -0.000000  0.000000  0.000000  0.000120 -0.000372 -0.000040
  0Ne  1dxy       0.000000  0.000000 -0.000000 -0.000024 -0.000040  0.000264
  0Ne  2dz2       0.000000  0.000000  0.000000  0.947301  0.290950  0.132482
  0Ne  2dxz      -0.000000  0.000000  0.000000 -0.004545  0.006019 -0.015405
  0Ne  2dyz       0.000000 -0.000000 -0.000000 -0.074455 -0.090404  0.722538
  0Ne  2dx2y2     0.000000 -0.000000 -0.000000  0.304831 -0.946706 -0.100928
  0Ne  2dxy      -0.000000 -0.000000  0.000000 -0.061159 -0.102434  0.670499
  0Ne  1f0        0.000000  0.000000  0.000000 -0.000000 -0.000000 -0.000000
  0Ne  1f+1       0.000000  0.000000  0.000000 -0.000000 -0.000000 -0.000000
  0Ne  1f-1       0.000000  0.000000 -0.000000  0.000000  0.000000 -0.000000
  0Ne  1f+2       0.000000 -0.000000 -0.000000 -0.000000  0.000000  0.000000
  0Ne  1f-2      -0.000000 -0.000000 -0.000000  0.000000  0.000000 -0.000000
  0Ne  1f+3       0.000000  0.000000  0.000000  0.000000 -0.000000  0.000000
  0Ne  1f-3       0.000000 -0.000000  0.000000 -0.000000  0.000000  0.000000
                     12        13        14        15        16        17   
                   2.39702   2.39702   3.68005   3.68005   3.68005   4.22275
                   0.00000   0.00000   0.00000   0.00000   0.00000   0.00000
                  --------  --------  --------  --------  --------  --------
  0Ne  1s         0.000000 -0.000000 -0.000000  0.000000  0.000000 -0.132381
  0Ne  2s         0.000000 -0.000000 -0.000000  0.000000  0.000000 -0.469976
  0Ne  3s        -0.000000  0.000000  0.000000 -0.000000 -0.000000  2.856551
  0Ne  4s         0.000000 -0.000000 -0.000000  0.000000  0.000000 -3.663632
  0Ne  5s        -0.000000 -0.000000  0.000000 -0.000000 -0.000000  1.478353
  0Ne  1pz        0.000000  0.000000  1.145664  0.140968  0.071868 -0.000000
  0Ne  1px        0.000000  0.000000  0.158057 -1.044153 -0.471533 -0.000000
  0Ne  1py        0.000000 -0.000000 -0.007410 -0.476921  1.053600  0.000000
  0Ne  2pz       -0.000000 -0.000000 -1.571926 -0.193417 -0.098607  0.000000
  0Ne  2px       -0.000000 -0.000000 -0.216864  1.432647  0.646975  0.000000
  0Ne  2py       -0.000000  0.000000  0.010167  0.654367 -1.445609 -0.000000
  0Ne  3pz       -0.000000 -0.000000  0.707025  0.086996  0.044352 -0.000000
  0Ne  3px       -0.000000 -0.000000  0.097542 -0.644380 -0.290998 -0.000000
  0Ne  3py       -0.000000 -0.000000 -0.004573 -0.294323  0.650210  0.000000
  0Ne  1dz2       0.000002  0.000001 -0.000000 -0.000000  0.000000 -0.000000
  0Ne  1dxz       0.000375  0.000118 -0.000000  0.000000  0.000000  0.000000
  0Ne  1dyz      -0.000076  0.000257  0.000000  0.000000 -0.000000 -0.000000
  0Ne  1dx2y2     0.000000  0.000006  0.000000  0.000000 -0.000000 -0.000000
  0Ne  1dxy       0.000090 -0.000273 -0.000000  0.000000 -0.000000 -0.000000
  0Ne  2dz2       0.003919  0.002862  0.000000 -0.000000  0.000000  0.000000
  0Ne  2dxz       0.953693  0.299636 -0.000000  0.000000  0.000000  0.000000
  0Ne  2dyz      -0.193290  0.653044  0.000000  0.000000 -0.000000 -0.000000
  0Ne  2dx2y2     0.000887  0.015629  0.000000  0.000000 -0.000000 -0.000000
  0Ne  2dxy       0.229563 -0.695058 -0.000000  0.000000 -0.000000  0.000000
  0Ne  1f0        0.000000 -0.000000  0.000000  0.000000  0.000000 -0.000000
  0Ne  1f+1      -0.000000 -0.000000  0.000000  0.000000  0.000000 -0.000000
  0Ne  1f-1       0.000000 -0.000000 -0.000000  0.000000 -0.000000 -0.000000
  0Ne  1f+2      -0.000000 -0.000000  0.000000  0.000000  0.000000 -0.000000
  0Ne  1f-2      -0.000000  0.000000 -0.000000 -0.000000  0.000000  0.000000
  0Ne  1f+3       0.000000 -0.000000  0.000000  0.000000  0.000000  0.000000
  0Ne  1f-3       0.000000 -0.000000 -0.000000 -0.000000  0.000000 -0.000000
                     18        19        20        21        22        23   
                   8.89816   8.89816   8.89816   8.89816   8.89816   8.89816
                   0.00000   0.00000   0.00000   0.00000   0.00000   0.00000
                  --------  --------  --------  --------  --------  --------
  0Ne  1s        -0.000000 -0.000000 -0.000000 -0.000000  0.000000 -0.000000
  0Ne  2s        -0.000000 -0.000000 -0.000000 -0.000000 -0.000000 -0.000000
  0Ne  3s         0.000000  0.000000  0.000000  0.000000  0.000000  0.000000
  0Ne  4s        -0.000000 -0.000000 -0.000000 -0.000000 -0.000000 -0.000000
  0Ne  5s         0.000000  0.000000  0.000000  0.000000  0.000000  0.000000
  0Ne  1pz       -0.000000 -0.000000  0.000000 -0.000000  0.000000  0.000000
  0Ne  1px       -0.000000  0.000000  0.000000  0.000000  0.000000  0.000000
  0Ne  1py       -0.000000  0.000000  0.000000  0.000000  0.000000 -0.000000
  0Ne  2pz        0.000000  0.000000 -0.000000  0.000000 -0.000000 -0.000000
  0Ne  2px       -0.000000 -0.000000 -0.000000 -0.000000 -0.000000 -0.000000
  0Ne  2py        0.000000 -0.000000 -0.000000 -0.000000 -0.000000  0.000000
  0Ne  3pz        0.000000 -0.000000  0.000000 -0.000000  0.000000  0.000000
  0Ne  3px        0.000000  0.000000  0.000000  0.000000  0.000000  0.000000
  0Ne  3py       -0.000000  0.000000  0.000000  0.000000  0.000000 -0.000000
  0Ne  1dz2       0.000000  0.000000 -0.000000 -0.000000 -0.000000 -0.000000
  0Ne  1dxz      -0.000000 -0.000000  0.000000 -0.000000  0.000000 -0.000000
  0Ne  1dyz      -0.000000  0.000000 -0.000000  0.000000 -0.000000  0.000000
  0Ne  1dx2y2    -0.000000  0.000000  0.000000  0.000000  0.000000  0.000000
  0Ne  1dxy      -0.000000  0.000000 -0.000000  0.000000  0.000000 -0.000000
  0Ne  2dz2      -0.000000  0.000000  0.000000  0.000000 -0.000000  0.000000
  0Ne  2dxz       0.000000  0.000000 -0.000000  0.000000 -0.000000 -0.000000
  0Ne  2dyz       0.000000  0.000000  0.000000 -0.000000  0.000000 -0.000000
  0Ne  2dx2y2     0.000000 -0.000000 -0.000000 -0.000000 -0.000000 -0.000000
  0Ne  2dxy       0.000000 -0.000000  0.000000 -0.000000 -0.000000  0.000000
  0Ne  1f0       -0.088086  0.036070  0.011605  0.994663 -0.034021 -0.012337
  0Ne  1f+1       0.078236  0.957876 -0.042811 -0.023256  0.025403 -0.004083
  0Ne  1f-1       0.016395  0.045344  0.992606 -0.012474  0.023037 -0.107477
  0Ne  1f+2       0.992444 -0.079239 -0.011218  0.091478  0.015061  0.007168
  0Ne  1f-2       0.020534  0.036116  0.031183 -0.032968 -0.992190  0.102012
  0Ne  1f+3      -0.019757 -0.267199  0.019422  0.016552 -0.052628 -0.066174
  0Ne  1f-3      -0.009650 -0.011725  0.106256  0.014837  0.101136  0.986632
                     24        25        26        27        28        29   
                   8.89816  10.35862  10.35862  10.35862  10.35862  10.35862
                   0.00000   0.00000   0.00000   0.00000   0.00000   0.00000
                  --------  --------  --------  --------  --------  --------
  0Ne  1s        -0.000000  0.000000 -0.000000  0.000000  0.000000  0.000000
  0Ne  2s        -0.000000  0.000000 -0.000000  0.000000  0.000000  0.000000
  0Ne  3s         0.000000 -0.000000  0.000000 -0.000000 -0.000000 -0.000000
  0Ne  4s        -0.000000  0.000000 -0.000000  0.000000  0.000000  0.000000
  0Ne  5s         0.000000 -0.000000  0.000000 -0.000000 -0.000000  0.000000
  0Ne  1pz        0.000000 -0.000000 -0.000000 -0.000000  0.000000  0.000000
  0Ne  1px       -0.000000  0.000000 -0.000000  0.000000  0.000000  0.000000
  0Ne  1py        0.000000  0.000000  0.000000  0.000000 -0.000000  0.000000
  0Ne  2pz       -0.000000  0.000000  0.000000  0.000000 -0.000000 -0.000000
  0Ne  2px        0.000000 -0.000000 -0.000000 -0.000000 -0.000000 -0.000000
  0Ne  2py       -0.000000 -0.000000 -0.000000 -0.000000  0.000000 -0.000000
  0Ne  3pz        0.000000 -0.000000 -0.000000 -0.000000  0.000000  0.000000
  0Ne  3px       -0.000000  0.000000  0.000000  0.000000  0.000000  0.000000
  0Ne  3py        0.000000  0.000000  0.000000  0.000000 -0.000000  0.000000
  0Ne  1dz2       0.000000 -1.134091 -0.171236  0.129207 -0.051867  0.026561
  0Ne  1dxz      -0.000000 -0.000273 -0.001120  0.032444  0.596963  0.989018
  0Ne  1dyz      -0.000000  0.084923  0.119065  0.423597 -0.918016  0.540369
  0Ne  1dx2y2     0.000000 -0.196180  1.113060 -0.240744  0.015116 -0.000020
  0Ne  1dxy       0.000000  0.060936  0.230594  1.039440  0.365429 -0.254390
  0Ne  2dz2      -0.000000  0.568805  0.085883 -0.064804  0.026014 -0.013321
  0Ne  2dxz       0.000000  0.000137  0.000562 -0.016272 -0.299408 -0.496043
  0Ne  2dyz       0.000000 -0.042593 -0.059717 -0.212456  0.460432 -0.271023
  0Ne  2dx2y2    -0.000000  0.098394 -0.558257  0.120745 -0.007581  0.000010
  0Ne  2dxy      -0.000000 -0.030563 -0.115655 -0.521333 -0.183281  0.127590
  0Ne  1f0        0.011881 -0.000000 -0.000000  0.000000  0.000000  0.000000
  0Ne  1f+1      -0.270770 -0.000000  0.000000 -0.000000  0.000000  0.000000
  0Ne  1f-1       0.013062  0.000000  0.000000  0.000000 -0.000000  0.000000
  0Ne  1f+2       0.001661 -0.000000  0.000000 -0.000000 -0.000000  0.000000
  0Ne  1f-2       0.036972  0.000000  0.000000  0.000000  0.000000 -0.000000
  0Ne  1f+3      -0.959382 -0.000000  0.000000  0.000000 -0.000000 -0.000000
  0Ne  1f-3      -0.067730 -0.000000  0.000000  0.000000  0.000000 -0.000000
                     30   
                  70.79738
                   0.00000
                  --------
  0Ne  1s         1.389445
  0Ne  2s        -1.668985
  0Ne  3s         1.332681
  0Ne  4s        -1.085963
  0Ne  5s         0.375913
  0Ne  1pz       -0.000000
  0Ne  1px       -0.000000
  0Ne  1py       -0.000000
  0Ne  2pz        0.000000
  0Ne  2px        0.000000
  0Ne  2py       -0.000000
  0Ne  3pz       -0.000000
  0Ne  3px       -0.000000
  0Ne  3py        0.000000
  0Ne  1dz2       0.000000
  0Ne  1dxz      -0.000000
  0Ne  1dyz       0.000000
  0Ne  1dx2y2     0.000000
  0Ne  1dxy       0.000000
  0Ne  2dz2       0.000000
  0Ne  2dxz       0.000000
  0Ne  2dyz      -0.000000
  0Ne  2dx2y2    -0.000000
  0Ne  2dxy       0.000000
  0Ne  1f0        0.000000
  0Ne  1f+1       0.000000
  0Ne  1f-1       0.000000
  0Ne  1f+2       0.000000
  0Ne  1f-2       0.000000
  0Ne  1f+3      -0.000000
  0Ne  1f-3       0.000000



                    ********************************
                    * MULLIKEN POPULATION ANALYSIS *
                    ********************************

-----------------------
MULLIKEN ATOMIC CHARGES
-----------------------
   0 Ne:    0.000000
Sum of atomic charges:    0.0000000

--------------------------------
MULLIKEN REDUCED ORBITAL CHARGES
--------------------------------
  0 Nes       :     4.000000  s :     4.000000
      pz      :     2.000000  p :     6.000000
      px      :     2.000000
      py      :     2.000000
      dz2     :     0.000000  d :     0.000000
      dxz     :     0.000000
      dyz     :     0.000000
      dx2y2   :     0.000000
      dxy     :     0.000000
      f0      :     0.000000  f :     0.000000
      f+1     :     0.000000
      f-1     :     0.000000
      f+2     :     0.000000
      f-2     :     0.000000
      f+3     :     0.000000
      f-3     :     0.000000


                     *******************************
                     * LOEWDIN POPULATION ANALYSIS *
                     *******************************

----------------------
LOEWDIN ATOMIC CHARGES
----------------------
   0 Ne:    0.000000

-------------------------------
LOEWDIN REDUCED ORBITAL CHARGES
-------------------------------
  0 Nes       :     4.000000  s :     4.000000
      pz      :     2.000000  p :     6.000000
      px      :     2.000000
      py      :     2.000000
      dz2     :     0.000000  d :     0.000000
      dxz     :     0.000000
      dyz     :     0.000000
      dx2y2   :     0.000000
      dxy     :     0.000000
      f0      :     0.000000  f :     0.000000
      f+1     :     0.000000
      f-1     :     0.000000
      f+2     :     0.000000
      f-2     :     0.000000
      f+3     :     0.000000
      f-3     :     0.000000


                      *****************************
                      * MAYER POPULATION ANALYSIS *
                      *****************************

  NA   - Mulliken gross atomic population
  ZA   - Total nuclear charge
  QA   - Mulliken gross atomic charge
  VA   - Mayer's total valence
  BVA  - Mayer's bonded valence
  FA   - Mayer's free valence

  ATOM       NA         ZA         QA         VA         BVA        FA
  0 Ne    10.0000    10.0000     0.0000     0.0000     0.0000     0.0000

  Mayer bond orders larger than 0.100000


--------------------------
ATOM BASIS FOR ELEMENT Ne
--------------------------
 NewGTO Ne
 S 11
    1      45069.464022000000         0.000231550485
    2       6755.976865600000         0.001795070177
    3       1537.650286400000         0.009326873041
    4        435.516976670000         0.037754683032
    5        142.286556380000         0.120878150378
    6         51.692153804000         0.284587648394
    7         20.315870490000         0.412287825940
    8          8.202194264600         0.266135756218
    9          1.968127627800         0.032641762434
   10          0.779047560000        -0.015385576891
   11          0.302295020400         0.004749300386
 S 11
    1      45069.464022000000         0.000060049082
    2       6755.976865600000         0.000465524036
    3       1537.650286400000         0.002418782084
    4        435.516976670000         0.009791100460
    5        142.286556380000         0.031347902265
    6         51.692153804000         0.073803460425
    7         20.315870490000         0.169052742912
    8          8.202194264600         0.109125171167
    9          1.968127627800        -0.385166998970
   10          0.779047560000        -0.513512429179
   11          0.302295020400        -0.245059616340
 S 11
    1      45069.464022000000        -0.000032797968
    2       6755.976865600000        -0.000254262711
    3       1537.650286400000        -0.001321104912
    4        435.516976670000        -0.005347761998
    5        142.286556380000        -0.017121785354
    6         51.692153804000        -0.040310416852
    7         20.315870490000        -0.082398278958
    8          8.202194264600        -0.053188881412
    9          1.968127627800        -0.055260248557
   10          0.779047560000         1.784258885562
   11          0.302295020400        -1.959073360316
 S 11
    1      45069.464022000000        -0.000073312395
    2       6755.976865600000        -0.000568346436
    3       1537.650286400000        -0.002953029424
    4        435.516976670000        -0.011953705105
    5        142.286556380000        -0.038271855231
    6         51.692153804000        -0.090104764556
    7         20.315870490000        -0.295545879557
    8          8.202194264600        -0.190777707233
    9          1.968127627800         2.856551131367
   10          0.779047560000        -3.663631702625
   11          0.302295020400         1.478353229918
 S 11
    1      45069.464022000000         0.000769474812
    2       6755.976865600000         0.005965270527
    3       1537.650286400000         0.030994510172
    4        435.516976670000         0.125464118801
    5        142.286556380000         0.401695085254
    6         51.692153804000         0.945724759407
    7         20.315870490000        -1.049546293669
    8          8.202194264600        -0.677492225036
    9          1.968127627800         1.332681036407
   10          0.779047560000        -1.085963369056
   11          0.302295020400         0.375913055249
 P 6
    1         99.782996032000         0.006700074376
    2         23.176124101000         0.046889837685
    3          7.116394587200         0.177096650786
    4          2.441871143500         0.372715967985
    5          0.833896057700         0.404345284170
    6          0.266073113000         0.273999628752
 P 6
    1         99.782996032000         0.003916107692
    2         23.176124101000         0.027406509795
    3          7.116394587200         0.103510725012
    4          2.441871143500         0.217847711397
    5          0.833896057700         0.600125611728
    6          0.266073113000        -1.213866736784
 P 6
    1         99.782996032000         0.014449838220
    2         23.176124101000         0.101125827964
    3          7.116394587200         0.381938738212
    4          2.441871143500         0.803824724477
    5          0.833896057700        -1.586847589912
    6          0.266073113000         0.713736821041
 D 2
    1          4.014000000000         0.000393108759
    2          1.096000000000         0.999802893517
 D 2
    1          4.014000000000         1.155670769290
    2          1.096000000000        -0.579628549712
 F 1
    1          2.544000000000         1.000000000000
 end
  // -----------------------------------------------
  // The basis set
  // -----------------------------------------------
  BAS[ATNO] = new BFNGauss[NSH];
  // Basis function   1 L = s
  InitBFNGauss(BAS[ATNO][  0]);
  BAS[ATNO][  0].l  = 0;
  BAS[ATNO][  0].ng = 11;
  BAS[ATNO][  0].a[  0] =     45069.464022000000;     BAS[ATNO][  0].d[  0] =         0.000231550485;
  BAS[ATNO][  0].a[  1] =      6755.976865600000;     BAS[ATNO][  0].d[  1] =         0.001795070177;
  BAS[ATNO][  0].a[  2] =      1537.650286400000;     BAS[ATNO][  0].d[  2] =         0.009326873041;
  BAS[ATNO][  0].a[  3] =       435.516976670000;     BAS[ATNO][  0].d[  3] =         0.037754683032;
  BAS[ATNO][  0].a[  4] =       142.286556380000;     BAS[ATNO][  0].d[  4] =         0.120878150378;
  BAS[ATNO][  0].a[  5] =        51.692153804000;     BAS[ATNO][  0].d[  5] =         0.284587648394;
  BAS[ATNO][  0].a[  6] =        20.315870490000;     BAS[ATNO][  0].d[  6] =         0.412287825940;
  BAS[ATNO][  0].a[  7] =         8.202194264600;     BAS[ATNO][  0].d[  7] =         0.266135756218;
  BAS[ATNO][  0].a[  8] =         1.968127627800;     BAS[ATNO][  0].d[  8] =         0.032641762434;
  BAS[ATNO][  0].a[  9] =         0.779047560000;     BAS[ATNO][  0].d[  9] =        -0.015385576891;
  BAS[ATNO][  0].a[ 10] =         0.302295020400;     BAS[ATNO][  0].d[ 10] =         0.004749300386;

  // Basis function   2 L = s
  InitBFNGauss(BAS[ATNO][  1]);
  BAS[ATNO][  1].l  = 0;
  BAS[ATNO][  1].ng = 11;
  BAS[ATNO][  1].a[  0] =     45069.464022000000;     BAS[ATNO][  1].d[  0] =        -0.000060049082;
  BAS[ATNO][  1].a[  1] =      6755.976865600000;     BAS[ATNO][  1].d[  1] =        -0.000465524036;
  BAS[ATNO][  1].a[  2] =      1537.650286400000;     BAS[ATNO][  1].d[  2] =        -0.002418782084;
  BAS[ATNO][  1].a[  3] =       435.516976670000;     BAS[ATNO][  1].d[  3] =        -0.009791100460;
  BAS[ATNO][  1].a[  4] =       142.286556380000;     BAS[ATNO][  1].d[  4] =        -0.031347902265;
  BAS[ATNO][  1].a[  5] =        51.692153804000;     BAS[ATNO][  1].d[  5] =        -0.073803460425;
  BAS[ATNO][  1].a[  6] =        20.315870490000;     BAS[ATNO][  1].d[  6] =        -0.169052742912;
  BAS[ATNO][  1].a[  7] =         8.202194264600;     BAS[ATNO][  1].d[  7] =        -0.109125171167;
  BAS[ATNO][  1].a[  8] =         1.968127627800;     BAS[ATNO][  1].d[  8] =         0.385166998970;
  BAS[ATNO][  1].a[  9] =         0.779047560000;     BAS[ATNO][  1].d[  9] =         0.513512429179;
  BAS[ATNO][  1].a[ 10] =         0.302295020400;     BAS[ATNO][  1].d[ 10] =         0.245059616340;

  // Basis function   3 L = s
  InitBFNGauss(BAS[ATNO][  2]);
  BAS[ATNO][  2].l  = 0;
  BAS[ATNO][  2].ng = 11;
  BAS[ATNO][  2].a[  0] =     45069.464022000000;     BAS[ATNO][  2].d[  0] =         0.000032797968;
  BAS[ATNO][  2].a[  1] =      6755.976865600000;     BAS[ATNO][  2].d[  1] =         0.000254262711;
  BAS[ATNO][  2].a[  2] =      1537.650286400000;     BAS[ATNO][  2].d[  2] =         0.001321104912;
  BAS[ATNO][  2].a[  3] =       435.516976670000;     BAS[ATNO][  2].d[  3] =         0.005347761998;
  BAS[ATNO][  2].a[  4] =       142.286556380000;     BAS[ATNO][  2].d[  4] =         0.017121785354;
  BAS[ATNO][  2].a[  5] =        51.692153804000;     BAS[ATNO][  2].d[  5] =         0.040310416852;
  BAS[ATNO][  2].a[  6] =        20.315870490000;     BAS[ATNO][  2].d[  6] =         0.082398278958;
  BAS[ATNO][  2].a[  7] =         8.202194264600;     BAS[ATNO][  2].d[  7] =         0.053188881412;
  BAS[ATNO][  2].a[  8] =         1.968127627800;     BAS[ATNO][  2].d[  8] =         0.055260248557;
  BAS[ATNO][  2].a[  9] =         0.779047560000;     BAS[ATNO][  2].d[  9] =        -1.784258885562;
  BAS[ATNO][  2].a[ 10] =         0.302295020400;     BAS[ATNO][  2].d[ 10] =         1.959073360316;

  // Basis function   4 L = s
  InitBFNGauss(BAS[ATNO][  3]);
  BAS[ATNO][  3].l  = 0;
  BAS[ATNO][  3].ng = 11;
  BAS[ATNO][  3].a[  0] =     45069.464022000000;     BAS[ATNO][  3].d[  0] =         0.000073312395;
  BAS[ATNO][  3].a[  1] =      6755.976865600000;     BAS[ATNO][  3].d[  1] =         0.000568346436;
  BAS[ATNO][  3].a[  2] =      1537.650286400000;     BAS[ATNO][  3].d[  2] =         0.002953029424;
  BAS[ATNO][  3].a[  3] =       435.516976670000;     BAS[ATNO][  3].d[  3] =         0.011953705105;
  BAS[ATNO][  3].a[  4] =       142.286556380000;     BAS[ATNO][  3].d[  4] =         0.038271855231;
  BAS[ATNO][  3].a[  5] =        51.692153804000;     BAS[ATNO][  3].d[  5] =         0.090104764556;
  BAS[ATNO][  3].a[  6] =        20.315870490000;     BAS[ATNO][  3].d[  6] =         0.295545879557;
  BAS[ATNO][  3].a[  7] =         8.202194264600;     BAS[ATNO][  3].d[  7] =         0.190777707233;
  BAS[ATNO][  3].a[  8] =         1.968127627800;     BAS[ATNO][  3].d[  8] =        -2.856551131367;
  BAS[ATNO][  3].a[  9] =         0.779047560000;     BAS[ATNO][  3].d[  9] =         3.663631702625;
  BAS[ATNO][  3].a[ 10] =         0.302295020400;     BAS[ATNO][  3].d[ 10] =        -1.478353229918;

  // Basis function   5 L = s
  InitBFNGauss(BAS[ATNO][  4]);
  BAS[ATNO][  4].l  = 0;
  BAS[ATNO][  4].ng = 11;
  BAS[ATNO][  4].a[  0] =     45069.464022000000;     BAS[ATNO][  4].d[  0] =         0.000769474812;
  BAS[ATNO][  4].a[  1] =      6755.976865600000;     BAS[ATNO][  4].d[  1] =         0.005965270527;
  BAS[ATNO][  4].a[  2] =      1537.650286400000;     BAS[ATNO][  4].d[  2] =         0.030994510172;
  BAS[ATNO][  4].a[  3] =       435.516976670000;     BAS[ATNO][  4].d[  3] =         0.125464118801;
  BAS[ATNO][  4].a[  4] =       142.286556380000;     BAS[ATNO][  4].d[  4] =         0.401695085254;
  BAS[ATNO][  4].a[  5] =        51.692153804000;     BAS[ATNO][  4].d[  5] =         0.945724759407;
  BAS[ATNO][  4].a[  6] =        20.315870490000;     BAS[ATNO][  4].d[  6] =        -1.049546293669;
  BAS[ATNO][  4].a[  7] =         8.202194264600;     BAS[ATNO][  4].d[  7] =        -0.677492225036;
  BAS[ATNO][  4].a[  8] =         1.968127627800;     BAS[ATNO][  4].d[  8] =         1.332681036407;
  BAS[ATNO][  4].a[  9] =         0.779047560000;     BAS[ATNO][  4].d[  9] =        -1.085963369056;
  BAS[ATNO][  4].a[ 10] =         0.302295020400;     BAS[ATNO][  4].d[ 10] =         0.375913055249;

  // Basis function   6 L = p
  InitBFNGauss(BAS[ATNO][  5]);
  BAS[ATNO][  5].l  = 1;
  BAS[ATNO][  5].ng = 6;
  BAS[ATNO][  5].a[  0] =        99.782996032000;     BAS[ATNO][  5].d[  0] =         0.006700074376;
  BAS[ATNO][  5].a[  1] =        23.176124101000;     BAS[ATNO][  5].d[  1] =         0.046889837685;
  BAS[ATNO][  5].a[  2] =         7.116394587200;     BAS[ATNO][  5].d[  2] =         0.177096650786;
  BAS[ATNO][  5].a[  3] =         2.441871143500;     BAS[ATNO][  5].d[  3] =         0.372715967985;
  BAS[ATNO][  5].a[  4] =         0.833896057700;     BAS[ATNO][  5].d[  4] =         0.404345284170;
  BAS[ATNO][  5].a[  5] =         0.266073113000;     BAS[ATNO][  5].d[  5] =         0.273999628752;

  // Basis function   7 L = p
  InitBFNGauss(BAS[ATNO][  6]);
  BAS[ATNO][  6].l  = 1;
  BAS[ATNO][  6].ng = 6;
  BAS[ATNO][  6].a[  0] =        99.782996032000;     BAS[ATNO][  6].d[  0] =        -0.003916107692;
  BAS[ATNO][  6].a[  1] =        23.176124101000;     BAS[ATNO][  6].d[  1] =        -0.027406509795;
  BAS[ATNO][  6].a[  2] =         7.116394587200;     BAS[ATNO][  6].d[  2] =        -0.103510725012;
  BAS[ATNO][  6].a[  3] =         2.441871143500;     BAS[ATNO][  6].d[  3] =        -0.217847711397;
  BAS[ATNO][  6].a[  4] =         0.833896057700;     BAS[ATNO][  6].d[  4] =        -0.600125611728;
  BAS[ATNO][  6].a[  5] =         0.266073113000;     BAS[ATNO][  6].d[  5] =         1.213866736784;

  // Basis function   8 L = p
  InitBFNGauss(BAS[ATNO][  7]);
  BAS[ATNO][  7].l  = 1;
  BAS[ATNO][  7].ng = 6;
  BAS[ATNO][  7].a[  0] =        99.782996032000;     BAS[ATNO][  7].d[  0] =        -0.014449838220;
  BAS[ATNO][  7].a[  1] =        23.176124101000;     BAS[ATNO][  7].d[  1] =        -0.101125827964;
  BAS[ATNO][  7].a[  2] =         7.116394587200;     BAS[ATNO][  7].d[  2] =        -0.381938738212;
  BAS[ATNO][  7].a[  3] =         2.441871143500;     BAS[ATNO][  7].d[  3] =        -0.803824724477;
  BAS[ATNO][  7].a[  4] =         0.833896057700;     BAS[ATNO][  7].d[  4] =         1.586847589912;
  BAS[ATNO][  7].a[  5] =         0.266073113000;     BAS[ATNO][  7].d[  5] =        -0.713736821041;

  // Basis function   9 L = d
  InitBFNGauss(BAS[ATNO][  8]);
  BAS[ATNO][  8].l  = 2;
  BAS[ATNO][  8].ng = 2;
  BAS[ATNO][  8].a[  0] =         4.014000000000;     BAS[ATNO][  8].d[  0] =         0.000393108759;
  BAS[ATNO][  8].a[  1] =         1.096000000000;     BAS[ATNO][  8].d[  1] =         0.999802893517;

  // Basis function  10 L = d
  InitBFNGauss(BAS[ATNO][  9]);
  BAS[ATNO][  9].l  = 2;
  BAS[ATNO][  9].ng = 2;
  BAS[ATNO][  9].a[  0] =         4.014000000000;     BAS[ATNO][  9].d[  0] =         1.155670769290;
  BAS[ATNO][  9].a[  1] =         1.096000000000;     BAS[ATNO][  9].d[  1] =        -0.579628549712;

  // Basis function  11 L = f
  InitBFNGauss(BAS[ATNO][ 10]);
  BAS[ATNO][ 10].l  = 3;
  BAS[ATNO][ 10].ng = 1;
  BAS[ATNO][ 10].a[  0] =         2.544000000000;     BAS[ATNO][ 10].d[  0] =         1.000000000000;

-------
TIMINGS
-------

Total SCF time: 0 days 0 hours 0 min 1 sec 

Total time                  ....       1.023 sec
Sum of individual times     ....       0.941 sec  ( 92.0%)

Fock matrix formation       ....       0.650 sec  ( 63.5%)
  Split-RI-J                ....       0.498 sec  ( 76.6% of F)
  XC integration            ....       0.147 sec  ( 22.7% of F)
    Basis function eval.    ....       0.046 sec  ( 31.3% of XC)
    Density eval.           ....       0.032 sec  ( 22.0% of XC)
    XC-Functional eval.     ....       0.027 sec  ( 18.6% of XC)
    XC-Potential eval.      ....       0.030 sec  ( 20.4% of XC)
Diagonalization             ....       0.001 sec  (  0.1%)
Density matrix formation    ....       0.000 sec  (  0.0%)
Population analysis         ....       0.003 sec  (  0.3%)
Initial guess               ....       0.093 sec  (  9.1%)
Orbital Transformation      ....       0.000 sec  (  0.0%)
Orbital Orthonormalization  ....       0.000 sec  (  0.0%)
DIIS solution               ....       0.000 sec  (  0.0%)
SOSCF solution              ....       0.001 sec  (  0.1%)
Grid generation             ....       0.193 sec  ( 18.9%)


-------------------------------------------------------------------------------
                          DFT DISPERSION CORRECTION                            
                                                                               
                                 DFTD4 V2.0                                    
-------------------------------------------------------------------------------
The BLYP functional is recognized
Active option DFTDOPT                   ...         5   

-------------------------   ----------------
Dispersion correction            0.000000000
-------------------------   ----------------


-------------------------   --------------------
FINAL SINGLE POINT ENERGY      -128.963722995612
-------------------------   --------------------


                            ***************************************
                            *     ORCA property calculations      *
                            ***************************************

                                    ---------------------
                                    Active property flags
                                    ---------------------
   (+) Dipole Moment


------------------------------------------------------------------------------
                       ORCA ELECTRIC PROPERTIES CALCULATION
------------------------------------------------------------------------------

Dipole Moment Calculation                       ... on
Quadrupole Moment Calculation                   ... off
Polarizability Calculation                      ... off
GBWName                                         ... neon.gbw
Electron density file                           ... neon.scfp
The origin for moment calculation is the CENTER OF MASS  = ( 0.000000,  0.000000  0.000000)

-------------
DIPOLE MOMENT
-------------
                                X             Y             Z
Electronic contribution:      0.00000       0.00000      -0.00000
Nuclear contribution   :      0.00000       0.00000       0.00000
                        -----------------------------------------
Total Dipole Moment    :      0.00000       0.00000      -0.00000
                        -----------------------------------------
Magnitude (a.u.)       :      0.00000
Magnitude (Debye)      :      0.00000



--------------------
Rotational spectrum 
--------------------
 
Rotational constants in cm-1:     0.000000     0.000000     0.000000 
Rotational constants in MHz :     0.000000     0.000000     0.000000 

 Dipole components along the rotational axes: 
x,y,z [a.u.] :     0.000000     0.000000    -0.000000 
x,y,z [Debye]:     0.000000     0.000000    -0.000000 

 

Timings for individual modules:

Sum of individual times         ...        1.200 sec (=   0.020 min)
GTO integral calculation        ...        0.148 sec (=   0.002 min)  12.4 %
SCF iterations                  ...        1.052 sec (=   0.018 min)  87.6 %
                             ****ORCA TERMINATED NORMALLY****
TOTAL RUN TIME: 0 days 0 hours 0 minutes 1 seconds 413 msec
