SLURM_JOB_ID=105

                                 *****************
                                 * O   R   C   A *
                                 *****************

           --- An Ab Initio, DFT and Semiempirical electronic structure package ---

                  #######################################################
                  #                        -***-                        #
                  #          Department of theory and spectroscopy      #
                  #               Directorship: Frank Neese             #
                  #        Max Planck Institute fuer Kohlenforschung    #
                  #                Kaiser Wilhelm Platz 1               #
                  #                 D-45470 Muelheim/Ruhr               #
                  #                      Germany                        #
                  #                                                     #
                  #                  All rights reserved                #
                  #                        -***-                        #
                  #######################################################


                         Program Version 4.2.1 -  RELEASE  -


 With contributions from (in alphabetic order):
   Daniel Aravena         : Magnetic Suceptibility
   Michael Atanasov       : Ab Initio Ligand Field Theory (pilot matlab implementation)
   Alexander A. Auer      : GIAO ZORA, VPT2
   Ute Becker             : Parallelization
   Giovanni Bistoni       : ED, misc. LED, open-shell LED, HFLD
   Martin Brehm           : Molecular dynamics
   Dmytro Bykov           : SCF Hessian
   Vijay G. Chilkuri      : MRCI spin determinant printing, contributions to CSF-ICE
   Dipayan Datta          : RHF DLPNO-CCSD density
   Achintya Kumar Dutta   : EOM-CC, STEOM-CC
   Dmitry Ganyushin       : Spin-Orbit,Spin-Spin,Magnetic field MRCI
   Miquel Garcia          : C-PCM Hessian, Gaussian charge scheme
   Yang Guo               : DLPNO-NEVPT2, CIM, IAO-localization
   Andreas Hansen         : Spin unrestricted coupled pair/coupled cluster methods
   Benjamin Helmich-Paris : CASSCF linear response (MC-RPA)
   Lee Huntington         : MR-EOM, pCC
   Robert Izsak           : Overlap fitted RIJCOSX, COSX-SCS-MP3, EOM
   Christian Kollmar      : KDIIS, OOCD, Brueckner-CCSD(T), CCSD density
   Simone Kossmann        : Meta GGA functionals, TD-DFT gradient, OOMP2, MP2 Hessian
   Martin Krupicka        : AUTO-CI
   Lucas Lang             : DCDCAS
   Dagmar Lenk            : GEPOL surface, SMD
   Dimitrios Liakos       : Extrapolation schemes; Compound Job, initial MDCI parallelization
   Dimitrios Manganas     : Further ROCIS development; embedding schemes
   Dimitrios Pantazis     : SARC Basis sets
   Taras Petrenko         : DFT Hessian,TD-DFT gradient, ASA, ECA, R-Raman, ABS, FL, XAS/XES, NRVS
   Peter Pinski           : DLPNO-MP2, DLPNO-MP2 Gradient
   Christoph Reimann      : Effective Core Potentials
   Marius Retegan         : Local ZFS, SOC
   Christoph Riplinger    : Optimizer, TS searches, QM/MM, DLPNO-CCSD(T), (RO)-DLPNO pert. Triples
   Tobias Risthaus        : Range-separated hybrids, TD-DFT gradient, RPA, STAB
   Michael Roemelt        : Original ROCIS implementation
   Masaaki Saitow         : Open-shell DLPNO-CCSD energy and density
   Barbara Sandhoefer     : DKH picture change effects
   Avijit Sen             : IP-ROCIS
   Kantharuban Sivalingam : CASSCF convergence, NEVPT2, FIC-MRCI
   Bernardo de Souza      : ESD, SOC TD-DFT
   Georgi Stoychev        : AutoAux, RI-MP2 NMR
   Willem Van den Heuvel  : Paramagnetic NMR
   Boris Wezisla          : Elementary symmetry handling
   Frank Wennmohs         : Technical directorship


 We gratefully acknowledge several colleagues who have allowed us to
 interface, adapt or use parts of their codes:
   Stefan Grimme, W. Hujo, H. Kruse,             : VdW corrections, initial TS optimization,
                  C. Bannwarth                     DFT functionals, gCP, sTDA/sTD-DF
   Ed Valeev, F. Pavosevic, A. Kumar             : LibInt (2-el integral package), F12 methods
   Garnet Chan, S. Sharma, J. Yang, R. Olivares  : DMRG
   Ulf Ekstrom                                   : XCFun DFT Library
   Mihaly Kallay                                 : mrcc  (arbitrary order and MRCC methods)
   Andreas Klamt, Michael Diedenhofen            : otool_cosmo (COSMO solvation model)
   Jiri Pittner, Ondrej Demel                    : Mk-CCSD
   Frank Weinhold                                : gennbo (NPA and NBO analysis)
   Christopher J. Cramer and Donald G. Truhlar   : smd solvation model
   Lars Goerigk                                  : TD-DFT with DH, B97 family of functionals
   V. Asgeirsson, H. Jonsson                     : NEB implementation
   FAccTs GmbH                                   : IRC, NEB, NEB-TS, Multilevel, MM, QM/MM, CI optimization
   S Lehtola, MJT Oliveira, MAL Marques          : LibXC Library


 Your calculation uses the libint2 library for the computation of 2-el integrals
 For citations please refer to: http://libint.valeyev.net

 Your ORCA version has been built with support for libXC version: 4.2.3
 For citations please refer to: https://tddft.org/programs/libxc/

 This ORCA versions uses:
   CBLAS   interface :  Fast vector & matrix operations
   LAPACKE interface :  Fast linear algebra routines
   SCALAPACK package :  Parallel linear algebra routines




***************************************
The coordinates will be read from file: init.xyz
***************************************


Your calculation utilizes the SMD solvation module
Please cite in your paper:
A.V. Marenich, C.J. Cramer, D.G. Truhlar J. Phys. Chem. B, 113, (2009), 6378 

Your calculation utilizes the semiempirical GFN2-xTB method
Please cite in your paper:
C. Bannwarth, Ehlert S., S. Grimme,  J. Chem. Theory Comput., 15, (2019), 1652.
   

----- Orbital basis set information -----
Your calculation utilizes the basis: def2-SVP
   F. Weigend and R. Ahlrichs, Phys. Chem. Chem. Phys. 7, 3297 (2005).

================================================================================
                                        WARNINGS
                       Please study these warnings very carefully!
================================================================================

WARNING: Gradients needed for Numerical Frequencies
  ===> : Setting RunTyp to EnGrad

WARNING: The environment variable RSH_COMMAND is not set!
  ===> : All Displacements for the Numerical Hessian calculation
         will be started on localhost

WARNING: Found dipole moment calculation with XTB calculation
  ===> : Switching off dipole moment calculation


INFO   : the flag for use of LIBINT has been found!

================================================================================
                                       INPUT FILE
================================================================================
NAME = /tmp/slurm-scratch/freq.105/freq.inp
|  1> ! XTB2 NumFreq
|  2> %maxcore 2000
|  3> 
|  4> * xyzfile 0 1 init.xyz
|  5> 
|  6> %cpcm
|  7>  smd true
|  8>  smdsolvent "ch2cl2"
|  9> end
| 10> %pal nprocs 11 end
| 11> 
| 12>                          ****END OF INPUT****
================================================================================

                     *******************************
                     * Energy+Gradient Calculation *
                     *******************************

      -----------------------------------------------------------      
     |                   =====================                   |     
     |                           x T B                           |     
     |                   =====================                   |     
     |                         S. Grimme                         |     
     |          Mulliken Center for Theoretical Chemistry        |     
     |                    University of Bonn                     |     
      -----------------------------------------------------------      

   * xtb version 6.3.1 (461a024) compiled by 'schneider@apollo14' on 2020-06-26

   xtb is free software: you can redistribute it and/or modify it under
   the terms of the GNU Lesser General Public License as published by
   the Free Software Foundation, either version 3 of the License, or
   (at your option) any later version.
   
   xtb is distributed in the hope that it will be useful,
   but WITHOUT ANY WARRANTY; without even the implied warranty of
   MERCHANTABILITY or FITNESS FOR A PARTICULAR PURPOSE.  See the
   GNU Lesser General Public License for more details.
   
   Cite this work as:
   * S. Grimme, C. Bannwarth, P. Shushkov, J. Chem. Theory Comput., 2017,
     13, 1989-2009. DOI: 10.1021/acs.jctc.7b00118
   * C. Bannwarth, S. Ehlert and S. Grimme., J. Chem. Theory Comput., 2019,
     15, 1652-1671. DOI: 10.1021/acs.jctc.8b01176
   * P. Pracht, E. Caldeweyher, S. Ehlert, S. Grimme, ChemRxiv, 2019, preprint.
     DOI: 10.26434/chemrxiv.8326202.v1
   
   for GFN-FF:
   * S. Spicher and S. Grimme, Angew. Chem. Int. Ed., 2020,
     DOI: 10.1002/anie.202004239
   
   for DFT-D4:
   * E. Caldeweyher, C. Bannwarth and S. Grimme, J. Chem. Phys., 2017,
     147, 034112. DOI: 10.1063/1.4993215
   * E. Caldeweyher, S. Ehlert, A. Hansen, H. Neugebauer, S. Spicher,
     C. Bannwarth and S. Grimme, J. Chem. Phys., 2019, 150, 154122.
     DOI: 10.1063/1.5090222
   
   for sTDA-xTB:
   * S. Grimme and C. Bannwarth, J. Chem. Phys., 2016, 145, 054103.
     DOI: 10.1063/1.4959605
   
   in the mass-spec context:
   * V. Asgeirsson, C. Bauer and S. Grimme, Chem. Sci., 2017, 8, 4879.
     DOI: 10.1039/c7sc00601b
   * J. Koopman and S. Grimme, ACS Omega 2019, 4, 12, 15120-15133.
     DOI: 10.1021/acsomega.9b02011
   
   for metadynamics refer to:
   * S. Grimme, J. Chem. Theory Comput., 2019, 155, 2847-2862
     DOI: 10.1021/acs.jctc.9b00143
   
   with help from (in alphabetical order)
   C. Bannwarth, F. Bohle, G. Brandenburg, E. Caldeweyher, M. Checinski,
   S. Dohm, S. Ehlert, S. Ehrlich, F. März, H. Neugebauer, J. Pisarek,
   P. Pracht, P. Shushkov, and S. Spicher.
   
 * started run on 2020/08/05 at 12:32:42.725     

           -------------------------------------------------
          |                Calculation Setup                |
           -------------------------------------------------

          program call               : /opt/orca/otool_xtb /tmp/slurm-scratch/freq.105/freq_XTB.xyz --grad -c 0 -u 0 -P 11 --namespace /tmp/slurm-scratch/freq.105/freq --gbsa CH2Cl2
          hostname                   : apollo14
          calculation namespace      : /tmp/slurm-scratch/freq.105/freq
          coordinate file            : /tmp/slurm-scratch/freq.105/freq_XTB.xyz
          omp threads                :                    11
          number of atoms            :                    33
          number of electrons        :                    80
          charge                     :                     0
          spin                       :                   0.0
          first test random number   :      0.21985225963548

   ID    Z sym.   atoms
    1    6 C      1-6, 12, 18, 22, 27, 30
    2    1 H      7-9, 11, 13-15, 17, 19, 21, 23-26, 28, 29, 31-33
    3    7 N      10
    4    8 O      16, 20

molecular fragmentation (1/2 indicates fragments):
111111111121111221122111111111111
# atoms in fragment 1/2:    28     5
 fragment masses (1/2) :      162.25       35.02
CMA distance (Bohr)    :   5.282
constraining FC (au)   :  0.0500
########################################################################
[WARNING] Please study the warnings concerning your input carefully
-1- prog_main_parseArguments: Process number higher than OMP_NUM_THREADS, I hope you know what you are doing.
########################################################################

           -------------------------------------------------
          |                 G F N 2 - x T B                 |
           -------------------------------------------------

        Reference                      10.1021/acs.jctc.8b01176
      * Hamiltonian:
        H0-scaling (s, p, d)           1.850000    2.230000    2.230000
        zeta-weighting                 0.500000
      * Dispersion:
        s8                             2.700000
        a1                             0.520000
        a2                             5.000000
        s9                             5.000000
      * Repulsion:
        kExp                           1.500000    1.000000
        rExp                           1.000000
      * Coulomb:
        alpha                          2.000000
        third order                    shell-resolved
        anisotropic                    true
        a3                             3.000000
        a5                             4.000000
        cn-shift                       1.200000
        cn-exp                         4.000000
        max-rad                        5.000000

      * Solvation model:               GBSA
        Solvent                        CH2Cl2
        Parameter file                 internal GFN2-xTB/GBSA
        Dielectric constant                8.9300E+00
        Reference state                gsolv [1 M gas/solution]
        Free energy shift                  4.4408E-03 Eh       2.7867E+00 kcal/mol
        Temperature                        2.9815E+02 K
        Density                            1.3300E+00 kg/L
        Solvent mass                       8.4930E+01 g/mol
        Interaction kernel             Still
        Born radius scaling (c1)           1.4917E+00
        Born radii integrator          GBOBC
        Born offset                        0.0000E+00 a0       0.0000E+00 AA
        H-bond correction              false
        Ion screening                  false
        Surface tension                    1.0000E-05 Eh       1.5569E+01 dyn/cm
        Grid points                               230 per atom

          ...................................................
          :                      SETUP                      :
          :.................................................:
          :  # basis functions                  75          :
          :  # atomic orbitals                  75          :
          :  # shells                           47          :
          :  # electrons                        80          :
          :  max. iterations                   250          :
          :  Hamiltonian                  GFN2-xTB          :
          :  restarted?                      false          :
          :  GBSA solvation                   true          :
          :  PC potential                    false          :
          :  electronic temp.          300.0000000     K    :
          :  accuracy                    1.0000000          :
          :  -> integral cutoff          0.2500000E+02      :
          :  -> integral neglect         0.1000000E-07      :
          :  -> SCF convergence          0.1000000E-05 Eh   :
          :  -> wf. convergence          0.1000000E-03 e    :
          :  Broyden damping             0.4000000          :
          ...................................................

 iter      E             dE          RMSdq      gap      omega  full diag
   1    -44.7554129 -0.447554E+02  0.404E+00    3.35       0.0  T
   2    -44.8465203 -0.911074E-01  0.234E+00    2.66       1.0  T
   3    -44.8469966 -0.476338E-03  0.938E-01    1.67       1.0  T
   4    -44.8509396 -0.394301E-02  0.468E-01    2.05       1.0  T
   5    -44.8547351 -0.379550E-02  0.854E-02    1.96       1.0  T
   6    -44.8547771 -0.419721E-04  0.380E-02    1.96       1.0  T
   7    -44.8547802 -0.312196E-05  0.177E-02    1.98       1.0  T
   8    -44.8547830 -0.279592E-05  0.649E-03    1.98       2.7  T
   9    -44.8547835 -0.448234E-06  0.232E-03    1.98       7.5  T
  10    -44.8547835 -0.291508E-07  0.123E-03    1.98      14.1  T
  11    -44.8547835 -0.842434E-08  0.509E-04    1.98      34.2  T
  12    -44.8547835 -0.331854E-08  0.121E-04    1.98     143.5  T

   *** convergence criteria satisfied after 12 iterations ***

         #    Occupation            Energy/Eh            Energy/eV
      -------------------------------------------------------------
         1        2.0000           -0.6874071             -18.7053
       ...           ...                  ...                  ...
        34        2.0000           -0.4384721             -11.9314
        35        2.0000           -0.4261629             -11.5965
        36        2.0000           -0.4233721             -11.5205
        37        2.0000           -0.4207627             -11.4495
        38        2.0000           -0.3963236             -10.7845
        39        2.0000           -0.3904514             -10.6247
        40        2.0000           -0.3757699             -10.2252 (HOMO)
        41                         -0.3031313              -8.2486 (LUMO)
        42                         -0.2421297              -6.5887
        43                         -0.2131565              -5.8003
        44                         -0.1046926              -2.8488
        45                         -0.0189410              -0.5154
       ...                                ...                  ...
        75                          0.6390234              17.3887
      -------------------------------------------------------------
                  HL-Gap            0.0726387 Eh            1.9766 eV
             Fermi-level           -0.3394506 Eh           -9.2369 eV

 SCC (total)                   0 d,  0 h,  0 min,  0.126 sec
 SCC setup                      ...        0 min,  0.006 sec (  4.820%)
 Dispersion                     ...        0 min,  0.006 sec (  4.821%)
 classical contributions        ...        0 min,  0.005 sec (  4.264%)
 integral evaluation            ...        0 min,  0.015 sec ( 11.791%)
 iterations                     ...        0 min,  0.039 sec ( 30.610%)
 molecular gradient             ...        0 min,  0.052 sec ( 41.236%)
 printout                       ...        0 min,  0.003 sec (  2.436%)

         :::::::::::::::::::::::::::::::::::::::::::::::::::::
         ::                     SUMMARY                     ::
         :::::::::::::::::::::::::::::::::::::::::::::::::::::
         :: total energy             -44.242712437396 Eh    ::
         :: total w/o Gsasa/hb       -44.225655593979 Eh    ::
         :: gradient norm              0.028133038841 Eh/a0 ::
         :: HOMO-LUMO gap              1.976598801207 eV    ::
         ::.................................................::
         :: SCC energy               -44.854783503246 Eh    ::
         :: -> isotropic ES            0.147715926179 Eh    ::
         :: -> anisotropic ES         -0.017046767549 Eh    ::
         :: -> anisotropic XC          0.023916505554 Eh    ::
         :: -> dispersion             -0.026192798862 Eh    ::
         :: -> Gsolv                  -0.040318022888 Eh    ::
         ::    -> Gborn               -0.023261179470 Eh    ::
         ::    -> Gsasa               -0.021497672591 Eh    ::
         ::    -> Ghb                  0.000000000000 Eh    ::
         ::    -> Gshift               0.004440829173 Eh    ::
         :: repulsion energy           0.612034358054 Eh    ::
         :: add. restraining           0.000000000000 Eh    ::
         :::::::::::::::::::::::::::::::::::::::::::::::::::::

           -------------------------------------------------
          |                Property Printout                |
           -------------------------------------------------

    * Orbital Energies and Occupations

         #    Occupation            Energy/Eh            Energy/eV
      -------------------------------------------------------------
         1        2.0000           -0.6874071             -18.7053
       ...           ...                  ...                  ...
        28        2.0000           -0.4716849             -12.8352
        29        2.0000           -0.4673011             -12.7159
        30        2.0000           -0.4521957             -12.3049
        31        2.0000           -0.4508289             -12.2677
        32        2.0000           -0.4441231             -12.0852
        33        2.0000           -0.4392166             -11.9517
        34        2.0000           -0.4384721             -11.9314
        35        2.0000           -0.4261629             -11.5965
        36        2.0000           -0.4233721             -11.5205
        37        2.0000           -0.4207627             -11.4495
        38        2.0000           -0.3963236             -10.7845
        39        2.0000           -0.3904514             -10.6247
        40        2.0000           -0.3757699             -10.2252 (HOMO)
        41                         -0.3031313              -8.2486 (LUMO)
        42                         -0.2421297              -6.5887
        43                         -0.2131565              -5.8003
        44                         -0.1046926              -2.8488
        45                         -0.0189410              -0.5154
        46                          0.0488266               1.3286
        47                          0.0841711               2.2904
        48                          0.0910528               2.4777
        49                          0.1065375               2.8990
        50                          0.1098994               2.9905
        51                          0.1219342               3.3180
       ...                                ...                  ...
        75                          0.6390234              17.3887
      -------------------------------------------------------------
                  HL-Gap            0.0726387 Eh            1.9766 eV
             Fermi-level           -0.3394506 Eh           -9.2369 eV

     #   Z        covCN         q      C6AA      α(0)
     1   6 C      2.913    -0.024    28.604     8.770
     2   6 C      2.923    -0.023    28.570     8.766
     3   6 C      2.970     0.018    27.612     8.619
     4   6 C      2.918    -0.025    28.623     8.773
     5   6 C      2.914    -0.024    28.605     8.770
     6   6 C      2.916    -0.018    28.465     8.749
     7   1 H      0.925     0.055     2.256     2.349
     8   1 H      0.926     0.055     2.262     2.352
     9   1 H      0.925     0.056     2.248     2.345
    10   7 N      2.680    -0.069    22.580     7.057
    11   1 H      1.041     0.319     0.651     1.261
    12   6 C      3.746    -0.013    20.878     6.518
    13   1 H      0.924     0.075     2.030     2.228
    14   1 H      0.924     0.067     2.121     2.278
    15   1 H      0.857     0.262     0.839     1.435
    16   8 O      1.398    -0.765    29.818     7.353
    17   1 H      0.805     0.220     1.020     1.586
    18   6 C      2.841     0.093    25.917     8.343
    19   1 H      0.925     0.091     1.868     2.137
    20   8 O      1.254    -0.759    29.987     7.358
    21   1 H      0.805     0.224     1.000     1.571
    22   6 C      3.802    -0.066    21.773     6.643
    23   1 H      0.924     0.052     2.293     2.368
    24   1 H      0.924     0.055     2.258     2.350
    25   1 H      0.925     0.055     2.259     2.350
    26   1 H      0.925     0.054     2.270     2.356
    27   6 C      3.800    -0.055    21.560     6.611
    28   1 H      0.924     0.037     2.485     2.465
    29   1 H      0.924     0.040     2.453     2.449
    30   6 C      3.749    -0.105    22.572     6.776
    31   1 H      0.924     0.039     2.457     2.451
    32   1 H      0.924     0.040     2.450     2.448
    33   1 H      0.924     0.038     2.472     2.459

 Mol. C6AA /au·bohr⁶  :       9511.096225
 Mol. C8AA /au·bohr⁸  :     213105.068747
 Mol. α(0) /au        :        150.346215


Wiberg/Mayer (AO) data.
largest (>0.10) Wiberg bond orders for each atom
          total WBO             WBO to atom ...
     1  C   3.990        C    2 1.462    C    6 1.427    H   25 0.969    C    4 0.103
     2  C   3.986        C    1 1.462    C    3 1.357    H    7 0.967    C    5 0.103
     3  C   3.986        C    2 1.357    C    4 1.356    C   18 1.113
     4  C   3.990        C    5 1.465    C    3 1.356    H    8 0.963    C    1 0.103
     5  C   3.991        C    4 1.465    C    6 1.424    H   26 0.969    C    2 0.103
     6  C   3.985        C    1 1.427    C    5 1.424    H    9 0.970
     7  H   0.997        C    2 0.967
     8  H   0.997        C    4 0.963
     9  H   0.996        C    6 0.970
    10  N   3.601        C   18 1.575    C   12 0.985    H   15 0.803
    11  H   0.898        O   16 0.492    O   20 0.404
    12  C   3.954        C   22 0.991    N   10 0.985    H   14 0.969    H   13 0.956
    13  H   0.992        C   12 0.956
    14  H   0.995        C   12 0.969
    15  H   0.931        N   10 0.803
    16  O   1.721        H   21 0.944    H   11 0.492    O   20 0.117
    17  H   0.952        O   20 0.947
    18  C   3.933        N   10 1.575    C    3 1.113    H   19 0.948    O   20 0.156
    19  H   0.991        C   18 0.948
    20  O   1.757        H   17 0.947    H   11 0.404    C   18 0.156    O   16 0.117
    21  H   0.950        O   16 0.944
    22  C   3.987        C   27 1.005    C   12 0.991    H   24 0.975    H   23 0.975
    23  H   0.997        C   22 0.975
    24  H   0.997        C   22 0.975
    25  H   0.997        C    1 0.969
    26  H   0.997        C    5 0.969
    27  C   3.995        C   30 1.019    C   22 1.005    H   28 0.977    H   29 0.977
    28  H   0.999        C   27 0.977
    29  H   0.998        C   27 0.977
    30  C   3.995        C   27 1.019    H   33 0.987    H   32 0.987    H   31 0.987
    31  H   0.998        C   30 0.987
    32  H   0.998        C   30 0.987
    33  H   0.999        C   30 0.987
Topologies differ in total number of bonds
Writing topology from bond orders to xtbtopo.mol

molecular dipole:
                 x           y           z       tot (Debye)
 q only:        0.565       2.802      -1.272
   full:        0.956       2.482      -1.128       7.343
molecular quadrupole (traceless):
                xx          xy          yy          xz          yz          zz
 q only:       17.714     -11.754     -10.927       3.762       5.018      -6.787
  q+dip:       15.166     -11.558     -10.982       3.188       9.243      -4.184
   full:       14.492     -12.240      -9.429       3.497       6.951      -5.063


           -------------------------------------------------
          | TOTAL ENERGY              -44.242712437396 Eh   |
          | GRADIENT NORM               0.028133038841 Eh/α |
          | HOMO-LUMO GAP               1.976598801207 eV   |
           -------------------------------------------------

------------------------------------------------------------------------
 * finished run on 2020/08/05 at 12:32:42.929     
------------------------------------------------------------------------
 total:
 * wall-time:     0 d,  0 h,  0 min,  0.203 sec
 *  cpu-time:     0 d,  0 h,  0 min,  2.368 sec
 * ratio c/w:    11.646 speedup
 SCF:
 * wall-time:     0 d,  0 h,  0 min,  0.135 sec
 *  cpu-time:     0 d,  0 h,  0 min,  1.566 sec
 * ratio c/w:    11.604 speedup


-------------------------   --------------------
FINAL SINGLE POINT ENERGY       -44.242712437400
-------------------------   --------------------


----------------------------------------------------------------------------
                           ORCA NUMERICAL FREQUENCIES
                              (11-process run)
----------------------------------------------------------------------------

Number of atoms                ... 33
Central differences            ... used
Number of displacements        ... 198
Numerical increment            ... 5.000e-03 bohr
IR-spectrum generation         ... on
Raman-spectrum generation      ... off
Surface Crossing Hessian       ... off
List of participating nodes    ...  /tmp/slurm-scratch/freq.105/freq.hostnames

The output will be reduced. Please look at the following files:
SCF program output             ... >/tmp/slurm-scratch/freq.105/freq.lastscf
Integral program output        ... >/tmp/slurm-scratch/freq.105/freq.lastint
Gradient program output        ... >/tmp/slurm-scratch/freq.105/freq.lastgrad
Dipole moment program output   ... >/tmp/slurm-scratch/freq.105/freq.lastmom
AutoCI program output          ... >/tmp/slurm-scratch/freq.105/freq.lastautoci


         <<< Energy and Gradient at the input geometry >>>

        <<< Energy and Gradient at displaced geometries >>>
             <<<Displacing   4/coordinate 1 (+)>>>
             <<<Displacing   2/coordinate 1 (+)>>>
             <<<Displacing   2/coordinate 2 (+)>>>
             <<<Displacing   1/coordinate 3 (+)>>>
             <<<Displacing   4/coordinate 1 (-)>>>
             <<<Displacing   3/coordinate 2 (+)>>>
             <<<Displacing   1/coordinate 1 (+)>>>
             <<<Displacing   1/coordinate 2 (+)>>>
             <<<Displacing   3/coordinate 3 (+)>>>
             <<<Displacing   2/coordinate 2 (-)>>>
             <<<Displacing   4/coordinate 2 (+)>>>
             <<<Displacing   2/coordinate 3 (+)>>>
             <<<Displacing   1/coordinate 3 (-)>>>
             <<<Displacing   2/coordinate 1 (-)>>>
             <<<Displacing   3/coordinate 1 (+)>>>
             <<<Displacing   1/coordinate 1 (-)>>>
             <<<Displacing   3/coordinate 2 (-)>>>
             <<<Displacing   3/coordinate 3 (-)>>>
             <<<Displacing   1/coordinate 2 (-)>>>
             <<<Displacing   4/coordinate 2 (-)>>>
             <<<Displacing   2/coordinate 3 (-)>>>
             <<<Displacing   3/coordinate 1 (-)>>>
             <<<Displacing   4/coordinate 3 (+)>>>
             <<<Displacing   5/coordinate 2 (+)>>>
             <<<Displacing   4/coordinate 3 (-)>>>
             <<<Displacing   7/coordinate 2 (+)>>>
             <<<Displacing   5/coordinate 1 (+)>>>
             <<<Displacing   5/coordinate 2 (-)>>>
             <<<Displacing   5/coordinate 1 (-)>>>
             <<<Displacing   7/coordinate 2 (-)>>>
             <<<Displacing   7/coordinate 1 (+)>>>
             <<<Displacing   5/coordinate 3 (+)>>>
             <<<Displacing   6/coordinate 3 (+)>>>
             <<<Displacing   6/coordinate 1 (+)>>>
             <<<Displacing   7/coordinate 3 (+)>>>
             <<<Displacing   6/coordinate 2 (+)>>>
             <<<Displacing   7/coordinate 1 (-)>>>
             <<<Displacing   5/coordinate 3 (-)>>>
             <<<Displacing   6/coordinate 3 (-)>>>
             <<<Displacing   6/coordinate 1 (-)>>>
             <<<Displacing   7/coordinate 3 (-)>>>
             <<<Displacing   8/coordinate 1 (+)>>>
             <<<Displacing   6/coordinate 2 (-)>>>
             <<<Displacing   8/coordinate 1 (-)>>>
             <<<Displacing   8/coordinate 2 (+)>>>
             <<<Displacing   8/coordinate 3 (+)>>>
             <<<Displacing  11/coordinate 1 (+)>>>
             <<<Displacing   8/coordinate 2 (-)>>>
             <<<Displacing   8/coordinate 3 (-)>>>
             <<<Displacing  11/coordinate 1 (-)>>>
             <<<Displacing   9/coordinate 2 (+)>>>
             <<<Displacing   9/coordinate 1 (+)>>>
             <<<Displacing  10/coordinate 2 (+)>>>
             <<<Displacing  10/coordinate 1 (+)>>>
             <<<Displacing   9/coordinate 3 (+)>>>
             <<<Displacing   9/coordinate 2 (-)>>>
             <<<Displacing   9/coordinate 1 (-)>>>
             <<<Displacing  10/coordinate 3 (+)>>>
             <<<Displacing  10/coordinate 2 (-)>>>
             <<<Displacing  11/coordinate 2 (+)>>>
             <<<Displacing  10/coordinate 1 (-)>>>
             <<<Displacing  10/coordinate 3 (-)>>>
             <<<Displacing   9/coordinate 3 (-)>>>
             <<<Displacing  11/coordinate 2 (-)>>>
             <<<Displacing  11/coordinate 3 (+)>>>
             <<<Displacing  11/coordinate 3 (-)>>>
             <<<Displacing  12/coordinate 2 (+)>>>
             <<<Displacing  12/coordinate 1 (+)>>>
             <<<Displacing  13/coordinate 3 (+)>>>
             <<<Displacing  13/coordinate 1 (+)>>>
             <<<Displacing  12/coordinate 2 (-)>>>
             <<<Displacing  12/coordinate 1 (-)>>>
             <<<Displacing  12/coordinate 3 (+)>>>
             <<<Displacing  13/coordinate 1 (-)>>>
             <<<Displacing  13/coordinate 2 (+)>>>
             <<<Displacing  13/coordinate 3 (-)>>>
             <<<Displacing  14/coordinate 1 (+)>>>
             <<<Displacing  12/coordinate 3 (-)>>>
             <<<Displacing  13/coordinate 2 (-)>>>
             <<<Displacing  14/coordinate 1 (-)>>>
             <<<Displacing  14/coordinate 2 (+)>>>
             <<<Displacing  15/coordinate 2 (+)>>>
             <<<Displacing  14/coordinate 3 (+)>>>
             <<<Displacing  14/coordinate 2 (-)>>>
             <<<Displacing  15/coordinate 1 (+)>>>
             <<<Displacing  15/coordinate 2 (-)>>>
             <<<Displacing  14/coordinate 3 (-)>>>
             <<<Displacing  15/coordinate 1 (-)>>>
             <<<Displacing  15/coordinate 3 (+)>>>
             <<<Displacing  16/coordinate 2 (+)>>>
             <<<Displacing  17/coordinate 2 (+)>>>
             <<<Displacing  15/coordinate 3 (-)>>>
             <<<Displacing  16/coordinate 1 (+)>>>
             <<<Displacing  17/coordinate 2 (-)>>>
             <<<Displacing  16/coordinate 2 (-)>>>
             <<<Displacing  16/coordinate 3 (+)>>>
             <<<Displacing  16/coordinate 1 (-)>>>
             <<<Displacing  17/coordinate 1 (+)>>>
             <<<Displacing  16/coordinate 3 (-)>>>
             <<<Displacing  17/coordinate 1 (-)>>>
             <<<Displacing  18/coordinate 1 (+)>>>
             <<<Displacing  17/coordinate 3 (+)>>>
             <<<Displacing  18/coordinate 2 (+)>>>
             <<<Displacing  18/coordinate 1 (-)>>>
             <<<Displacing  17/coordinate 3 (-)>>>
             <<<Displacing  18/coordinate 3 (+)>>>
             <<<Displacing  18/coordinate 2 (-)>>>
             <<<Displacing  19/coordinate 1 (+)>>>
             <<<Displacing  18/coordinate 3 (-)>>>
             <<<Displacing  19/coordinate 1 (-)>>>
             <<<Displacing  19/coordinate 2 (+)>>>
             <<<Displacing  20/coordinate 1 (+)>>>
             <<<Displacing  19/coordinate 2 (-)>>>
             <<<Displacing  20/coordinate 3 (+)>>>
             <<<Displacing  20/coordinate 1 (-)>>>
             <<<Displacing  19/coordinate 3 (+)>>>
             <<<Displacing  21/coordinate 1 (+)>>>
             <<<Displacing  20/coordinate 2 (+)>>>
             <<<Displacing  20/coordinate 3 (-)>>>
             <<<Displacing  19/coordinate 3 (-)>>>
             <<<Displacing  21/coordinate 1 (-)>>>
             <<<Displacing  20/coordinate 2 (-)>>>
             <<<Displacing  21/coordinate 3 (+)>>>
             <<<Displacing  21/coordinate 2 (+)>>>
             <<<Displacing  22/coordinate 1 (+)>>>
             <<<Displacing  21/coordinate 3 (-)>>>
             <<<Displacing  22/coordinate 1 (-)>>>
             <<<Displacing  21/coordinate 2 (-)>>>
             <<<Displacing  22/coordinate 2 (+)>>>
             <<<Displacing  22/coordinate 3 (+)>>>
             <<<Displacing  22/coordinate 2 (-)>>>
             <<<Displacing  22/coordinate 3 (-)>>>
             <<<Displacing  23/coordinate 1 (+)>>>
             <<<Displacing  23/coordinate 2 (+)>>>
             <<<Displacing  23/coordinate 1 (-)>>>
             <<<Displacing  24/coordinate 1 (+)>>>
             <<<Displacing  23/coordinate 3 (+)>>>
             <<<Displacing  23/coordinate 2 (-)>>>
             <<<Displacing  24/coordinate 1 (-)>>>
             <<<Displacing  23/coordinate 3 (-)>>>
             <<<Displacing  24/coordinate 2 (+)>>>
             <<<Displacing  25/coordinate 1 (+)>>>
             <<<Displacing  25/coordinate 3 (+)>>>
             <<<Displacing  24/coordinate 2 (-)>>>
             <<<Displacing  25/coordinate 1 (-)>>>
             <<<Displacing  25/coordinate 3 (-)>>>
             <<<Displacing  24/coordinate 3 (+)>>>
             <<<Displacing  25/coordinate 2 (+)>>>
             <<<Displacing  24/coordinate 3 (-)>>>
             <<<Displacing  25/coordinate 2 (-)>>>
             <<<Displacing  26/coordinate 2 (+)>>>
             <<<Displacing  26/coordinate 1 (+)>>>
             <<<Displacing  26/coordinate 2 (-)>>>
             <<<Displacing  26/coordinate 1 (-)>>>
             <<<Displacing  28/coordinate 1 (+)>>>
             <<<Displacing  26/coordinate 3 (+)>>>
             <<<Displacing  27/coordinate 3 (+)>>>
             <<<Displacing  27/coordinate 2 (+)>>>
             <<<Displacing  28/coordinate 1 (-)>>>
             <<<Displacing  26/coordinate 3 (-)>>>
             <<<Displacing  28/coordinate 3 (+)>>>
             <<<Displacing  27/coordinate 3 (-)>>>
             <<<Displacing  27/coordinate 2 (-)>>>
             <<<Displacing  27/coordinate 1 (+)>>>
             <<<Displacing  28/coordinate 3 (-)>>>
             <<<Displacing  27/coordinate 1 (-)>>>
             <<<Displacing  29/coordinate 2 (+)>>>
             <<<Displacing  28/coordinate 2 (+)>>>
             <<<Displacing  29/coordinate 2 (-)>>>
             <<<Displacing  29/coordinate 1 (+)>>>
             <<<Displacing  28/coordinate 2 (-)>>>
             <<<Displacing  29/coordinate 1 (-)>>>
             <<<Displacing  30/coordinate 1 (+)>>>
             <<<Displacing  30/coordinate 1 (-)>>>
             <<<Displacing  29/coordinate 3 (+)>>>
             <<<Displacing  29/coordinate 3 (-)>>>
             <<<Displacing  30/coordinate 3 (+)>>>
             <<<Displacing  31/coordinate 2 (+)>>>
             <<<Displacing  30/coordinate 2 (+)>>>
             <<<Displacing  30/coordinate 3 (-)>>>
             <<<Displacing  31/coordinate 1 (+)>>>
             <<<Displacing  31/coordinate 2 (-)>>>
             <<<Displacing  30/coordinate 2 (-)>>>
             <<<Displacing  31/coordinate 1 (-)>>>
             <<<Displacing  32/coordinate 3 (+)>>>
             <<<Displacing  31/coordinate 3 (+)>>>
             <<<Displacing  32/coordinate 1 (+)>>>
             <<<Displacing  32/coordinate 3 (-)>>>
             <<<Displacing  32/coordinate 2 (+)>>>
             <<<Displacing  32/coordinate 1 (-)>>>
             <<<Displacing  31/coordinate 3 (-)>>>
             <<<Displacing  32/coordinate 2 (-)>>>
             <<<Displacing  33/coordinate 1 (+)>>>
             <<<Displacing  33/coordinate 1 (-)>>>
             <<<Displacing  33/coordinate 3 (+)>>>
             <<<Displacing  33/coordinate 2 (+)>>>
             <<<Displacing  33/coordinate 3 (-)>>>
             <<<Displacing  33/coordinate 2 (-)>>>

-----------------------
VIBRATIONAL FREQUENCIES
-----------------------

Scaling factor for frequencies =  1.000000000 (already applied!)

   0:         0.00 cm**-1
   1:         0.00 cm**-1
   2:         0.00 cm**-1
   3:         0.00 cm**-1
   4:         0.00 cm**-1
   5:         0.00 cm**-1
   6:      -717.14 cm**-1 ***imaginary mode***
   7:        26.30 cm**-1
   8:        56.07 cm**-1
   9:        58.12 cm**-1
  10:        79.94 cm**-1
  11:        86.23 cm**-1
  12:       103.99 cm**-1
  13:       120.93 cm**-1
  14:       126.95 cm**-1
  15:       155.26 cm**-1
  16:       173.36 cm**-1
  17:       213.36 cm**-1
  18:       261.20 cm**-1
  19:       275.16 cm**-1
  20:       276.89 cm**-1
  21:       332.57 cm**-1
  22:       376.60 cm**-1
  23:       401.74 cm**-1
  24:       425.89 cm**-1
  25:       446.23 cm**-1
  26:       463.17 cm**-1
  27:       496.28 cm**-1
  28:       532.80 cm**-1
  29:       585.23 cm**-1
  30:       589.88 cm**-1
  31:       612.98 cm**-1
  32:       630.35 cm**-1
  33:       663.88 cm**-1
  34:       751.96 cm**-1
  35:       778.88 cm**-1
  36:       786.65 cm**-1
  37:       815.16 cm**-1
  38:       825.40 cm**-1
  39:       859.44 cm**-1
  40:       872.05 cm**-1
  41:       908.92 cm**-1
  42:       932.51 cm**-1
  43:       934.20 cm**-1
  44:       938.52 cm**-1
  45:       943.61 cm**-1
  46:       949.30 cm**-1
  47:       985.44 cm**-1
  48:      1031.94 cm**-1
  49:      1068.39 cm**-1
  50:      1076.03 cm**-1
  51:      1099.98 cm**-1
  52:      1116.60 cm**-1
  53:      1129.22 cm**-1
  54:      1134.58 cm**-1
  55:      1179.94 cm**-1
  56:      1184.07 cm**-1
  57:      1207.21 cm**-1
  58:      1218.25 cm**-1
  59:      1236.26 cm**-1
  60:      1255.55 cm**-1
  61:      1258.77 cm**-1
  62:      1276.67 cm**-1
  63:      1277.15 cm**-1
  64:      1296.85 cm**-1
  65:      1308.52 cm**-1
  66:      1337.01 cm**-1
  67:      1351.38 cm**-1
  68:      1367.88 cm**-1
  69:      1420.00 cm**-1
  70:      1427.53 cm**-1
  71:      1451.34 cm**-1
  72:      1453.93 cm**-1
  73:      1496.64 cm**-1
  74:      1503.37 cm**-1
  75:      1505.49 cm**-1
  76:      1510.14 cm**-1
  77:      1548.63 cm**-1
  78:      1559.08 cm**-1
  79:      1564.59 cm**-1
  80:      1609.89 cm**-1
  81:      2733.56 cm**-1
  82:      2936.77 cm**-1
  83:      2951.38 cm**-1
  84:      2959.27 cm**-1
  85:      2966.99 cm**-1
  86:      2973.24 cm**-1
  87:      2975.82 cm**-1
  88:      2981.02 cm**-1
  89:      2996.97 cm**-1
  90:      2998.68 cm**-1
  91:      3058.98 cm**-1
  92:      3061.38 cm**-1
  93:      3064.24 cm**-1
  94:      3070.33 cm**-1
  95:      3076.92 cm**-1
  96:      3087.52 cm**-1
  97:      3613.97 cm**-1
  98:      3618.39 cm**-1


------------
NORMAL MODES
------------

These modes are the cartesian displacements weighted by the diagonal matrix
M(i,i)=1/sqrt(m[i]) where m[i] is the mass of the displaced atom
Thus, these vectors are normalized but *not* orthogonal

                  0          1          2          3          4          5    
      0       0.000000   0.000000   0.000000   0.000000   0.000000   0.000000
      1       0.000000   0.000000   0.000000   0.000000   0.000000   0.000000
      2       0.000000   0.000000   0.000000   0.000000   0.000000   0.000000
      3       0.000000   0.000000   0.000000   0.000000   0.000000   0.000000
      4       0.000000   0.000000   0.000000   0.000000   0.000000   0.000000
      5       0.000000   0.000000   0.000000   0.000000   0.000000   0.000000
      6       0.000000   0.000000   0.000000   0.000000   0.000000   0.000000
      7       0.000000   0.000000   0.000000   0.000000   0.000000   0.000000
      8       0.000000   0.000000   0.000000   0.000000   0.000000   0.000000
      9       0.000000   0.000000   0.000000   0.000000   0.000000   0.000000
     10       0.000000   0.000000   0.000000   0.000000   0.000000   0.000000
     11       0.000000   0.000000   0.000000   0.000000   0.000000   0.000000
     12       0.000000   0.000000   0.000000   0.000000   0.000000   0.000000
     13       0.000000   0.000000   0.000000   0.000000   0.000000   0.000000
     14       0.000000   0.000000   0.000000   0.000000   0.000000   0.000000
     15       0.000000   0.000000   0.000000   0.000000   0.000000   0.000000
     16       0.000000   0.000000   0.000000   0.000000   0.000000   0.000000
     17       0.000000   0.000000   0.000000   0.000000   0.000000   0.000000
     18       0.000000   0.000000   0.000000   0.000000   0.000000   0.000000
     19       0.000000   0.000000   0.000000   0.000000   0.000000   0.000000
     20       0.000000   0.000000   0.000000   0.000000   0.000000   0.000000
     21       0.000000   0.000000   0.000000   0.000000   0.000000   0.000000
     22       0.000000   0.000000   0.000000   0.000000   0.000000   0.000000
     23       0.000000   0.000000   0.000000   0.000000   0.000000   0.000000
     24       0.000000   0.000000   0.000000   0.000000   0.000000   0.000000
     25       0.000000   0.000000   0.000000   0.000000   0.000000   0.000000
     26       0.000000   0.000000   0.000000   0.000000   0.000000   0.000000
     27       0.000000   0.000000   0.000000   0.000000   0.000000   0.000000
     28       0.000000   0.000000   0.000000   0.000000   0.000000   0.000000
     29       0.000000   0.000000   0.000000   0.000000   0.000000   0.000000
     30       0.000000   0.000000   0.000000   0.000000   0.000000   0.000000
     31       0.000000   0.000000   0.000000   0.000000   0.000000   0.000000
     32       0.000000   0.000000   0.000000   0.000000   0.000000   0.000000
     33       0.000000   0.000000   0.000000   0.000000   0.000000   0.000000
     34       0.000000   0.000000   0.000000   0.000000   0.000000   0.000000
     35       0.000000   0.000000   0.000000   0.000000   0.000000   0.000000
     36       0.000000   0.000000   0.000000   0.000000   0.000000   0.000000
     37       0.000000   0.000000   0.000000   0.000000   0.000000   0.000000
     38       0.000000   0.000000   0.000000   0.000000   0.000000   0.000000
     39       0.000000   0.000000   0.000000   0.000000   0.000000   0.000000
     40       0.000000   0.000000   0.000000   0.000000   0.000000   0.000000
     41       0.000000   0.000000   0.000000   0.000000   0.000000   0.000000
     42       0.000000   0.000000   0.000000   0.000000   0.000000   0.000000
     43       0.000000   0.000000   0.000000   0.000000   0.000000   0.000000
     44       0.000000   0.000000   0.000000   0.000000   0.000000   0.000000
     45       0.000000   0.000000   0.000000   0.000000   0.000000   0.000000
     46       0.000000   0.000000   0.000000   0.000000   0.000000   0.000000
     47       0.000000   0.000000   0.000000   0.000000   0.000000   0.000000
     48       0.000000   0.000000   0.000000   0.000000   0.000000   0.000000
     49       0.000000   0.000000   0.000000   0.000000   0.000000   0.000000
     50       0.000000   0.000000   0.000000   0.000000   0.000000   0.000000
     51       0.000000   0.000000   0.000000   0.000000   0.000000   0.000000
     52       0.000000   0.000000   0.000000   0.000000   0.000000   0.000000
     53       0.000000   0.000000   0.000000   0.000000   0.000000   0.000000
     54       0.000000   0.000000   0.000000   0.000000   0.000000   0.000000
     55       0.000000   0.000000   0.000000   0.000000   0.000000   0.000000
     56       0.000000   0.000000   0.000000   0.000000   0.000000   0.000000
     57       0.000000   0.000000   0.000000   0.000000   0.000000   0.000000
     58       0.000000   0.000000   0.000000   0.000000   0.000000   0.000000
     59       0.000000   0.000000   0.000000   0.000000   0.000000   0.000000
     60       0.000000   0.000000   0.000000   0.000000   0.000000   0.000000
     61       0.000000   0.000000   0.000000   0.000000   0.000000   0.000000
     62       0.000000   0.000000   0.000000   0.000000   0.000000   0.000000
     63       0.000000   0.000000   0.000000   0.000000   0.000000   0.000000
     64       0.000000   0.000000   0.000000   0.000000   0.000000   0.000000
     65       0.000000   0.000000   0.000000   0.000000   0.000000   0.000000
     66       0.000000   0.000000   0.000000   0.000000   0.000000   0.000000
     67       0.000000   0.000000   0.000000   0.000000   0.000000   0.000000
     68       0.000000   0.000000   0.000000   0.000000   0.000000   0.000000
     69       0.000000   0.000000   0.000000   0.000000   0.000000   0.000000
     70       0.000000   0.000000   0.000000   0.000000   0.000000   0.000000
     71       0.000000   0.000000   0.000000   0.000000   0.000000   0.000000
     72       0.000000   0.000000   0.000000   0.000000   0.000000   0.000000
     73       0.000000   0.000000   0.000000   0.000000   0.000000   0.000000
     74       0.000000   0.000000   0.000000   0.000000   0.000000   0.000000
     75       0.000000   0.000000   0.000000   0.000000   0.000000   0.000000
     76       0.000000   0.000000   0.000000   0.000000   0.000000   0.000000
     77       0.000000   0.000000   0.000000   0.000000   0.000000   0.000000
     78       0.000000   0.000000   0.000000   0.000000   0.000000   0.000000
     79       0.000000   0.000000   0.000000   0.000000   0.000000   0.000000
     80       0.000000   0.000000   0.000000   0.000000   0.000000   0.000000
     81       0.000000   0.000000   0.000000   0.000000   0.000000   0.000000
     82       0.000000   0.000000   0.000000   0.000000   0.000000   0.000000
     83       0.000000   0.000000   0.000000   0.000000   0.000000   0.000000
     84       0.000000   0.000000   0.000000   0.000000   0.000000   0.000000
     85       0.000000   0.000000   0.000000   0.000000   0.000000   0.000000
     86       0.000000   0.000000   0.000000   0.000000   0.000000   0.000000
     87       0.000000   0.000000   0.000000   0.000000   0.000000   0.000000
     88       0.000000   0.000000   0.000000   0.000000   0.000000   0.000000
     89       0.000000   0.000000   0.000000   0.000000   0.000000   0.000000
     90       0.000000   0.000000   0.000000   0.000000   0.000000   0.000000
     91       0.000000   0.000000   0.000000   0.000000   0.000000   0.000000
     92       0.000000   0.000000   0.000000   0.000000   0.000000   0.000000
     93       0.000000   0.000000   0.000000   0.000000   0.000000   0.000000
     94       0.000000   0.000000   0.000000   0.000000   0.000000   0.000000
     95       0.000000   0.000000   0.000000   0.000000   0.000000   0.000000
     96       0.000000   0.000000   0.000000   0.000000   0.000000   0.000000
     97       0.000000   0.000000   0.000000   0.000000   0.000000   0.000000
     98       0.000000   0.000000   0.000000   0.000000   0.000000   0.000000
                  6          7          8          9         10         11    
      0      -0.001849  -0.067795   0.008449   0.007644   0.029417   0.010425
      1      -0.001062   0.088591  -0.194328   0.109034  -0.076046  -0.020710
      2       0.002115  -0.026490   0.012455  -0.076269   0.080204  -0.020258
      3      -0.002708  -0.072054   0.020570   0.024574   0.018386   0.014014
      4       0.000328   0.050187  -0.177941  -0.003129  -0.114357   0.003161
      5       0.001647  -0.036950   0.059880   0.012591   0.042600  -0.008621
      6      -0.004943  -0.047642  -0.025865   0.005260   0.048290  -0.001377
      7       0.008772  -0.010460  -0.008338  -0.053109  -0.023681   0.014142
      8      -0.004321  -0.029467   0.019271   0.062299  -0.039128   0.002420
      9      -0.001944  -0.020885  -0.089351  -0.033652   0.086665  -0.019662
     10       0.000348  -0.024487   0.155595   0.000513   0.098228   0.002948
     11      -0.001848  -0.014441  -0.070882   0.026859  -0.075973   0.000530
     12      -0.001393  -0.017042  -0.101599  -0.050538   0.096907  -0.023625
     13      -0.002187   0.016807   0.144819   0.112900   0.153566  -0.022251
     14       0.000537  -0.005047  -0.122476  -0.062558  -0.048262  -0.010398
     15      -0.001559  -0.040068  -0.053451  -0.029928   0.067670  -0.008292
     16      -0.000062   0.070792  -0.030379   0.170865   0.067812  -0.034617
     17       0.001249  -0.009589  -0.080616  -0.115584   0.028750  -0.020117
     18      -0.001140  -0.093219   0.064927   0.053834  -0.014175   0.028909
     19       0.004618   0.063197  -0.301701  -0.043821  -0.215053   0.012187
     20      -0.000110  -0.049627   0.128787   0.040075   0.075954  -0.007673
     21      -0.010019  -0.003841  -0.128878  -0.052427   0.102997  -0.029574
     22       0.005496  -0.065419   0.302828  -0.047093   0.161644   0.010317
     23       0.004248  -0.011475  -0.104005   0.070332  -0.125900   0.007169
     24      -0.002193  -0.036697  -0.063156  -0.043672   0.074800  -0.010937
     25       0.003374   0.099931  -0.036953   0.261076   0.109834  -0.054782
     26      -0.001569  -0.000644  -0.118785  -0.185731   0.051015  -0.027584
     27       0.018817  -0.025194  -0.016924  -0.003166   0.054648   0.002792
     28      -0.044866  -0.154123  -0.018734  -0.039665  -0.048272   0.021618
     29       0.005444  -0.033598   0.060938   0.113075  -0.124660   0.017403
     30       0.192796   0.081929   0.098423  -0.095644  -0.169200  -0.008254
     31       0.292587  -0.056370   0.057169  -0.094694   0.069599   0.006537
     32       0.739410   0.086495   0.091643   0.030740   0.157946   0.002731
     33       0.012568  -0.039559  -0.018867   0.002675   0.052061  -0.003633
     34      -0.000880  -0.182154   0.008539   0.025437  -0.074674  -0.013416
     35      -0.000087  -0.069974   0.036889   0.093663  -0.101472   0.009925
     36       0.012158  -0.078764  -0.034758  -0.037539   0.064921  -0.022078
     37      -0.001416  -0.202190   0.023619   0.054664  -0.092588  -0.041311
     38      -0.010825  -0.283724   0.080767   0.158468  -0.170587  -0.190193
     39       0.003039  -0.075039  -0.026688   0.009167   0.052466  -0.029187
     40       0.005584  -0.360325   0.058536   0.100733  -0.148027  -0.188172
     41      -0.000364   0.037391   0.006450   0.047822  -0.055909   0.114726
     42       0.075609   0.031075   0.004888  -0.056407   0.032716   0.012326
     43      -0.384759  -0.179591  -0.061578  -0.040926  -0.157986   0.045254
     44       0.314926   0.024424   0.116014   0.091539   0.008712  -0.009703
     45      -0.020842   0.129967   0.174185  -0.228902  -0.280352  -0.021884
     46       0.042446  -0.132612   0.035841  -0.058505  -0.049107   0.016418
     47      -0.017077   0.092196   0.056950   0.048330   0.153940   0.010188
     48      -0.002335   0.013366  -0.020878   0.071262  -0.090996   0.019516
     49      -0.100981   0.063753   0.119595  -0.170699   0.116499  -0.010573
     50      -0.041771   0.104028   0.160113  -0.109715  -0.016095  -0.010408
     51      -0.015862  -0.055424  -0.019127   0.016488   0.027601   0.003058
     52       0.086185  -0.060208  -0.004788  -0.103056  -0.051877   0.021275
     53      -0.061934  -0.043446   0.058196   0.122015  -0.077446   0.015444
     54      -0.004552  -0.097661  -0.008219   0.041791  -0.003685   0.006457
     55       0.081433  -0.023535   0.013210  -0.138492  -0.024138   0.005605
     56      -0.046107  -0.081586   0.048092   0.155247  -0.105127   0.027150
     57      -0.006285   0.015856  -0.012614   0.057801  -0.083259   0.016606
     58      -0.072646   0.023122   0.084436  -0.131256   0.183704  -0.005824
     59       0.005285   0.056703   0.084017   0.000015  -0.006601   0.010157
     60      -0.010999   0.172869   0.247520  -0.301536  -0.311676  -0.037631
     61       0.154961  -0.072180   0.193928  -0.124820  -0.050151  -0.020503
     62      -0.099842   0.113309   0.043025  -0.021488   0.097223   0.015948
     63       0.004958   0.040905   0.010517   0.065988   0.020005   0.046469
     64      -0.001471   0.057956  -0.038179  -0.031914   0.001358   0.191736
     65      -0.000734   0.027873  -0.014201   0.012441  -0.027440   0.106546
     66       0.005797   0.041733   0.022668   0.090383   0.012654   0.232878
     67      -0.002329   0.212832  -0.087041  -0.105151   0.083264   0.444987
     68       0.000078  -0.063052   0.016083   0.058435  -0.076311  -0.018128
     69       0.003363   0.103418   0.028427   0.105777  -0.007515  -0.058952
     70      -0.000589   0.057814  -0.052027  -0.057323   0.024382   0.282529
     71      -0.001646   0.213982  -0.055580  -0.042493   0.047075   0.412035
     72      -0.001619  -0.085774   0.046638   0.022799   0.006421   0.022555
     73      -0.001453   0.131702  -0.327065   0.151174  -0.148320  -0.029624
     74       0.001332  -0.030972   0.044779  -0.115734   0.144638  -0.028314
     75      -0.001463   0.003344  -0.149099  -0.080660   0.126766  -0.038333
     76      -0.002295   0.006222   0.272636   0.156436   0.258496  -0.032573
     77       0.000676   0.006064  -0.192567  -0.090924  -0.083522  -0.010707
     78       0.002783   0.037131   0.005947   0.055861   0.025246  -0.013622
     79      -0.001012   0.084137   0.002367   0.044867  -0.069695  -0.091875
     80       0.000415  -0.001491  -0.053281  -0.070940   0.026241  -0.057913
     81       0.002749  -0.001453  -0.018379   0.009416   0.061981   0.131059
     82      -0.001140   0.087914   0.015136   0.068868  -0.093764  -0.178843
     83      -0.000392  -0.094985  -0.035098  -0.039066  -0.035337  -0.245885
     84       0.002520   0.030275  -0.004899   0.027919   0.038719  -0.214460
     85      -0.000362   0.009235   0.031898   0.101722  -0.146888  -0.240942
     86       0.000024   0.038725  -0.070792  -0.105716   0.070651  -0.001090
     87       0.001656   0.090960   0.047772   0.144973  -0.036699  -0.000836
     88      -0.000584   0.197016  -0.010885   0.017724  -0.012639  -0.073127
     89       0.000185   0.037441  -0.091901  -0.152458   0.109617  -0.054032
     90       0.001952   0.089712   0.042598   0.133618  -0.029148  -0.028095
     91      -0.001805   0.226711   0.013525   0.068179  -0.057669  -0.203214
     92       0.001510   0.023711  -0.120669  -0.214863   0.154695  -0.132470
     93       0.001039   0.138038   0.068194   0.187610  -0.066708  -0.093166
     94      -0.000447   0.188577  -0.020334  -0.001895   0.005654  -0.023199
     95      -0.000250   0.111587  -0.105630  -0.180013   0.164117   0.064270
     96       0.001185   0.083801   0.063328   0.179515  -0.059336   0.127164
     97      -0.000731   0.257391  -0.034825  -0.031996   0.055103   0.018668
     98       0.000197   0.004404  -0.077668  -0.122710   0.071206  -0.092018
                 12         13         14         15         16         17    
      0       0.046255  -0.016991   0.015384   0.023145  -0.025876  -0.001036
      1       0.090089  -0.011864  -0.046864  -0.026603   0.002358   0.007547
      2      -0.084627   0.030100   0.025717  -0.008948   0.040692   0.000190
      3       0.058369  -0.023092   0.009953   0.021858  -0.049021   0.005789
      4      -0.015185  -0.023537   0.018276   0.125689  -0.013683   0.084024
      5      -0.012423   0.004190  -0.012519  -0.033295  -0.063933   0.017006
      6       0.045636  -0.004738   0.005404  -0.006569   0.008004  -0.008972
      7      -0.075740  -0.011084   0.085283   0.164946  -0.024736   0.074040
      8       0.034402  -0.023751  -0.051875  -0.023267  -0.124383   0.041811
      9       0.030777   0.019664   0.016409  -0.040446   0.096142  -0.063520
     10      -0.074468   0.013398   0.099682   0.137877  -0.010009   0.075829
     11       0.025687  -0.026184  -0.060287  -0.024687  -0.101517   0.027928
     12       0.017941   0.026302   0.020127  -0.042891   0.125167  -0.074290
     13       0.021192   0.031325   0.061850  -0.012542   0.026822   0.005472
     14      -0.041999  -0.003110  -0.031785   0.000280  -0.009387   0.011786
     15       0.026685   0.007428   0.020259  -0.008529   0.062921  -0.044969
     16       0.118886   0.018263  -0.016309  -0.123613   0.024309  -0.057416
     17      -0.103334   0.024425   0.012382   0.023816   0.059946   0.014095
     18       0.077903  -0.043435   0.004345   0.047563  -0.117310   0.029310
     19      -0.021898  -0.044332   0.002292   0.180496  -0.023576   0.117946
     20      -0.002823   0.006486  -0.007861  -0.048887  -0.082088   0.009726
     21       0.027570   0.033234   0.025060  -0.062016   0.141534  -0.102300
     22      -0.138339   0.020420   0.128920   0.200363  -0.020349   0.125938
     23       0.061658  -0.044096  -0.084714  -0.033766  -0.145208   0.043690
     24       0.015568   0.012181   0.024873  -0.005343   0.080203  -0.047503
     25       0.212242   0.030557  -0.056309  -0.271255   0.039485  -0.138818
     26      -0.163070   0.041723   0.037795   0.060199   0.127643   0.015988
     27       0.053785  -0.010467  -0.000750   0.027741  -0.078838   0.013526
     28       0.030026  -0.028090   0.084203   0.029863  -0.042016  -0.094909
     29      -0.022239  -0.025385  -0.007736   0.018396   0.039033   0.070396
     30      -0.160346   0.008784  -0.055206  -0.115690  -0.011436   0.009268
     31      -0.019285  -0.039729  -0.204399  -0.017389  -0.032081  -0.111736
     32       0.041374  -0.008987  -0.055288  -0.093596  -0.024755  -0.017345
     33       0.056649  -0.005524  -0.007654   0.014143  -0.026951   0.045200
     34       0.030327  -0.003215   0.064444  -0.184405   0.095380   0.148746
     35      -0.022614  -0.013980  -0.044796   0.044853   0.197030   0.018622
     36       0.060856  -0.041856   0.021890   0.123926  -0.076072  -0.106476
     37       0.027023  -0.000910   0.056884  -0.257108   0.153689   0.246565
     38      -0.027544  -0.092235  -0.012691  -0.096990   0.394221   0.189245
     39       0.062576   0.016180  -0.020420  -0.066713   0.131283   0.114640
     40       0.016065  -0.077005   0.092722  -0.312008   0.237470   0.322799
     41      -0.013901   0.032124  -0.065230   0.117586   0.116787  -0.083175
     42       0.054014  -0.013247   0.007422   0.082980  -0.162176  -0.027221
     43       0.059548  -0.022056   0.302346   0.129599  -0.076834  -0.234871
     44      -0.061052  -0.028762  -0.233017  -0.084335   0.064065   0.248774
     45       0.093839   0.014134   0.004347  -0.071678   0.029182   0.017167
     46       0.023691  -0.049786  -0.139933  -0.011752  -0.084808  -0.277379
     47      -0.054202   0.003630   0.107330  -0.053764  -0.011711  -0.025028
     48      -0.485601   0.012974   0.060336  -0.142762  -0.090327  -0.105110
     49      -0.122272  -0.025709  -0.237000  -0.055307  -0.011759  -0.033745
     50       0.372509  -0.007932   0.061631   0.015723   0.055218  -0.004656
     51       0.045393  -0.006793   0.020110   0.001433   0.012335  -0.006205
     52      -0.039931  -0.013587   0.156673   0.115829  -0.002765   0.033756
     53       0.025509  -0.039055  -0.090067  -0.000550  -0.107689   0.026682
     54       0.049869  -0.010513   0.019245  -0.036478   0.087784  -0.042571
     55      -0.058456  -0.008212   0.129627   0.066904   0.078352   0.157172
     56       0.038732  -0.043789  -0.074024   0.022444  -0.143394  -0.069427
     57      -0.439645   0.011075   0.037038  -0.125859  -0.069052  -0.066721
     58      -0.079857  -0.032527  -0.269249   0.004115   0.032290   0.062611
     59       0.137921  -0.002586   0.169250  -0.034563  -0.032378  -0.149390
     60       0.187241   0.017948  -0.067455  -0.093390   0.091580   0.113298
     61       0.027982  -0.051401  -0.491594  -0.144554   0.058714  -0.005464
     62       0.110362   0.011865   0.302830   0.029815  -0.032158  -0.104409
     63       0.038870   0.012070  -0.034319   0.028071  -0.062154   0.115467
     64       0.038855   0.111074   0.009779  -0.120510  -0.010694   0.066210
     65      -0.002195   0.046651  -0.068123   0.087707   0.155263  -0.081275
     66       0.043980  -0.057854  -0.039024  -0.012818   0.013759   0.146169
     67       0.063894   0.141309  -0.013726  -0.110347  -0.058979   0.006236
     68      -0.016117   0.019120  -0.054458   0.075544   0.192111  -0.040607
     69       0.010383   0.074101  -0.065876   0.099438  -0.101291   0.083302
     70       0.054116   0.087297   0.018487  -0.148339   0.000806   0.070957
     71       0.018277   0.074106  -0.100773   0.103220   0.111198  -0.132590
     72       0.051459  -0.031596   0.016996   0.051247  -0.081349   0.030289
     73       0.155912  -0.023980  -0.114763  -0.084461   0.001531  -0.012460
     74      -0.126574   0.052355   0.061237  -0.007062   0.100325  -0.022315
     75      -0.001006   0.046614   0.027206  -0.067830   0.196630  -0.101835
     76       0.030409   0.053577   0.083331  -0.057427   0.046943  -0.007534
     77      -0.051996  -0.006079  -0.038467   0.011588   0.004834   0.008583
     78       0.039689   0.029587  -0.033803   0.042363  -0.094378   0.120897
     79      -0.016090   0.184999  -0.018404   0.001762  -0.035643  -0.020069
     80       0.023378   0.099328  -0.041152   0.067129   0.009732  -0.031597
     81       0.080592   0.057964  -0.027106  -0.037370  -0.120455   0.204080
     82      -0.032842   0.212701  -0.028069   0.045926  -0.037847  -0.057580
     83       0.028916   0.400754  -0.095772   0.139827  -0.094791  -0.040879
     84       0.037468   0.071930  -0.021303   0.058215  -0.210715   0.143213
     85      -0.023925   0.448169  -0.078368   0.095379  -0.076678  -0.071482
     86       0.027426  -0.040758  -0.006880   0.016831   0.017220   0.000554
     87      -0.011652  -0.053401  -0.061188   0.163542   0.084702  -0.044081
     88      -0.044448  -0.152571   0.049983  -0.031367   0.031784  -0.040868
     89       0.041297  -0.072275   0.023577  -0.038878  -0.073734   0.077894
     90      -0.008446  -0.041394  -0.056649   0.158237   0.046774  -0.036955
     91      -0.081789  -0.112638   0.021387   0.102483   0.044248  -0.212338
     92       0.065506  -0.032609   0.050218  -0.100041  -0.238584   0.157906
     93      -0.049918  -0.091972  -0.074833   0.272548   0.126803  -0.195616
     94      -0.031151  -0.176835   0.062800  -0.082837   0.029413   0.023383
     95       0.032017  -0.379403   0.084947  -0.119985   0.033362   0.132609
     96      -0.014999  -0.090163  -0.076609   0.159189   0.223457  -0.037042
     97      -0.042025  -0.420744   0.116347  -0.134658   0.074414   0.047243
     98       0.039700   0.068431  -0.013336   0.016201  -0.084378   0.031148
                 18         19         20         21         22         23    
      0       0.138225  -0.078576   0.016383  -0.002941  -0.020616   0.008253
      1      -0.029013  -0.044343  -0.001454  -0.057071   0.167924   0.028219
      2      -0.028270   0.049010  -0.006960   0.023973  -0.075049  -0.011470
      3       0.152188  -0.065415   0.017329  -0.019101   0.004061   0.014699
      4      -0.049042  -0.119274   0.001780  -0.046412  -0.197211  -0.011468
      5       0.077434   0.079955   0.002944  -0.051834   0.075607   0.028999
      6       0.065822  -0.035667   0.006935  -0.017983  -0.005354   0.010798
      7       0.027293  -0.020851   0.004912   0.006912   0.005911   0.001652
      8       0.111495   0.002476   0.010407  -0.082179  -0.024593   0.022472
      9       0.038007  -0.061354   0.004652   0.049788  -0.005896  -0.008767
     10      -0.040751  -0.148653   0.003197  -0.085408   0.159818   0.045938
     11       0.131081   0.052945   0.010110  -0.027365  -0.092309   0.001852
     12       0.013235  -0.073922   0.002379   0.069510   0.025590  -0.011886
     13      -0.007880  -0.028319  -0.002062   0.006413  -0.185420  -0.012525
     14       0.016710   0.010678   0.000555  -0.006782   0.084995   0.009129
     15       0.075048  -0.106805   0.010653   0.045748   0.002975  -0.005233
     16       0.064004   0.141464  -0.003216   0.067419   0.022753  -0.013826
     17      -0.091516  -0.044216  -0.008135  -0.012800  -0.002340   0.001356
     18       0.236466  -0.091669   0.027614  -0.042799   0.009511   0.026288
     19      -0.076456  -0.198375   0.003688  -0.064127  -0.444735  -0.040602
     20       0.118414   0.104458   0.005678  -0.051291   0.185393   0.045723
     21       0.005564  -0.059717   0.001225   0.096977  -0.012179  -0.027712
     22      -0.074962  -0.240140   0.003977  -0.181392   0.394694   0.065090
     23       0.180934   0.099740   0.013126  -0.030360  -0.205606   0.013250
     24       0.051869  -0.119403   0.008926   0.047675   0.002576  -0.006025
     25       0.154191   0.338968  -0.005601   0.157276   0.056378  -0.036468
     26      -0.197799  -0.128632  -0.014465  -0.017934  -0.008954   0.000727
     27       0.015216   0.021604   0.003122  -0.078952  -0.009367   0.011676
     28       0.014924   0.096701  -0.002340  -0.012263   0.031091  -0.088016
     29       0.034492  -0.079471  -0.002733   0.219188   0.022089  -0.013261
     30       0.032056   0.004578   0.000772  -0.027069  -0.020547   0.060132
     31      -0.019835   0.011305   0.002221   0.018714  -0.015978   0.058323
     32       0.038747  -0.071509   0.007864  -0.111788  -0.017419   0.047124
     33      -0.053036   0.060609  -0.006827  -0.108699  -0.014654   0.029025
     34      -0.071824   0.033301  -0.024848  -0.102399  -0.013919   0.010044
     35      -0.022562  -0.000800  -0.008248   0.079390   0.010494   0.026312
     36       0.032783   0.111814   0.010619  -0.099819   0.008110  -0.022908
     37      -0.129819   0.016967  -0.034222  -0.135560  -0.030816   0.050006
     38      -0.139931   0.034272  -0.018277  -0.096325  -0.028676   0.115943
     39      -0.122112   0.086645  -0.017886  -0.278828  -0.050841   0.116982
     40      -0.178581   0.040402  -0.034507  -0.183820  -0.039241   0.074253
     41       0.039503  -0.004563  -0.002804   0.118897   0.023510  -0.007966
     42       0.054684   0.046004   0.011082  -0.027192  -0.008075   0.043435
     43      -0.049869   0.153961  -0.004063   0.126877   0.057566  -0.095895
     44       0.133609  -0.116485   0.000863   0.058137  -0.009910   0.000617
     45       0.017495   0.017894  -0.001429  -0.012308  -0.010319   0.031631
     46      -0.162111  -0.033964  -0.001614   0.056312  -0.026163   0.065566
     47      -0.009191  -0.017938   0.002240  -0.046770   0.011121  -0.035608
     48      -0.036720   0.030054  -0.000370  -0.043341  -0.002904   0.000803
     49      -0.020952   0.047469   0.001419  -0.081743  -0.033139   0.097149
     50      -0.028294  -0.070067  -0.000406   0.066926  -0.001783  -0.014413
     51       0.012283  -0.012302   0.000211  -0.003810   0.002039  -0.003939
     52       0.125505   0.191048   0.000393   0.129025   0.038370  -0.035000
     53       0.000021  -0.116589   0.003547   0.012240  -0.001892  -0.025346
     54      -0.014320  -0.034383  -0.005951   0.099730   0.021459  -0.038238
     55       0.233135   0.277296  -0.002250   0.227118   0.017532  -0.010921
     56      -0.081622  -0.187892   0.003996  -0.031263   0.017292  -0.049952
     57      -0.012919   0.024892  -0.000382  -0.012934   0.001282  -0.009878
     58       0.060627   0.041732   0.001712   0.040956  -0.001357   0.021290
     59      -0.100485  -0.044041  -0.000101  -0.010331  -0.000609  -0.012999
     60       0.060551  -0.055367  -0.001900  -0.099305   0.061727  -0.275739
     61      -0.057537  -0.335547  -0.001820  -0.233081   0.180213  -0.852129
     62      -0.028717   0.130148   0.001576   0.066145  -0.051597   0.267115
     63      -0.145727   0.035350  -0.021923   0.117999   0.015410   0.000672
     64      -0.010311  -0.013591  -0.026079  -0.035179  -0.007652   0.000567
     65       0.046848   0.025339  -0.003060  -0.049079  -0.004579   0.027114
     66      -0.151019   0.013784  -0.080463   0.179807   0.022542   0.013988
     67       0.050036  -0.027729  -0.069825  -0.059253  -0.011968  -0.007395
     68       0.009881   0.030457   0.014386  -0.025136  -0.000969   0.032958
     69      -0.147630   0.008986   0.021708   0.225333   0.029688   0.000190
     70      -0.000587  -0.006500  -0.053424  -0.075693  -0.013028  -0.000176
     71       0.097248  -0.006815  -0.058915   0.002656   0.001394   0.019183
     72       0.177117  -0.067720   0.020500  -0.039921  -0.046460   0.018720
     73      -0.046702  -0.074477  -0.001916  -0.105052   0.365712   0.052863
     74      -0.059502   0.053362  -0.011006   0.090087  -0.156858  -0.036081
     75      -0.066595  -0.053785  -0.007251   0.099855   0.053136  -0.021282
     76      -0.018242  -0.023735  -0.005150   0.014103  -0.389694  -0.036336
     77      -0.004752   0.015734  -0.001253  -0.000870   0.181101   0.016449
     78      -0.179532   0.064193  -0.011885   0.114543   0.017819  -0.017960
     79       0.035900  -0.045403   0.056280   0.037728   0.002715   0.010782
     80      -0.024894   0.078210   0.023249  -0.103749  -0.009956  -0.017209
     81      -0.232983   0.066383  -0.032622   0.132273   0.018474  -0.020654
     82       0.056923  -0.045295   0.073081   0.033864   0.003153   0.009809
     83      -0.042122   0.078299   0.085680  -0.059549  -0.002868  -0.030592
     84      -0.216398   0.062587   0.008430   0.170248   0.026164  -0.038518
     85       0.053932  -0.037021   0.114727   0.032630   0.003826   0.004170
     86      -0.039696   0.072084  -0.007391  -0.091361  -0.009237  -0.015778
     87      -0.093979   0.150674  -0.012504  -0.106820  -0.004670  -0.033623
     88       0.065983  -0.048269  -0.000066   0.007580  -0.000809   0.015048
     89      -0.085776   0.032567  -0.018003   0.028930   0.004586  -0.014600
     90      -0.072995   0.119564  -0.112296  -0.068244  -0.000734  -0.028281
     91       0.269882  -0.073419  -0.501287  -0.126426  -0.015744   0.009163
     92      -0.055493  -0.093322  -0.298095   0.233087   0.025756   0.010223
     93       0.071612   0.146211  -0.397714  -0.246846  -0.020108  -0.041700
     94      -0.010574  -0.038378   0.188039   0.056994   0.004771   0.017146
     95      -0.195292   0.096408   0.318741   0.002918   0.002631  -0.020971
     96      -0.214518   0.274324   0.466564  -0.227936  -0.016974  -0.052983
     97      -0.039703  -0.026800   0.252597   0.055814   0.004864   0.016577
     98      -0.039454   0.031751  -0.111596  -0.007368   0.000476  -0.016995
                 24         25         26         27         28         29    
      0       0.062350   0.032929   0.023253   0.003413  -0.008226  -0.084132
      1      -0.009638  -0.034251  -0.034572   0.113938   0.009599  -0.006690
      2      -0.050206  -0.005063  -0.001337  -0.063172   0.052421  -0.009616
      3       0.049575   0.032401   0.025615   0.017816   0.001533  -0.034781
      4      -0.019705   0.009092   0.016843  -0.018105   0.022288   0.060703
      5      -0.026454   0.026720   0.034089   0.035568   0.032360   0.137343
      6      -0.039544  -0.008350  -0.002442   0.019395   0.071609   0.086890
      7       0.012703   0.076532   0.084795  -0.236397   0.008471   0.015837
      8       0.032460   0.017231   0.015781   0.143188  -0.031336   0.030482
      9       0.048825   0.011330   0.006553   0.003952  -0.024471   0.087571
     10       0.039701   0.013063   0.021474  -0.006265  -0.019766   0.015140
     11       0.046500   0.055075   0.053178   0.047567  -0.048382   0.015717
     12       0.057189   0.000040  -0.008540  -0.016110  -0.030355   0.044007
     13       0.010266  -0.022098  -0.030503   0.116825  -0.033546  -0.054276
     14       0.026515   0.019603   0.018358  -0.045614  -0.021713  -0.130652
     15       0.114798   0.024167   0.008046   0.018291  -0.089825  -0.085000
     16      -0.007866   0.029228   0.034009  -0.154930   0.023300  -0.022119
     17      -0.032232  -0.038869  -0.040054   0.057583   0.017135  -0.025919
     18       0.125403   0.079049   0.064963   0.030301  -0.068530  -0.031666
     19      -0.020946  -0.016820  -0.021344   0.156382  -0.008682   0.051078
     20       0.002151   0.054650   0.063682  -0.036504   0.021465   0.136235
     21       0.073812   0.002405  -0.009909  -0.024440  -0.065823  -0.009580
     22       0.038181  -0.012539  -0.001564   0.222205   0.049188   0.041535
     23       0.017240   0.076565   0.081262  -0.039084  -0.037060   0.098489
     24       0.110801   0.017142   0.002025   0.021035  -0.089701  -0.053494
     25      -0.015647   0.057740   0.063595  -0.230462   0.048715   0.027937
     26      -0.039861  -0.068856  -0.068698   0.081959   0.003688   0.082527
     27      -0.138373  -0.051761  -0.044612  -0.053595   0.085278  -0.006608
     28      -0.081513  -0.037383  -0.073617   0.014509  -0.157794  -0.049092
     29       0.084215  -0.075882  -0.064079  -0.041789   0.106871   0.064260
     30      -0.002888  -0.068409  -0.020640  -0.033251  -0.020634  -0.317481
     31      -0.019755  -0.067665  -0.031635  -0.051540  -0.213410   0.089522
     32      -0.076405  -0.092582  -0.174230  -0.187659  -0.433912   0.036797
     33      -0.159065  -0.009669  -0.011727  -0.032887   0.066751  -0.026030
     34       0.066460  -0.014707  -0.001684  -0.026798  -0.003527  -0.000341
     35      -0.116275   0.066510   0.029144   0.046524  -0.063768  -0.007379
     36      -0.281717  -0.040044  -0.075118   0.003759  -0.008629  -0.056113
     37       0.113230   0.014980   0.044333  -0.043039   0.034130   0.007413
     38      -0.151660   0.149464   0.120649   0.037079  -0.032829  -0.037457
     39      -0.233988   0.086466   0.089890  -0.016656   0.071115  -0.050680
     40       0.093819   0.035753   0.060737  -0.049265   0.025402  -0.007218
     41      -0.134835   0.038770  -0.005438   0.058880  -0.079430  -0.005614
     42      -0.117844  -0.103124  -0.098686  -0.086335   0.056925  -0.040374
     43      -0.055905  -0.022373  -0.017621   0.043854  -0.118362   0.078221
     44       0.060787  -0.097003  -0.129904  -0.058220   0.094149  -0.109165
     45      -0.002272  -0.016095  -0.018352  -0.018517  -0.065233   0.004636
     46       0.039035   0.008250   0.045049   0.007707   0.014519   0.034581
     47      -0.026149  -0.008330  -0.000385  -0.025753  -0.115515   0.020512
     48       0.035879   0.160901  -0.138729   0.007668   0.048414   0.036627
     49       0.180108   0.710193  -0.705119  -0.048399   0.324397  -0.263035
     50      -0.057637  -0.404416   0.481642   0.093866   0.256911  -0.543985
     51      -0.106122  -0.051016  -0.034757  -0.027698   0.096412   0.059451
     52       0.011064  -0.013091  -0.025567   0.095662   0.051682  -0.014058
     53      -0.000692  -0.074787  -0.088496  -0.128273  -0.020988  -0.049146
     54      -0.103398  -0.115511  -0.108456  -0.033927   0.088829   0.076932
     55       0.121801  -0.014445  -0.033183   0.349708   0.349545   0.007439
     56      -0.076532  -0.090187  -0.102570  -0.313315  -0.240329  -0.058261
     57      -0.003177  -0.022655   0.040048   0.026678   0.025013  -0.016771
     58      -0.006946  -0.051434   0.016902   0.012133   0.011580   0.002993
     59       0.019883   0.053070   0.022127   0.031974   0.146317  -0.027191
     60      -0.084219   0.073377   0.002073   0.011919  -0.097501   0.296891
     61      -0.180215   0.234529   0.164887   0.108692   0.185169   0.131205
     62       0.031429  -0.058206  -0.076344  -0.065416  -0.333614   0.454839
     63      -0.062202   0.048136   0.020363   0.035140  -0.037803  -0.011410
     64       0.078370  -0.018276  -0.002476  -0.023333   0.018510   0.011119
     65      -0.127633   0.034575   0.014086   0.025278  -0.019095  -0.022786
     66      -0.136158   0.093110   0.038227   0.071672  -0.093189  -0.025450
     67       0.113855  -0.041187  -0.012064  -0.035986   0.062238   0.015457
     68      -0.154859   0.053129   0.021620   0.036999  -0.051497  -0.026561
     69      -0.131682   0.091241   0.038183   0.076918  -0.088611  -0.022162
     70       0.106573  -0.035672  -0.010095  -0.038603   0.040963   0.015068
     71      -0.121850   0.042415   0.017133   0.042455  -0.015945  -0.022074
     72       0.035189   0.049492   0.048605  -0.003750   0.031153   0.013661
     73       0.006884  -0.086159  -0.096298   0.362381  -0.014775  -0.035841
     74      -0.028164   0.006746   0.007225  -0.191735   0.021711  -0.094528
     75      -0.006775  -0.041154  -0.045607  -0.063422   0.036419   0.039729
     76      -0.009319  -0.073973  -0.093669   0.368954  -0.027614  -0.049691
     77       0.013067   0.028794   0.033470  -0.168645  -0.001404  -0.127958
     78       0.015481   0.041495   0.019930   0.039972  -0.058153  -0.009346
     79      -0.066887   0.011696   0.002014   0.005019  -0.001815  -0.003456
     80       0.123635  -0.039706  -0.013685  -0.025273   0.026830   0.009401
     81       0.060351   0.045577   0.026184   0.039448  -0.066436  -0.005535
     82      -0.082353   0.008122  -0.001992   0.005061   0.002132  -0.004233
     83       0.129265  -0.043514  -0.019540  -0.019928   0.019321   0.011324
     84       0.067298   0.031381   0.013300   0.041153  -0.065611  -0.000447
     85      -0.071185   0.000813  -0.006777   0.002331   0.003245  -0.002634
     86       0.129076  -0.033481  -0.009171  -0.022515   0.021619   0.009351
     87       0.175218  -0.026266  -0.004842  -0.006447  -0.008674   0.005696
     88      -0.073099   0.005537  -0.001646  -0.001912   0.008808  -0.002881
[...]
     16       0.000147  -0.000008   0.000006
     17       0.002343  -0.000012  -0.000006
     18      -0.010737   0.000105  -0.000084
     19       0.015816  -0.000435   0.000080
     20       0.035924  -0.000944   0.000231
     21      -0.629572  -0.000246  -0.000504
     22      -0.305786  -0.000035  -0.000098
     23      -0.603550  -0.000883  -0.000890
     24       0.134613  -0.000016  -0.000121
     25      -0.004753  -0.000033  -0.000010
     26      -0.031951  -0.000102  -0.000025
     27      -0.000085   0.000053   0.000148
     28      -0.000087  -0.000006  -0.000136
     29      -0.000346  -0.000112  -0.000036
     30      -0.000102   0.001618  -0.015834
     31       0.000024  -0.000242   0.005490
     32       0.000845   0.000339   0.003880
     33      -0.000029  -0.000014   0.000008
     34      -0.000087  -0.000032  -0.000148
     35      -0.000022  -0.000059   0.000122
     36       0.000310  -0.000004   0.002246
     37       0.000702  -0.000426   0.001701
     38      -0.000020  -0.000304  -0.000431
     39       0.000468  -0.000024   0.000240
     40      -0.000435   0.000628  -0.000781
     41      -0.000506   0.000560  -0.001260
     42      -0.002942  -0.002151  -0.004197
     43      -0.000832   0.000327   0.001852
     44      -0.000399   0.001679   0.003970
     45       0.000161  -0.030208  -0.038863
     46       0.000031   0.015810   0.020431
     47      -0.000101   0.016992   0.022017
     48      -0.000001  -0.772470   0.593264
     49       0.000283   0.104171  -0.079048
     50       0.000033  -0.136926   0.106521
     51       0.000046   0.000031  -0.000361
     52       0.001220  -0.000044   0.000038
     53       0.001705   0.000038  -0.000007
     54       0.004352   0.000317   0.000379
     55      -0.012354   0.000175  -0.000716
     56      -0.017183   0.000071  -0.000678
     57      -0.000004   0.048443  -0.036891
     58      -0.000056  -0.006522   0.004888
     59       0.000008   0.008695  -0.006709
     60      -0.001326   0.482633   0.626817
     61      -0.000031  -0.251226  -0.327343
     62       0.000309  -0.271497  -0.355247
     63      -0.000021   0.000004   0.000019
     64      -0.000064  -0.000002  -0.000021
     65       0.000028  -0.000001  -0.000020
     66       0.000017  -0.000005  -0.000158
     67      -0.000306   0.000058   0.000234
     68      -0.000295   0.000254   0.000346
     69       0.000308   0.000006  -0.000148
     70       0.001019  -0.000005   0.000331
     71      -0.000033   0.000020  -0.000233
     72       0.047195   0.000072  -0.000030
     73       0.024551  -0.000010  -0.000036
     74       0.044628  -0.000046  -0.000028
     75       0.094823   0.000036   0.000006
     76      -0.126787  -0.000094  -0.000112
     77      -0.295930  -0.000111  -0.000112
     78       0.000030   0.000002  -0.000002
     79      -0.000010   0.000003  -0.000029
     80      -0.000070   0.000001   0.000020
     81      -0.000087   0.000006   0.000248
     82      -0.000284  -0.000001   0.000412
     83       0.000021   0.000003  -0.000046
     84      -0.000129  -0.000012   0.000012
     85       0.000446   0.000041  -0.000119
     86       0.000819   0.000049  -0.000218
     87       0.000016  -0.000000  -0.000000
     88      -0.000025   0.000008  -0.000014
     89      -0.000012   0.000005   0.000019
     90      -0.000328   0.000016  -0.000149
     91       0.000030   0.000007   0.000054
     92       0.000078   0.000006  -0.000036
     93       0.000114  -0.000001   0.000003
     94       0.000314  -0.000000   0.000149
     95      -0.000021   0.000011  -0.000060
     96       0.000010  -0.000001  -0.000019
     97      -0.000012   0.000010   0.000002
     98       0.000035   0.000022  -0.000050


-----------
IR SPECTRUM  
-----------

 Mode    freq (cm**-1)   T**2         TX         TY         TZ
-------------------------------------------------------------------
   7:        26.30    0.000000  (  0.000000   0.000000   0.000000)
   8:        56.07    0.000000  (  0.000000   0.000000   0.000000)
   9:        58.12    0.000000  (  0.000000   0.000000   0.000000)
  10:        79.94    0.000000  (  0.000000   0.000000   0.000000)
  11:        86.23    0.000000  (  0.000000   0.000000   0.000000)
  12:       103.99    0.000000  (  0.000000   0.000000   0.000000)
  13:       120.93    0.000000  (  0.000000   0.000000   0.000000)
  14:       126.95    0.000000  (  0.000000   0.000000   0.000000)
  15:       155.26    0.000000  (  0.000000   0.000000   0.000000)
  16:       173.36    0.000000  (  0.000000   0.000000   0.000000)
  17:       213.36    0.000000  (  0.000000   0.000000   0.000000)
  18:       261.20    0.000000  (  0.000000   0.000000   0.000000)
  19:       275.16    0.000000  (  0.000000   0.000000   0.000000)
  20:       276.89    0.000000  (  0.000000   0.000000   0.000000)
  21:       332.57    0.000000  (  0.000000   0.000000   0.000000)
  22:       376.60    0.000000  (  0.000000   0.000000   0.000000)
  23:       401.74    0.000000  (  0.000000   0.000000   0.000000)
  24:       425.89    0.000000  (  0.000000   0.000000   0.000000)
  25:       446.23    0.000000  (  0.000000   0.000000   0.000000)
  26:       463.17    0.000000  (  0.000000   0.000000   0.000000)
  27:       496.28    0.000000  (  0.000000   0.000000   0.000000)
  28:       532.80    0.000000  (  0.000000   0.000000   0.000000)
  29:       585.23    0.000000  (  0.000000   0.000000   0.000000)
  30:       589.88    0.000000  (  0.000000   0.000000   0.000000)
  31:       612.98    0.000000  (  0.000000   0.000000   0.000000)
  32:       630.35    0.000000  (  0.000000   0.000000   0.000000)
  33:       663.88    0.000000  (  0.000000   0.000000   0.000000)
  34:       751.96    0.000000  (  0.000000   0.000000   0.000000)
  35:       778.88    0.000000  (  0.000000   0.000000   0.000000)
  36:       786.65    0.000000  (  0.000000   0.000000   0.000000)
  37:       815.16    0.000000  (  0.000000   0.000000   0.000000)
  38:       825.40    0.000000  (  0.000000   0.000000   0.000000)
  39:       859.44    0.000000  (  0.000000   0.000000   0.000000)
  40:       872.05    0.000000  (  0.000000   0.000000   0.000000)
  41:       908.92    0.000000  (  0.000000   0.000000   0.000000)
  42:       932.51    0.000000  (  0.000000   0.000000   0.000000)
  43:       934.20    0.000000  (  0.000000   0.000000   0.000000)
  44:       938.52    0.000000  (  0.000000   0.000000   0.000000)
  45:       943.61    0.000000  (  0.000000   0.000000   0.000000)
  46:       949.30    0.000000  (  0.000000   0.000000   0.000000)
  47:       985.44    0.000000  (  0.000000   0.000000   0.000000)
  48:      1031.94    0.000000  (  0.000000   0.000000   0.000000)
  49:      1068.39    0.000000  (  0.000000   0.000000   0.000000)
  50:      1076.03    0.000000  (  0.000000   0.000000   0.000000)
  51:      1099.98    0.000000  (  0.000000   0.000000   0.000000)
  52:      1116.60    0.000000  (  0.000000   0.000000   0.000000)
  53:      1129.22    0.000000  (  0.000000   0.000000   0.000000)
  54:      1134.58    0.000000  (  0.000000   0.000000   0.000000)
  55:      1179.94    0.000000  (  0.000000   0.000000   0.000000)
  56:      1184.07    0.000000  (  0.000000   0.000000   0.000000)
  57:      1207.21    0.000000  (  0.000000   0.000000   0.000000)
  58:      1218.25    0.000000  (  0.000000   0.000000   0.000000)
  59:      1236.26    0.000000  (  0.000000   0.000000   0.000000)
  60:      1255.55    0.000000  (  0.000000   0.000000   0.000000)
  61:      1258.77    0.000000  (  0.000000   0.000000   0.000000)
  62:      1276.67    0.000000  (  0.000000   0.000000   0.000000)
  63:      1277.15    0.000000  (  0.000000   0.000000   0.000000)
  64:      1296.85    0.000000  (  0.000000   0.000000   0.000000)
  65:      1308.52    0.000000  (  0.000000   0.000000   0.000000)
  66:      1337.01    0.000000  (  0.000000   0.000000   0.000000)
  67:      1351.38    0.000000  (  0.000000   0.000000   0.000000)
  68:      1367.88    0.000000  (  0.000000   0.000000   0.000000)
  69:      1420.00    0.000000  (  0.000000   0.000000   0.000000)
  70:      1427.53    0.000000  (  0.000000   0.000000   0.000000)
  71:      1451.34    0.000000  (  0.000000   0.000000   0.000000)
  72:      1453.93    0.000000  (  0.000000   0.000000   0.000000)
  73:      1496.64    0.000000  (  0.000000   0.000000   0.000000)
  74:      1503.37    0.000000  (  0.000000   0.000000   0.000000)
  75:      1505.49    0.000000  (  0.000000   0.000000   0.000000)
  76:      1510.14    0.000000  (  0.000000   0.000000   0.000000)
  77:      1548.63    0.000000  (  0.000000   0.000000   0.000000)
  78:      1559.08    0.000000  (  0.000000   0.000000   0.000000)
  79:      1564.59    0.000000  (  0.000000   0.000000   0.000000)
  80:      1609.89    0.000000  (  0.000000   0.000000   0.000000)
  81:      2733.56    0.000000  (  0.000000   0.000000   0.000000)
  82:      2936.77    0.000000  (  0.000000   0.000000   0.000000)
  83:      2951.38    0.000000  (  0.000000   0.000000   0.000000)
  84:      2959.27    0.000000  (  0.000000   0.000000   0.000000)
  85:      2966.99    0.000000  (  0.000000   0.000000   0.000000)
  86:      2973.24    0.000000  (  0.000000   0.000000   0.000000)
  87:      2975.82    0.000000  (  0.000000   0.000000   0.000000)
  88:      2981.02    0.000000  (  0.000000   0.000000   0.000000)
  89:      2996.97    0.000000  (  0.000000   0.000000   0.000000)
  90:      2998.68    0.000000  (  0.000000   0.000000   0.000000)
  91:      3058.98    0.000000  (  0.000000   0.000000   0.000000)
  92:      3061.38    0.000000  (  0.000000   0.000000   0.000000)
  93:      3064.24    0.000000  (  0.000000   0.000000   0.000000)
  94:      3070.33    0.000000  (  0.000000   0.000000   0.000000)
  95:      3076.92    0.000000  (  0.000000   0.000000   0.000000)
  96:      3087.52    0.000000  (  0.000000   0.000000   0.000000)
  97:      3613.97    0.000000  (  0.000000   0.000000   0.000000)
  98:      3618.39    0.000000  (  0.000000   0.000000   0.000000)

The first frequency considered to be a vibration is 7
The total number of vibrations considered is 92


--------------------------
THERMOCHEMISTRY AT 298.15K
--------------------------

Temperature         ... 298.15 K
Pressure            ... 1.00 atm
Total Mass          ... 197.28 AMU

Throughout the following assumptions are being made:
  (1) The electronic state is orbitally nondegenerate
  (2) There are no thermally accessible electronically excited states
  (3) Hindered rotations indicated by low frequency modes are not
      treated as such but are treated as vibrations and this may
      cause some error
  (4) All equations used are the standard statistical mechanics
      equations for an ideal gas
  (5) All vibrations are strictly harmonic

freq.      26.30  E(vib)   ...       0.56 
freq.      56.07  E(vib)   ...       0.52 
freq.      58.12  E(vib)   ...       0.51 
freq.      79.94  E(vib)   ...       0.49 
freq.      86.23  E(vib)   ...       0.48 
freq.     103.99  E(vib)   ...       0.46 
freq.     120.93  E(vib)   ...       0.44 
freq.     126.95  E(vib)   ...       0.43 
freq.     155.26  E(vib)   ...       0.40 
freq.     173.36  E(vib)   ...       0.38 
freq.     213.36  E(vib)   ...       0.34 
freq.     261.20  E(vib)   ...       0.30 
freq.     275.16  E(vib)   ...       0.28 
freq.     276.89  E(vib)   ...       0.28 
freq.     332.57  E(vib)   ...       0.24 
freq.     376.60  E(vib)   ...       0.21 
freq.     401.74  E(vib)   ...       0.19 
freq.     425.89  E(vib)   ...       0.18 
freq.     446.23  E(vib)   ...       0.17 
freq.     463.17  E(vib)   ...       0.16 
freq.     496.28  E(vib)   ...       0.14 
freq.     532.80  E(vib)   ...       0.13 
freq.     585.23  E(vib)   ...       0.11 
freq.     589.88  E(vib)   ...       0.10 
freq.     612.98  E(vib)   ...       0.10 
freq.     630.35  E(vib)   ...       0.09 
freq.     663.88  E(vib)   ...       0.08 
freq.     751.96  E(vib)   ...       0.06 
freq.     778.88  E(vib)   ...       0.05 
freq.     786.65  E(vib)   ...       0.05 
freq.     815.16  E(vib)   ...       0.05 
freq.     825.40  E(vib)   ...       0.04 
freq.     859.44  E(vib)   ...       0.04 
freq.     872.05  E(vib)   ...       0.04 
freq.     908.92  E(vib)   ...       0.03 
freq.     932.51  E(vib)   ...       0.03 
freq.     934.20  E(vib)   ...       0.03 
freq.     938.52  E(vib)   ...       0.03 
freq.     943.61  E(vib)   ...       0.03 
freq.     949.30  E(vib)   ...       0.03 
freq.     985.44  E(vib)   ...       0.02 
freq.    1031.94  E(vib)   ...       0.02 
freq.    1068.39  E(vib)   ...       0.02 
freq.    1076.03  E(vib)   ...       0.02 
freq.    1099.98  E(vib)   ...       0.02 
freq.    1116.60  E(vib)   ...       0.01 
freq.    1129.22  E(vib)   ...       0.01 
freq.    1134.58  E(vib)   ...       0.01 
freq.    1179.94  E(vib)   ...       0.01 
freq.    1184.07  E(vib)   ...       0.01 
freq.    1207.21  E(vib)   ...       0.01 
freq.    1218.25  E(vib)   ...       0.01 
freq.    1236.26  E(vib)   ...       0.01 
freq.    1255.55  E(vib)   ...       0.01 
freq.    1258.77  E(vib)   ...       0.01 
freq.    1276.67  E(vib)   ...       0.01 
freq.    1277.15  E(vib)   ...       0.01 
freq.    1296.85  E(vib)   ...       0.01 
freq.    1308.52  E(vib)   ...       0.01 
freq.    1337.01  E(vib)   ...       0.01 
freq.    1351.38  E(vib)   ...       0.01 
freq.    1367.88  E(vib)   ...       0.01 
freq.    1420.00  E(vib)   ...       0.00 
freq.    1427.53  E(vib)   ...       0.00 
freq.    1451.34  E(vib)   ...       0.00 
freq.    1453.93  E(vib)   ...       0.00 
freq.    1496.64  E(vib)   ...       0.00 
freq.    1503.37  E(vib)   ...       0.00 
freq.    1505.49  E(vib)   ...       0.00 
freq.    1510.14  E(vib)   ...       0.00 
freq.    1548.63  E(vib)   ...       0.00 
freq.    1559.08  E(vib)   ...       0.00 
freq.    1564.59  E(vib)   ...       0.00 
freq.    1609.89  E(vib)   ...       0.00 
freq.    2733.56  E(vib)   ...       0.00 
freq.    2936.77  E(vib)   ...       0.00 
freq.    2951.38  E(vib)   ...       0.00 
freq.    2959.27  E(vib)   ...       0.00 
freq.    2966.99  E(vib)   ...       0.00 
freq.    2973.24  E(vib)   ...       0.00 
freq.    2975.82  E(vib)   ...       0.00 
freq.    2981.02  E(vib)   ...       0.00 
freq.    2996.97  E(vib)   ...       0.00 
freq.    2998.68  E(vib)   ...       0.00 
freq.    3058.98  E(vib)   ...       0.00 
freq.    3061.38  E(vib)   ...       0.00 
freq.    3064.24  E(vib)   ...       0.00 
freq.    3070.33  E(vib)   ...       0.00 
freq.    3076.92  E(vib)   ...       0.00 
freq.    3087.52  E(vib)   ...       0.00 
freq.    3613.97  E(vib)   ...       0.00 
freq.    3618.39  E(vib)   ...       0.00 

------------
INNER ENERGY
------------

The inner energy is: U= E(el) + E(ZPE) + E(vib) + E(rot) + E(trans)
    E(el)   - is the total energy from the electronic structure calculation
              = E(kin-el) + E(nuc-el) + E(el-el) + E(nuc-nuc)
    E(ZPE)  - the the zero temperature vibrational energy from the frequency calculation
    E(vib)  - the the finite temperature correction to E(ZPE) due to population
              of excited vibrational states
    E(rot)  - is the rotational thermal energy
    E(trans)- is the translational thermal energy

Summary of contributions to the inner energy U:
Electronic energy                ...    -44.24271244 Eh
Zero point energy                ...      0.27210815 Eh     170.75 kcal/mol
Thermal vibrational correction   ...      0.01360744 Eh       8.54 kcal/mol
Thermal rotational correction    ...      0.00141627 Eh       0.89 kcal/mol
Thermal translational correction ...      0.00141627 Eh       0.89 kcal/mol
-----------------------------------------------------------------------
Total thermal energy                    -43.95416430 Eh


Summary of corrections to the electronic energy:
(perhaps to be used in another calculation)
Total thermal correction                  0.01643998 Eh      10.32 kcal/mol
Non-thermal (ZPE) correction              0.27210815 Eh     170.75 kcal/mol
-----------------------------------------------------------------------
Total correction                          0.28854813 Eh     181.07 kcal/mol


--------
ENTHALPY
--------

The enthalpy is H = U + kB*T
                kB is Boltzmann's constant
Total free energy                 ...    -43.95416430 Eh 
Thermal Enthalpy correction       ...      0.00094421 Eh       0.59 kcal/mol
-----------------------------------------------------------------------
Total Enthalpy                    ...    -43.95322010 Eh


Note: Only C1 symmetry has been detected, increase convergence thresholds 
      if your molecule has a higher symmetry. Symmetry factor of 1.0 is   
      used for the rotational entropy correction. 
 

Note: Rotational entropy computed according to Herzberg 
Infrared and Raman Spectra, Chapter V,1, Van Nostrand Reinhold, 1945 
Point Group:  C1, Symmetry Number:   1  
Rotational constants in cm-1:     0.039557     0.008982     0.008517 

Vibrational entropy computed according to the QRRHO of S. Grimme
Chem.Eur.J. 2012 18 9955


-------
ENTROPY
-------

The entropy contributions are T*S = T*(S(el)+S(vib)+S(rot)+S(trans))
     S(el)   - electronic entropy
     S(vib)  - vibrational entropy
     S(rot)  - rotational entropy
     S(trans)- translational entropy
The entropies will be listed as mutliplied by the temperature to get
units of energy

Electronic entropy                ...      0.00000000 Eh      0.00 kcal/mol
Vibrational entropy               ...      0.02418467 Eh     15.18 kcal/mol
Rotational entropy                ...      0.01551025 Eh      9.73 kcal/mol
Translational entropy             ...      0.01983352 Eh     12.45 kcal/mol
-----------------------------------------------------------------------
Final entropy term                ...      0.05952844 Eh     37.35 kcal/mol

In case the symmetry of your molecule has not been determined correctly
or in case you have a reason to use a different symmetry number we print 
out the resulting rotational entropy values for sn=1,12 :
 --------------------------------------------------------
|  sn= 1 | S(rot)=       0.01551025 Eh      9.73 kcal/mol|
|  sn= 2 | S(rot)=       0.01485580 Eh      9.32 kcal/mol|
|  sn= 3 | S(rot)=       0.01447296 Eh      9.08 kcal/mol|
|  sn= 4 | S(rot)=       0.01420134 Eh      8.91 kcal/mol|
|  sn= 5 | S(rot)=       0.01399065 Eh      8.78 kcal/mol|
|  sn= 6 | S(rot)=       0.01381851 Eh      8.67 kcal/mol|
|  sn= 7 | S(rot)=       0.01367296 Eh      8.58 kcal/mol|
|  sn= 8 | S(rot)=       0.01354688 Eh      8.50 kcal/mol|
|  sn= 9 | S(rot)=       0.01343567 Eh      8.43 kcal/mol|
|  sn=10 | S(rot)=       0.01333619 Eh      8.37 kcal/mol|
|  sn=11 | S(rot)=       0.01324620 Eh      8.31 kcal/mol|
|  sn=12 | S(rot)=       0.01316405 Eh      8.26 kcal/mol|
 --------------------------------------------------------


-------------------
GIBBS FREE ENERGY
-------------------

The Gibbs free energy is G = H - T*S

Total enthalpy                    ...    -43.95322010 Eh 
Total entropy correction          ...     -0.05952844 Eh    -37.35 kcal/mol
-----------------------------------------------------------------------
Final Gibbs free energy         ...    -44.01274854 Eh

For completeness - the Gibbs free energy minus the electronic energy
G-E(el)                           ...      0.22996390 Eh    144.30 kcal/mol


Total Time for Numerical Frequencies  :        91.857 sec
Time for Reference State(s)           :         0.205 sec
Time for Displacements                :        81.324 sec

Timings for individual modules:

Sum of individual times         ...        0.421 sec (=   0.007 min)
XTB module                      ...        0.421 sec (=   0.007 min) 100.0 %
                             ****ORCA TERMINATED NORMALLY****
TOTAL RUN TIME: 0 days 0 hours 1 minutes 33 seconds 121 msec
