(SLURM) JOB ID:         367

                                 *****************
                                 * O   R   C   A *
                                 *****************

           --- An Ab Initio, DFT and Semiempirical electronic structure package ---

                  #######################################################
                  #                        -***-                        #
                  #          Department of theory and spectroscopy      #
                  #               Directorship: Frank Neese             #
                  #        Max Planck Institute fuer Kohlenforschung    #
                  #                Kaiser Wilhelm Platz 1               #
                  #                 D-45470 Muelheim/Ruhr               #
                  #                      Germany                        #
                  #                                                     #
                  #                  All rights reserved                #
                  #                        -***-                        #
                  #######################################################


                         Program Version 4.2.1 -  RELEASE  -


 With contributions from (in alphabetic order):
   Daniel Aravena         : Magnetic Suceptibility
   Michael Atanasov       : Ab Initio Ligand Field Theory (pilot matlab implementation)
   Alexander A. Auer      : GIAO ZORA, VPT2
   Ute Becker             : Parallelization
   Giovanni Bistoni       : ED, misc. LED, open-shell LED, HFLD
   Martin Brehm           : Molecular dynamics
   Dmytro Bykov           : SCF Hessian
   Vijay G. Chilkuri      : MRCI spin determinant printing, contributions to CSF-ICE
   Dipayan Datta          : RHF DLPNO-CCSD density
   Achintya Kumar Dutta   : EOM-CC, STEOM-CC
   Dmitry Ganyushin       : Spin-Orbit,Spin-Spin,Magnetic field MRCI
   Miquel Garcia          : C-PCM Hessian, Gaussian charge scheme
   Yang Guo               : DLPNO-NEVPT2, CIM, IAO-localization
   Andreas Hansen         : Spin unrestricted coupled pair/coupled cluster methods
   Benjamin Helmich-Paris : CASSCF linear response (MC-RPA)
   Lee Huntington         : MR-EOM, pCC
   Robert Izsak           : Overlap fitted RIJCOSX, COSX-SCS-MP3, EOM
   Christian Kollmar      : KDIIS, OOCD, Brueckner-CCSD(T), CCSD density
   Simone Kossmann        : Meta GGA functionals, TD-DFT gradient, OOMP2, MP2 Hessian
   Martin Krupicka        : AUTO-CI
   Lucas Lang             : DCDCAS
   Dagmar Lenk            : GEPOL surface, SMD
   Dimitrios Liakos       : Extrapolation schemes; Compound Job, initial MDCI parallelization
   Dimitrios Manganas     : Further ROCIS development; embedding schemes
   Dimitrios Pantazis     : SARC Basis sets
   Taras Petrenko         : DFT Hessian,TD-DFT gradient, ASA, ECA, R-Raman, ABS, FL, XAS/XES, NRVS
   Peter Pinski           : DLPNO-MP2, DLPNO-MP2 Gradient
   Christoph Reimann      : Effective Core Potentials
   Marius Retegan         : Local ZFS, SOC
   Christoph Riplinger    : Optimizer, TS searches, QM/MM, DLPNO-CCSD(T), (RO)-DLPNO pert. Triples
   Tobias Risthaus        : Range-separated hybrids, TD-DFT gradient, RPA, STAB
   Michael Roemelt        : Original ROCIS implementation
   Masaaki Saitow         : Open-shell DLPNO-CCSD energy and density
   Barbara Sandhoefer     : DKH picture change effects
   Avijit Sen             : IP-ROCIS
   Kantharuban Sivalingam : CASSCF convergence, NEVPT2, FIC-MRCI
   Bernardo de Souza      : ESD, SOC TD-DFT
   Georgi Stoychev        : AutoAux, RI-MP2 NMR
   Willem Van den Heuvel  : Paramagnetic NMR
   Boris Wezisla          : Elementary symmetry handling
   Frank Wennmohs         : Technical directorship


 We gratefully acknowledge several colleagues who have allowed us to
 interface, adapt or use parts of their codes:
   Stefan Grimme, W. Hujo, H. Kruse,             : VdW corrections, initial TS optimization,
                  C. Bannwarth                     DFT functionals, gCP, sTDA/sTD-DF
   Ed Valeev, F. Pavosevic, A. Kumar             : LibInt (2-el integral package), F12 methods
   Garnet Chan, S. Sharma, J. Yang, R. Olivares  : DMRG
   Ulf Ekstrom                                   : XCFun DFT Library
   Mihaly Kallay                                 : mrcc  (arbitrary order and MRCC methods)
   Andreas Klamt, Michael Diedenhofen            : otool_cosmo (COSMO solvation model)
   Jiri Pittner, Ondrej Demel                    : Mk-CCSD
   Frank Weinhold                                : gennbo (NPA and NBO analysis)
   Christopher J. Cramer and Donald G. Truhlar   : smd solvation model
   Lars Goerigk                                  : TD-DFT with DH, B97 family of functionals
   V. Asgeirsson, H. Jonsson                     : NEB implementation
   FAccTs GmbH                                   : IRC, NEB, NEB-TS, Multilevel, MM, QM/MM, CI optimization
   S Lehtola, MJT Oliveira, MAL Marques          : LibXC Library


 Your calculation uses the libint2 library for the computation of 2-el integrals
 For citations please refer to: http://libint.valeyev.net

 Your ORCA version has been built with support for libXC version: 4.2.3
 For citations please refer to: https://tddft.org/programs/libxc/

 This ORCA versions uses:
   CBLAS   interface :  Fast vector & matrix operations
   LAPACKE interface :  Fast linear algebra routines
   SCALAPACK package :  Parallel linear algebra routines




***************************************
The coordinates will be read from file: init.xyz
***************************************


Your calculation utilizes the SMD solvation module
Please cite in your paper:
A.V. Marenich, C.J. Cramer, D.G. Truhlar J. Phys. Chem. B, 113, (2009), 6378 

Your calculation utilizes the semiempirical GFN2-xTB method
Please cite in your paper:
C. Bannwarth, Ehlert S., S. Grimme,  J. Chem. Theory Comput., 15, (2019), 1652.
   

----- Orbital basis set information -----
Your calculation utilizes the basis: def2-SVP
   F. Weigend and R. Ahlrichs, Phys. Chem. Chem. Phys. 7, 3297 (2005).

================================================================================
                                        WARNINGS
                       Please study these warnings very carefully!
================================================================================

WARNING: Gradients needed for Numerical Frequencies
  ===> : Setting RunTyp to EnGrad

WARNING: The environment variable RSH_COMMAND is not set!
  ===> : All Displacements for the Numerical Hessian calculation
         will be started on localhost

WARNING: Found dipole moment calculation with XTB calculation
  ===> : Switching off dipole moment calculation


INFO   : the flag for use of LIBINT has been found!

================================================================================
                                       INPUT FILE
================================================================================
NAME = /tmp/slurm-scratch/freq.367/freq.inp
|  1> ! XTB2 NumFreq
|  2> %maxcore 1450
|  3> 
|  4> * xyzfile 0 1 init.xyz
|  5> 
|  6> %cpcm
|  7>  smd true
|  8>  smdsolvent "ch2cl2"
|  9> end
| 10> %pal nprocs 8 end
| 11> 
| 12>                          ****END OF INPUT****
================================================================================

                     *******************************
                     * Energy+Gradient Calculation *
                     *******************************

      -----------------------------------------------------------      
     |                   =====================                   |     
     |                           x T B                           |     
     |                   =====================                   |     
     |                         S. Grimme                         |     
     |          Mulliken Center for Theoretical Chemistry        |     
     |                    University of Bonn                     |     
      -----------------------------------------------------------      

   * xtb version 6.3.0 (preview) compiled by 'ehlert@majestix' on 2020-01-15

   This program is distributed in the hope that it will be useful,
   but WITHOUT ANY WARRANTY; without even the implied warranty of
   MERCHANTABILITY or FITNESS FOR A PARTICULAR PURPOSE.
   
   FOR NON-COMMERCIAL, ACADEMIA USE ONLY.
   
   Cite this work as:
   * S. Grimme, C. Bannwarth, P. Shushkov, J. Chem. Theory Comput., 2017,
     13, 1989-2009. DOI: 10.1021/acs.jctc.7b00118
   * C. Bannwarth, S. Ehlert and S. Grimme., J. Chem. Theory Comput., 2019,
     15, 1652-1671. DOI: 10.1021/acs.jctc.8b01176
   * P. Pracht, E. Caldeweyher, S. Ehlert, S. Grimme, ChemRxiv, 2019, preprint.
     DOI: 10.26434/chemrxiv.8326202.v1
   * S. Grimme, S. Spicher unpublished
   
   for DFT-D4:
   * E. Caldeweyher, C. Bannwarth and S. Grimme, J. Chem. Phys., 2017,
     147, 034112. DOI: 10.1063/1.4993215
   * E. Caldeweyher, S. Ehlert, A. Hansen, H. Neugebauer, S. Spicher,
     C. Bannwarth and S. Grimme, J. Chem. Phys., 2019, 150, 154122.
     DOI: 10.1063/1.5090222
   
   for sTDA-xTB:
   * S. Grimme and C. Bannwarth, J. Chem. Phys., 2016, 145, 054103.
     DOI: 10.1063/1.4959605
   
   in the mass-spec context:
   * V. Asgeirsson, C. Bauer and S. Grimme, Chem. Sci., 2017, 8, 4879.
     DOI: 10.1039/c7sc00601b
   
   for metadynamics refer to:
   * S. Grimme, J. Chem. Theory Comput., 2019, 155, 2847-2862
     DOI: 10.1021/acs.jctc.9b00143
   
   with help from (in alphabetical order)
   C. Bannwarth, F. Bohle, G. Brandenburg, E. Caldeweyher, M. Checinski,
   S. Dohm, S. Ehlert, S. Ehrlich, F. März, H. Neugebauer, J. Pisarek,
   P. Pracht, P. Shushkov, and S. Spicher.
   
 * started run on 2021/02/02 at 13:23:13.624     

           -------------------------------------------------
          |                Calculation Setup                |
           -------------------------------------------------

          program call               : /opt/orca/otool_xtb /tmp/slurm-scratch/freq.367/freq_XTB.xyz --grad -c 0 -u 0 -P 8 --namespace /tmp/slurm-scratch/freq.367/freq --gbsa CH2Cl2
          hostname                   : headnode-pbs
          calculation namespace      : /tmp/slurm-scratch/freq.367/freq
          coordinate file            : /tmp/slurm-scratch/freq.367/freq_XTB.xyz
          omp threads                :                     8
          number of atoms            :                    49
          number of electrons        :                   112
          charge                     :                     0
          spin                       :                   0.0
          first test random number   :      0.09221396122043


molecular fragmentation (1/2 indicates fragments):
1111111111111111112122222211111111122222222222222
# atoms in fragment 1/2:    28    21
 fragment masses (1/2) :      162.25      108.16
CMA distance (Bohr)    :   6.362
constraining FC (au)   :  0.0500

########################################################################
# WARNING! Please study the warnings concerning your input carefully
#  - Process number higher than OMP_NUM_THREADS, I hope you know what you are doing.
########################################################################

           ------------------------------------------------- 
          |                 G F N 2 - x T B                 |
          | Geometry, Frequencies, Noncovalent interactions |
          |            JCTC 2019 parametrisation            |
           ------------------------------------------------- 
             k(s)              :                1.8500
             k(p)              :                2.2300
             k(d)              :                2.2300
             k(f)              :                2.0000
             kEN (H0ij)        :               -2.0000
             D4 a1             :                0.5200
             D4 a2             :                5.0000
             D4 s6             :                1.0000
             D4 s8             :                2.7000
             D4 s9             :                5.0000
             alphaj            :                2.0000

  Z AO/shell   Hii/eV     exponent
  1     Wed Apr 25 08:07:45 CEST 2018   EN: 2.200 GM2: 0.406  GM3: 0.0800  RAES: 1.40
     1s    -10.707211    1.230000
  6     Wed Apr 25 08:07:45 CEST 2018   EN: 2.550 GM2: 0.538  GM3: 0.1500  RAES: 3.00
     2s    -13.970922    2.096432
     2p    -10.063292    1.800000
  7     Wed Apr 25 08:07:45 CEST 2018   EN: 3.040 GM2: 0.461  GM3:-0.0640  RAES: 1.90
     2s    -16.686243    2.339881
     2p    -12.523956    2.014332
  8     Wed Apr 25 08:07:45 CEST 2018   EN: 3.440 GM2: 0.452  GM3:-0.0517  RAES: 1.80
     2s    -20.229985    2.439742
     2p    -15.503117    2.137023

 Solvent             : CH2Cl2
 Using internal parameter file: .param_gbsa2_CH2Cl2
 Gsolv ref. state (COSMO-RS): gsolv [1 M gas/solution]
 temperature (mdtemp)       :    298.150000000000     
 dielectric constant        :    8.93000000000000     
 rho                        :    1.33000000000000     
 mass                       :    84.9300000000000     
 surface tension            :    15.5689454083859     
 probe radius               :   0.719875900000000     
 Gshift (Eh)                :   4.440829173451759E-003
 c1                         :    1.49173776000000     
 soset                      :   0.000000000000000E+000
 HB correction              :  F
           ------------------------------------------------- 
          |        Self-Consistent Charge Iterations        |
           ------------------------------------------------- 

          ...................................................
          :                      SETUP                      :
          :.................................................:
          :  # basis functions                 106          :
          :  # atomic orbitals                 106          :
          :  # shells                           68          :
          :  # electrons                       112          :
          :  max. iterations                   250          :
          :  Hamiltonian                  GFN2-xTB          :
          :  GBSA solvation                   true          :
          :  PC potential                    false          :
          :  electronic temp.          300.0000000     K    :
          :  accuracy                    1.0000000          :
          :  -> integral cutoff          0.2500000E+02      :
          :  -> integral neglect         0.1000000E-07      :
          :  -> SCF convergence          0.1000000E-05 Eh   :
          :  -> wf. convergence          0.1000000E-03 e    :
          :  Broyden damping             0.4000000          :
          ...................................................
  Checking positiv definite overlap ...  done.
 

 iter      E             dE          RMSdq      gap      omega  full diag
   1    -62.0440695 -0.620441E+02  0.369E+00    2.80       0.0  T
   2    -62.1613910 -0.117321E+00  0.214E+00    2.43       1.0  T
   3    -62.1635107 -0.211979E-02  0.902E-01    1.46       1.0  T
   4    -62.1679508 -0.444010E-02  0.410E-01    1.66       1.0  T
   5    -62.1724843 -0.453347E-02  0.823E-02    1.62       1.0  T
   6    -62.1725413 -0.570268E-04  0.370E-02    1.66       1.0  T
   7    -62.1725477 -0.631742E-05  0.172E-02    1.68       1.0  T
   8    -62.1725521 -0.441087E-05  0.588E-03    1.68       2.4  T
   9    -62.1725524 -0.351081E-06  0.197E-03    1.68       7.2  T
  10    -62.1725525 -0.389993E-07  0.106E-03    1.68      13.5  T
  11    -62.1725525 -0.663053E-08  0.468E-04    1.68      30.5  T
  12    -62.1725525 -0.274515E-08  0.118E-04    1.68     121.0  T

   *** convergence criteria satisfied after 12 iterations ***

         #    Occupation            Energy/Eh            Energy/eV
      -------------------------------------------------------------
         1        2.0000           -0.6907311             -18.7957
       ...           ...                  ...                  ...
        50        2.0000           -0.4257974             -11.5865
        51        2.0000           -0.4236830             -11.5290
        52        2.0000           -0.4206211             -11.4457
        53        2.0000           -0.3980358             -10.8311
        54        2.0000           -0.3869866             -10.5304
        55        2.0000           -0.3704043             -10.0792
        56        2.0000           -0.3639450              -9.9034 (HOMO)
        57                         -0.3021854              -8.2229 (LUMO)
        58                         -0.2424265              -6.5968
        59                         -0.2128931              -5.7931
        60                         -0.1055217              -2.8714
        61                         -0.0272000              -0.7401
       ...                                ...                  ...
       106                          0.6381802              17.3658
      -------------------------------------------------------------
                  HL-Gap            0.0617596 Eh            1.6806 eV
             Fermi-level           -0.3330652 Eh           -9.0632 eV

 SCC (total)                   0 d,  0 h,  0 min,  0.078 sec
 SCC setup                      ...        0 min,  0.003 sec (  3.476%)
 Dispersion                     ...        0 min,  0.001 sec (  1.247%)
 integral evaluation            ...        0 min,  0.017 sec ( 22.331%)
 zeroth order Hamiltonian       ...        0 min,  0.000 sec (  0.035%)
 iterations                     ...        0 min,  0.037 sec ( 47.279%)
 molecular gradient             ...        0 min,  0.019 sec ( 24.716%)
 printout                       ...        0 min,  0.001 sec (  0.819%)

         :::::::::::::::::::::::::::::::::::::::::::::::::::::
         ::                     SUMMARY                     ::
         :::::::::::::::::::::::::::::::::::::::::::::::::::::
         :: total energy             -61.351751968733 Eh    ::
         :: total w/o Gsasa/hb       -61.327735890787 Eh    ::
         :: gradient norm              0.034800549950 Eh/a0 ::
         :: HOMO-LUMO gap              1.680565559746 eV    ::
         ::.................................................::
         :: SCC energy               -62.196568547482 Eh    ::
         :: -> isotropic ES            0.179204269628 Eh    ::
         :: -> anisotropic ES         -0.023745159286 Eh    ::
         :: -> anisotropic XC          0.036646958217 Eh    ::
         :: -> dispersion             -0.040328069038 Eh    ::
         :: -> Gsolv                  -0.053684538691 Eh    ::
         ::    -> Gborn               -0.029668460745 Eh    ::
         ::    -> Gsasa               -0.028456907120 Eh    ::
         ::    -> Ghb                  0.000000000000 Eh    ::
         ::    -> Gshift               0.004440829173 Eh    ::
         :: repulsion energy           0.844128687396 Eh    ::
         :: add. restraining           0.000000000000 Eh    ::
         :::::::::::::::::::::::::::::::::::::::::::::::::::::

           -------------------------------------------------
          |                Property Printout                |
           -------------------------------------------------

    * Orbital Energies and Occupations

         #    Occupation            Energy/Eh            Energy/eV
      -------------------------------------------------------------
         1        2.0000           -0.6907311             -18.7957
       ...           ...                  ...                  ...
        44        2.0000           -0.4438456             -12.0777
        45        2.0000           -0.4404214             -11.9845
        46        2.0000           -0.4390306             -11.9466
        47        2.0000           -0.4377705             -11.9123
        48        2.0000           -0.4373890             -11.9020
        49        2.0000           -0.4262774             -11.5996
        50        2.0000           -0.4257974             -11.5865
        51        2.0000           -0.4236830             -11.5290
        52        2.0000           -0.4206211             -11.4457
        53        2.0000           -0.3980358             -10.8311
        54        2.0000           -0.3869866             -10.5304
        55        2.0000           -0.3704043             -10.0792
        56        2.0000           -0.3639450              -9.9034 (HOMO)
        57                         -0.3021854              -8.2229 (LUMO)
        58                         -0.2424265              -6.5968
        59                         -0.2128931              -5.7931
        60                         -0.1055217              -2.8714
        61                         -0.0272000              -0.7401
        62                          0.0080467               0.2190
        63                          0.0628651               1.7106
        64                          0.0702616               1.9119
        65                          0.0857221               2.3326
        66                          0.0904100               2.4602
        67                          0.0959633               2.6113
       ...                                ...                  ...
       106                          0.6381802              17.3658
      -------------------------------------------------------------
                  HL-Gap            0.0617596 Eh            1.6806 eV
             Fermi-level           -0.3330652 Eh           -9.0632 eV

     #   Z        covCN         q      C6AA      α(0)
     1   6 C      2.970     0.013    27.729     8.637
     2   6 C      2.917    -0.031    28.762     8.794
     3   6 C      2.913    -0.023    28.588     8.768
     4   6 C      2.916    -0.017    28.441     8.745
     5   6 C      2.913    -0.024    28.592     8.768
     6   6 C      2.923    -0.020    28.504     8.755
     7   6 C      2.841     0.086    26.072     8.368
     8   1 H      0.926     0.057     2.233     2.337
     9   1 H      0.925     0.059     2.213     2.326
    10   1 H      0.925     0.059     2.207     2.323
    11   7 N      2.680    -0.050    22.209     6.999
    12   6 C      3.746    -0.023    21.046     6.544
    13   1 H      0.857     0.247     0.895     1.482
    14   6 C      3.803    -0.071    21.858     6.656
    15   1 H      0.925     0.071     2.073     2.252
    16   1 H      0.924     0.093     1.848     2.126
    17   1 H      0.924     0.056     2.246     2.344
    18   1 H      0.924     0.057     2.235     2.338
    19   8 O      1.413    -0.732    28.865     7.237
    20   1 H      0.926     0.105     1.740     2.063
    21   1 H      0.805     0.231     0.971     1.548
    22   8 O      1.243    -0.829    32.075     7.609
    23   1 H      1.046     0.309     0.679     1.287
    24   1 H      0.805     0.191     1.164     1.695
    25   1 H      0.858     0.195     1.131     1.666
    26   1 H      0.860     0.138     1.487     1.910
    27   6 C      3.800    -0.055    21.555     6.610
    28   1 H      0.924     0.034     2.526     2.485
    29   1 H      0.924     0.040     2.451     2.448
    30   1 H      0.925     0.057     2.231     2.336
    31   1 H      0.925     0.058     2.219     2.329
    32   6 C      3.750    -0.106    22.588     6.778
    33   1 H      0.924     0.040     2.455     2.450
    34   1 H      0.924     0.042     2.425     2.435
    35   1 H      0.924     0.039     2.457     2.451
    36   6 C      3.731     0.019    20.338     6.437
    37   1 H      0.924     0.033     2.543     2.494
    38   1 H      0.923     0.007     2.948     2.685
    39   6 C      3.801    -0.067    21.786     6.645
    40   1 H      0.924     0.042     2.422     2.434
    41   1 H      0.924     0.035     2.513     2.479
    42   6 C      3.799    -0.054    21.537     6.608
    43   1 H      0.924     0.029     2.594     2.519
    44   1 H      0.924     0.033     2.550     2.497
    45   6 C      3.749    -0.104    22.545     6.772
    46   1 H      0.924     0.040     2.455     2.450
    47   1 H      0.924     0.036     2.505     2.475
    48   1 H      0.924     0.037     2.487     2.466
    49   7 N      2.627    -0.385    29.967     8.130

 Mol. C6AA /au·bohr⁶  :      19089.413634
 Mol. C8AA /au·bohr⁸  :     416027.515865
 Mol. α(0) /au        :        210.994416


Wiberg/Mayer (AO) data.
largest (>0.10) Wiberg bond orders for each atom
          total WBO             WBO to atom ...
     1  C   3.984        C    6 1.359    C    2 1.358    C    7 1.107
     2  C   3.989        C    3 1.464    C    1 1.358    H    8 0.961    C    5 0.104
     3  C   3.990        C    2 1.464    C    4 1.425    H   31 0.969    C    6 0.103
     4  C   3.984        C    5 1.427    C    3 1.425    H   10 0.969
     5  C   3.990        C    6 1.462    C    4 1.427    H   30 0.969    C    2 0.104
     6  C   3.984        C    5 1.462    C    1 1.359    H    9 0.966    C    3 0.103
     7  C   3.928        N   11 1.612    C    1 1.107    H   20 0.945    O   19 0.132
     8  H   0.997        C    2 0.961
     9  H   0.997        C    6 0.966
    10  H   0.996        C    4 0.969
    11  N   3.643        C    7 1.612    C   12 0.981    H   13 0.813
    12  C   3.948        C   14 0.995    N   11 0.981    H   15 0.969    H   16 0.941
    13  H   0.939        N   11 0.813
    14  C   3.987        C   27 1.005    C   12 0.995    H   18 0.975    H   17 0.969
    15  H   0.995        C   12 0.969
    16  H   0.987        C   12 0.941
    17  H   0.997        C   14 0.969
    18  H   0.997        C   14 0.975
    19  O   1.792        H   21 0.942    H   23 0.489    C    7 0.132    O   22 0.117
    20  H   0.988        C    7 0.945
    21  H   0.947        O   19 0.942
    22  O   1.580        H   24 0.957    H   23 0.413    O   19 0.117
    23  H   0.904        O   19 0.489    O   22 0.413
    24  H   0.963        O   22 0.957
    25  H   0.962        N   49 0.897
    26  H   0.981        N   49 0.966
    27  C   3.995        C   32 1.019    C   14 1.005    H   28 0.977    H   29 0.977
    28  H   0.999        C   27 0.977
    29  H   0.998        C   27 0.977
    30  H   0.996        C    5 0.969
    31  H   0.996        C    3 0.969
    32  C   3.995        C   27 1.019    H   35 0.987    H   34 0.987    H   33 0.987
    33  H   0.998        C   32 0.987
    34  H   0.998        C   32 0.987
    35  H   0.998        C   32 0.987
    36  C   3.983        N   49 1.014    C   39 1.005    H   37 0.974    H   38 0.972
    37  H   0.999        C   36 0.974
    38  H   0.999        C   36 0.972
    39  C   3.996        C   42 1.007    C   36 1.005    H   41 0.976    H   40 0.974
    40  H   0.998        C   39 0.974
    41  H   0.999        C   39 0.976
    42  C   3.997        C   45 1.020    C   39 1.007    H   43 0.978    H   44 0.978
    43  H   0.999        C   42 0.978
    44  H   0.999        C   42 0.978
    45  C   3.996        C   42 1.020    H   47 0.988    H   46 0.987    H   48 0.987
    46  H   0.998        C   45 0.987
    47  H   0.999        C   45 0.988
    48  H   0.998        C   45 0.987
    49  N   3.089        C   36 1.014    H   26 0.966    H   25 0.897

molecular dipole:
                 x           y           z       tot (Debye)
 q only:       -0.628      -2.517       2.885
   full:       -0.421      -1.642       2.694       8.090
molecular quadrupole (traceless):
                xx          xy          yy          xz          yz          zz
 q only:       37.629      37.881     -21.762     -29.194      33.987     -15.868
  q+dip:       27.831      21.332     -11.872     -28.236      31.731     -15.960
   full:       27.351      22.921     -10.324     -28.088      29.596     -17.027

           -------------------------------------------------
          |                Property Printout                |
           -------------------------------------------------

    * Orbital Energies and Occupations

         #    Occupation            Energy/Eh            Energy/eV
      -------------------------------------------------------------
         1        2.0000           -0.6907311             -18.7957
       ...           ...                  ...                  ...
        44        2.0000           -0.4438456             -12.0777
        45        2.0000           -0.4404214             -11.9845
        46        2.0000           -0.4390306             -11.9466
        47        2.0000           -0.4377705             -11.9123
        48        2.0000           -0.4373890             -11.9020
        49        2.0000           -0.4262774             -11.5996
        50        2.0000           -0.4257974             -11.5865
        51        2.0000           -0.4236830             -11.5290
        52        2.0000           -0.4206211             -11.4457
        53        2.0000           -0.3980358             -10.8311
        54        2.0000           -0.3869866             -10.5304
        55        2.0000           -0.3704043             -10.0792
        56        2.0000           -0.3639450              -9.9034 (HOMO)
        57                         -0.3021854              -8.2229 (LUMO)
        58                         -0.2424265              -6.5968
        59                         -0.2128931              -5.7931
        60                         -0.1055217              -2.8714
        61                         -0.0272000              -0.7401
        62                          0.0080467               0.2190
        63                          0.0628651               1.7106
        64                          0.0702616               1.9119
        65                          0.0857221               2.3326
        66                          0.0904100               2.4602
        67                          0.0959633               2.6113
       ...                                ...                  ...
       106                          0.6381802              17.3658
      -------------------------------------------------------------
                  HL-Gap            0.0617596 Eh            1.6806 eV
             Fermi-level           -0.3330652 Eh           -9.0632 eV

     #   Z        covCN         q      C6AA      α(0)
     1   6 C      2.970     0.013    27.729     8.637
     2   6 C      2.917    -0.031    28.762     8.794
     3   6 C      2.913    -0.023    28.588     8.768
     4   6 C      2.916    -0.017    28.441     8.745
     5   6 C      2.913    -0.024    28.592     8.768
     6   6 C      2.923    -0.020    28.504     8.755
     7   6 C      2.841     0.086    26.072     8.368
     8   1 H      0.926     0.057     2.233     2.337
     9   1 H      0.925     0.059     2.213     2.326
    10   1 H      0.925     0.059     2.207     2.323
    11   7 N      2.680    -0.050    22.209     6.999
    12   6 C      3.746    -0.023    21.046     6.544
    13   1 H      0.857     0.247     0.895     1.482
    14   6 C      3.803    -0.071    21.858     6.656
    15   1 H      0.925     0.071     2.073     2.252
    16   1 H      0.924     0.093     1.848     2.126
    17   1 H      0.924     0.056     2.246     2.344
    18   1 H      0.924     0.057     2.235     2.338
    19   8 O      1.413    -0.732    28.865     7.237
    20   1 H      0.926     0.105     1.740     2.063
    21   1 H      0.805     0.231     0.971     1.548
    22   8 O      1.243    -0.829    32.075     7.609
    23   1 H      1.046     0.309     0.679     1.287
    24   1 H      0.805     0.191     1.164     1.695
    25   1 H      0.858     0.195     1.131     1.666
    26   1 H      0.860     0.138     1.487     1.910
    27   6 C      3.800    -0.055    21.555     6.610
    28   1 H      0.924     0.034     2.526     2.485
    29   1 H      0.924     0.040     2.451     2.448
    30   1 H      0.925     0.057     2.231     2.336
    31   1 H      0.925     0.058     2.219     2.329
    32   6 C      3.750    -0.106    22.588     6.778
    33   1 H      0.924     0.040     2.455     2.450
    34   1 H      0.924     0.042     2.425     2.435
    35   1 H      0.924     0.039     2.457     2.451
    36   6 C      3.731     0.019    20.338     6.437
    37   1 H      0.924     0.033     2.543     2.494
    38   1 H      0.923     0.007     2.948     2.685
    39   6 C      3.801    -0.067    21.786     6.645
    40   1 H      0.924     0.042     2.422     2.434
    41   1 H      0.924     0.035     2.513     2.479
    42   6 C      3.799    -0.054    21.537     6.608
    43   1 H      0.924     0.029     2.594     2.519
    44   1 H      0.924     0.033     2.550     2.497
    45   6 C      3.749    -0.104    22.545     6.772
    46   1 H      0.924     0.040     2.455     2.450
    47   1 H      0.924     0.036     2.505     2.475
    48   1 H      0.924     0.037     2.487     2.466
    49   7 N      2.627    -0.385    29.967     8.130

 Mol. C6AA /au·bohr⁶  :      19089.413634
 Mol. C8AA /au·bohr⁸  :     416027.515865
 Mol. α(0) /au        :        210.994416


Wiberg/Mayer (AO) data.
largest (>0.10) Wiberg bond orders for each atom
          total WBO             WBO to atom ...
     1  C   3.984        C    6 1.359    C    2 1.358    C    7 1.107
     2  C   3.989        C    3 1.464    C    1 1.358    H    8 0.961    C    5 0.104
     3  C   3.990        C    2 1.464    C    4 1.425    H   31 0.969    C    6 0.103
     4  C   3.984        C    5 1.427    C    3 1.425    H   10 0.969
     5  C   3.990        C    6 1.462    C    4 1.427    H   30 0.969    C    2 0.104
     6  C   3.984        C    5 1.462    C    1 1.359    H    9 0.966    C    3 0.103
     7  C   3.928        N   11 1.612    C    1 1.107    H   20 0.945    O   19 0.132
     8  H   0.997        C    2 0.961
     9  H   0.997        C    6 0.966
    10  H   0.996        C    4 0.969
    11  N   3.643        C    7 1.612    C   12 0.981    H   13 0.813
    12  C   3.948        C   14 0.995    N   11 0.981    H   15 0.969    H   16 0.941
    13  H   0.939        N   11 0.813
    14  C   3.987        C   27 1.005    C   12 0.995    H   18 0.975    H   17 0.969
    15  H   0.995        C   12 0.969
    16  H   0.987        C   12 0.941
    17  H   0.997        C   14 0.969
    18  H   0.997        C   14 0.975
    19  O   1.792        H   21 0.942    H   23 0.489    C    7 0.132    O   22 0.117
    20  H   0.988        C    7 0.945
    21  H   0.947        O   19 0.942
    22  O   1.580        H   24 0.957    H   23 0.413    O   19 0.117
    23  H   0.904        O   19 0.489    O   22 0.413
    24  H   0.963        O   22 0.957
    25  H   0.962        N   49 0.897
    26  H   0.981        N   49 0.966
    27  C   3.995        C   32 1.019    C   14 1.005    H   28 0.977    H   29 0.977
    28  H   0.999        C   27 0.977
    29  H   0.998        C   27 0.977
    30  H   0.996        C    5 0.969
    31  H   0.996        C    3 0.969
    32  C   3.995        C   27 1.019    H   35 0.987    H   34 0.987    H   33 0.987
    33  H   0.998        C   32 0.987
    34  H   0.998        C   32 0.987
    35  H   0.998        C   32 0.987
    36  C   3.983        N   49 1.014    C   39 1.005    H   37 0.974    H   38 0.972
    37  H   0.999        C   36 0.974
    38  H   0.999        C   36 0.972
    39  C   3.996        C   42 1.007    C   36 1.005    H   41 0.976    H   40 0.974
    40  H   0.998        C   39 0.974
    41  H   0.999        C   39 0.976
    42  C   3.997        C   45 1.020    C   39 1.007    H   43 0.978    H   44 0.978
    43  H   0.999        C   42 0.978
    44  H   0.999        C   42 0.978
    45  C   3.996        C   42 1.020    H   47 0.988    H   46 0.987    H   48 0.987
    46  H   0.998        C   45 0.987
    47  H   0.999        C   45 0.988
    48  H   0.998        C   45 0.987
    49  N   3.089        C   36 1.014    H   26 0.966    H   25 0.897

molecular dipole:
                 x           y           z       tot (Debye)
 q only:       -0.628      -2.517       2.885
   full:       -0.421      -1.642       2.694       8.090
molecular quadrupole (traceless):
                xx          xy          yy          xz          yz          zz
 q only:       37.629      37.881     -21.762     -29.194      33.987     -15.868
  q+dip:       27.831      21.332     -11.872     -28.236      31.731     -15.960
   full:       27.351      22.921     -10.324     -28.088      29.596     -17.027


           -------------------------------------------------
          | TOTAL ENERGY              -61.351751968733 Eh   |
          | GRADIENT NORM               0.034800549950 Eh/α |
          | HOMO-LUMO GAP               1.680565559746 eV   |
           -------------------------------------------------

------------------------------------------------------------------------
 * finished run on 2021/02/02 at 13:23:13.780     
------------------------------------------------------------------------
 total:
 * wall-time:     0 d,  0 h,  0 min,  0.156 sec
 *  cpu-time:     0 d,  0 h,  0 min,  1.211 sec
 * ratio c/w:     7.771 speedup
 SCF:
 * wall-time:     0 d,  0 h,  0 min,  0.079 sec
 *  cpu-time:     0 d,  0 h,  0 min,  0.685 sec
 * ratio c/w:     8.719 speedup


-------------------------   --------------------
FINAL SINGLE POINT ENERGY       -61.351751968730
-------------------------   --------------------


----------------------------------------------------------------------------
                           ORCA NUMERICAL FREQUENCIES
                              (8-process run)
----------------------------------------------------------------------------

Number of atoms                ... 49
Central differences            ... used
Number of displacements        ... 294
Numerical increment            ... 5.000e-03 bohr
IR-spectrum generation         ... on
Raman-spectrum generation      ... off
Surface Crossing Hessian       ... off
List of participating nodes    ...  /tmp/slurm-scratch/freq.367/freq.hostnames

The output will be reduced. Please look at the following files:
SCF program output             ... >/tmp/slurm-scratch/freq.367/freq.lastscf
Integral program output        ... >/tmp/slurm-scratch/freq.367/freq.lastint
Gradient program output        ... >/tmp/slurm-scratch/freq.367/freq.lastgrad
Dipole moment program output   ... >/tmp/slurm-scratch/freq.367/freq.lastmom
AutoCI program output          ... >/tmp/slurm-scratch/freq.367/freq.lastautoci


         <<< Energy and Gradient at the input geometry >>>

        <<< Energy and Gradient at displaced geometries >>>
             <<<Displacing   2/coordinate 1 (+)>>>
             <<<Displacing   3/coordinate 2 (+)>>>
             <<<Displacing   1/coordinate 2 (+)>>>
             <<<Displacing   1/coordinate 1 (+)>>>
             <<<Displacing   3/coordinate 1 (+)>>>
             <<<Displacing   2/coordinate 3 (+)>>>
             <<<Displacing   1/coordinate 3 (+)>>>
             <<<Displacing   2/coordinate 2 (+)>>>
             <<<Displacing   2/coordinate 1 (-)>>>
             <<<Displacing   3/coordinate 2 (-)>>>
             <<<Displacing   1/coordinate 2 (-)>>>
             <<<Displacing   3/coordinate 1 (-)>>>
             <<<Displacing   1/coordinate 1 (-)>>>
             <<<Displacing   2/coordinate 3 (-)>>>
             <<<Displacing   1/coordinate 3 (-)>>>
             <<<Displacing   2/coordinate 2 (-)>>>
             <<<Displacing   5/coordinate 1 (+)>>>
             <<<Displacing   4/coordinate 2 (+)>>>
             <<<Displacing   4/coordinate 3 (+)>>>
             <<<Displacing   4/coordinate 1 (+)>>>
             <<<Displacing   5/coordinate 2 (+)>>>
             <<<Displacing   3/coordinate 3 (+)>>>
             <<<Displacing   5/coordinate 1 (-)>>>
             <<<Displacing   4/coordinate 2 (-)>>>
             <<<Displacing   5/coordinate 3 (+)>>>
             <<<Displacing   4/coordinate 3 (-)>>>
             <<<Displacing   4/coordinate 1 (-)>>>
             <<<Displacing   3/coordinate 3 (-)>>>
             <<<Displacing   5/coordinate 2 (-)>>>
             <<<Displacing   6/coordinate 1 (+)>>>
             <<<Displacing   5/coordinate 3 (-)>>>
             <<<Displacing   6/coordinate 1 (-)>>>
             <<<Displacing   7/coordinate 3 (+)>>>
             <<<Displacing   6/coordinate 3 (+)>>>
             <<<Displacing   6/coordinate 2 (+)>>>
             <<<Displacing   7/coordinate 2 (+)>>>
             <<<Displacing   7/coordinate 1 (+)>>>
             <<<Displacing   8/coordinate 1 (+)>>>
             <<<Displacing   8/coordinate 2 (+)>>>
             <<<Displacing   6/coordinate 2 (-)>>>
             <<<Displacing   7/coordinate 3 (-)>>>
             <<<Displacing   6/coordinate 3 (-)>>>
             <<<Displacing   7/coordinate 2 (-)>>>
             <<<Displacing   8/coordinate 3 (+)>>>
             <<<Displacing   8/coordinate 1 (-)>>>
             <<<Displacing   7/coordinate 1 (-)>>>
             <<<Displacing   8/coordinate 2 (-)>>>
             <<<Displacing   8/coordinate 3 (-)>>>
             <<<Displacing   9/coordinate 3 (+)>>>
             <<<Displacing   9/coordinate 2 (+)>>>
             <<<Displacing   9/coordinate 3 (-)>>>
             <<<Displacing  11/coordinate 2 (+)>>>
             <<<Displacing   9/coordinate 1 (+)>>>
             <<<Displacing  10/coordinate 1 (+)>>>
             <<<Displacing  10/coordinate 2 (+)>>>
             <<<Displacing  10/coordinate 3 (+)>>>
             <<<Displacing   9/coordinate 2 (-)>>>
             <<<Displacing  11/coordinate 2 (-)>>>
             <<<Displacing  10/coordinate 1 (-)>>>
             <<<Displacing  11/coordinate 1 (+)>>>
             <<<Displacing   9/coordinate 1 (-)>>>
             <<<Displacing  10/coordinate 2 (-)>>>
             <<<Displacing  10/coordinate 3 (-)>>>
             <<<Displacing  11/coordinate 1 (-)>>>
             <<<Displacing  12/coordinate 2 (+)>>>
             <<<Displacing  13/coordinate 2 (+)>>>
             <<<Displacing  12/coordinate 1 (+)>>>
             <<<Displacing  11/coordinate 3 (+)>>>
             <<<Displacing  13/coordinate 1 (+)>>>
             <<<Displacing  12/coordinate 3 (+)>>>
             <<<Displacing  12/coordinate 2 (-)>>>
             <<<Displacing  13/coordinate 2 (-)>>>
             <<<Displacing  12/coordinate 1 (-)>>>
             <<<Displacing  13/coordinate 3 (+)>>>
             <<<Displacing  11/coordinate 3 (-)>>>
             <<<Displacing  13/coordinate 1 (-)>>>
             <<<Displacing  12/coordinate 3 (-)>>>
             <<<Displacing  13/coordinate 3 (-)>>>
             <<<Displacing  14/coordinate 1 (+)>>>
             <<<Displacing  14/coordinate 1 (-)>>>
             <<<Displacing  15/coordinate 2 (+)>>>
             <<<Displacing  14/coordinate 3 (+)>>>
             <<<Displacing  15/coordinate 1 (+)>>>
             <<<Displacing  14/coordinate 2 (+)>>>
             <<<Displacing  15/coordinate 3 (+)>>>
             <<<Displacing  16/coordinate 1 (+)>>>
             <<<Displacing  15/coordinate 2 (-)>>>
             <<<Displacing  14/coordinate 3 (-)>>>
             <<<Displacing  14/coordinate 2 (-)>>>
             <<<Displacing  15/coordinate 1 (-)>>>
             <<<Displacing  15/coordinate 3 (-)>>>
             <<<Displacing  16/coordinate 1 (-)>>>
             <<<Displacing  16/coordinate 2 (+)>>>
             <<<Displacing  16/coordinate 3 (+)>>>
             <<<Displacing  16/coordinate 2 (-)>>>
             <<<Displacing  16/coordinate 3 (-)>>>
             <<<Displacing  17/coordinate 1 (+)>>>
             <<<Displacing  17/coordinate 1 (-)>>>
             <<<Displacing  17/coordinate 2 (+)>>>
             <<<Displacing  17/coordinate 3 (+)>>>
             <<<Displacing  18/coordinate 2 (+)>>>
             <<<Displacing  17/coordinate 2 (-)>>>
             <<<Displacing  19/coordinate 1 (+)>>>
             <<<Displacing  17/coordinate 3 (-)>>>
             <<<Displacing  18/coordinate 3 (+)>>>
             <<<Displacing  18/coordinate 2 (-)>>>
             <<<Displacing  18/coordinate 1 (+)>>>
             <<<Displacing  19/coordinate 2 (+)>>>
             <<<Displacing  18/coordinate 3 (-)>>>
             <<<Displacing  19/coordinate 1 (-)>>>
             <<<Displacing  18/coordinate 1 (-)>>>
             <<<Displacing  19/coordinate 2 (-)>>>
             <<<Displacing  20/coordinate 1 (+)>>>
             <<<Displacing  20/coordinate 3 (+)>>>
             <<<Displacing  19/coordinate 3 (+)>>>
             <<<Displacing  21/coordinate 1 (+)>>>
             <<<Displacing  20/coordinate 3 (-)>>>
             <<<Displacing  20/coordinate 2 (+)>>>
             <<<Displacing  20/coordinate 1 (-)>>>
             <<<Displacing  19/coordinate 3 (-)>>>
             <<<Displacing  21/coordinate 2 (+)>>>
             <<<Displacing  21/coordinate 3 (+)>>>
             <<<Displacing  20/coordinate 2 (-)>>>
             <<<Displacing  21/coordinate 1 (-)>>>
             <<<Displacing  22/coordinate 1 (+)>>>
             <<<Displacing  21/coordinate 2 (-)>>>
             <<<Displacing  21/coordinate 3 (-)>>>
             <<<Displacing  22/coordinate 1 (-)>>>
             <<<Displacing  22/coordinate 2 (+)>>>
             <<<Displacing  22/coordinate 3 (+)>>>
             <<<Displacing  22/coordinate 2 (-)>>>
             <<<Displacing  22/coordinate 3 (-)>>>
             <<<Displacing  23/coordinate 1 (+)>>>
             <<<Displacing  24/coordinate 1 (+)>>>
             <<<Displacing  23/coordinate 2 (+)>>>
             <<<Displacing  23/coordinate 3 (+)>>>
             <<<Displacing  24/coordinate 3 (+)>>>
             <<<Displacing  23/coordinate 1 (-)>>>
             <<<Displacing  24/coordinate 1 (-)>>>
             <<<Displacing  23/coordinate 2 (-)>>>
             <<<Displacing  24/coordinate 2 (+)>>>
             <<<Displacing  23/coordinate 3 (-)>>>
             <<<Displacing  24/coordinate 3 (-)>>>
             <<<Displacing  24/coordinate 2 (-)>>>
             <<<Displacing  25/coordinate 1 (+)>>>
             <<<Displacing  25/coordinate 1 (-)>>>
             <<<Displacing  25/coordinate 2 (+)>>>
             <<<Displacing  25/coordinate 2 (-)>>>
             <<<Displacing  26/coordinate 2 (+)>>>
             <<<Displacing  25/coordinate 3 (+)>>>
             <<<Displacing  26/coordinate 1 (+)>>>
             <<<Displacing  26/coordinate 3 (+)>>>
             <<<Displacing  27/coordinate 1 (+)>>>
             <<<Displacing  26/coordinate 2 (-)>>>
             <<<Displacing  27/coordinate 2 (+)>>>
             <<<Displacing  25/coordinate 3 (-)>>>
             <<<Displacing  26/coordinate 1 (-)>>>
             <<<Displacing  26/coordinate 3 (-)>>>
             <<<Displacing  27/coordinate 1 (-)>>>
             <<<Displacing  27/coordinate 2 (-)>>>
             <<<Displacing  27/coordinate 3 (+)>>>
             <<<Displacing  27/coordinate 3 (-)>>>
             <<<Displacing  28/coordinate 1 (+)>>>
             <<<Displacing  28/coordinate 2 (+)>>>
             <<<Displacing  28/coordinate 3 (+)>>>
             <<<Displacing  28/coordinate 1 (-)>>>
             <<<Displacing  28/coordinate 2 (-)>>>
             <<<Displacing  29/coordinate 1 (+)>>>
             <<<Displacing  29/coordinate 2 (+)>>>
             <<<Displacing  28/coordinate 3 (-)>>>
             <<<Displacing  29/coordinate 3 (+)>>>
             <<<Displacing  29/coordinate 1 (-)>>>
             <<<Displacing  30/coordinate 1 (+)>>>
             <<<Displacing  29/coordinate 2 (-)>>>
             <<<Displacing  29/coordinate 3 (-)>>>
             <<<Displacing  30/coordinate 1 (-)>>>
             <<<Displacing  30/coordinate 2 (+)>>>
             <<<Displacing  30/coordinate 2 (-)>>>
             <<<Displacing  31/coordinate 2 (+)>>>
             <<<Displacing  30/coordinate 3 (+)>>>
             <<<Displacing  31/coordinate 1 (+)>>>
             <<<Displacing  31/coordinate 2 (-)>>>
             <<<Displacing  31/coordinate 3 (+)>>>
             <<<Displacing  32/coordinate 1 (+)>>>
             <<<Displacing  30/coordinate 3 (-)>>>
             <<<Displacing  31/coordinate 1 (-)>>>
             <<<Displacing  31/coordinate 3 (-)>>>
             <<<Displacing  32/coordinate 2 (+)>>>
             <<<Displacing  32/coordinate 1 (-)>>>
             <<<Displacing  32/coordinate 3 (+)>>>
             <<<Displacing  32/coordinate 2 (-)>>>
             <<<Displacing  32/coordinate 3 (-)>>>
             <<<Displacing  33/coordinate 1 (+)>>>
             <<<Displacing  33/coordinate 2 (+)>>>
             <<<Displacing  33/coordinate 1 (-)>>>
             <<<Displacing  33/coordinate 2 (-)>>>
             <<<Displacing  34/coordinate 1 (+)>>>
             <<<Displacing  33/coordinate 3 (+)>>>
             <<<Displacing  34/coordinate 3 (+)>>>
             <<<Displacing  35/coordinate 1 (+)>>>
             <<<Displacing  34/coordinate 2 (+)>>>
             <<<Displacing  34/coordinate 1 (-)>>>
             <<<Displacing  33/coordinate 3 (-)>>>
             <<<Displacing  34/coordinate 3 (-)>>>
             <<<Displacing  35/coordinate 2 (+)>>>
             <<<Displacing  35/coordinate 1 (-)>>>
             <<<Displacing  34/coordinate 2 (-)>>>
             <<<Displacing  35/coordinate 2 (-)>>>
             <<<Displacing  35/coordinate 3 (+)>>>
             <<<Displacing  35/coordinate 3 (-)>>>
             <<<Displacing  36/coordinate 1 (+)>>>
             <<<Displacing  36/coordinate 2 (+)>>>
             <<<Displacing  36/coordinate 3 (+)>>>
             <<<Displacing  36/coordinate 1 (-)>>>
             <<<Displacing  37/coordinate 3 (+)>>>
             <<<Displacing  37/coordinate 1 (+)>>>
             <<<Displacing  36/coordinate 2 (-)>>>
             <<<Displacing  36/coordinate 3 (-)>>>
             <<<Displacing  37/coordinate 2 (+)>>>
             <<<Displacing  37/coordinate 3 (-)>>>
             <<<Displacing  37/coordinate 1 (-)>>>
             <<<Displacing  38/coordinate 1 (+)>>>
             <<<Displacing  37/coordinate 2 (-)>>>
             <<<Displacing  38/coordinate 1 (-)>>>
             <<<Displacing  38/coordinate 2 (+)>>>
             <<<Displacing  38/coordinate 2 (-)>>>
             <<<Displacing  38/coordinate 3 (+)>>>
             <<<Displacing  40/coordinate 1 (+)>>>
             <<<Displacing  39/coordinate 1 (+)>>>
             <<<Displacing  39/coordinate 2 (+)>>>
             <<<Displacing  38/coordinate 3 (-)>>>
             <<<Displacing  39/coordinate 3 (+)>>>
             <<<Displacing  39/coordinate 1 (-)>>>
             <<<Displacing  40/coordinate 1 (-)>>>
             <<<Displacing  39/coordinate 2 (-)>>>
             <<<Displacing  40/coordinate 2 (+)>>>
             <<<Displacing  39/coordinate 3 (-)>>>
             <<<Displacing  40/coordinate 3 (+)>>>
             <<<Displacing  40/coordinate 2 (-)>>>
             <<<Displacing  40/coordinate 3 (-)>>>
             <<<Displacing  41/coordinate 1 (+)>>>
             <<<Displacing  41/coordinate 1 (-)>>>
             <<<Displacing  42/coordinate 1 (+)>>>
             <<<Displacing  41/coordinate 3 (+)>>>
             <<<Displacing  41/coordinate 2 (+)>>>
             <<<Displacing  43/coordinate 1 (+)>>>
             <<<Displacing  42/coordinate 1 (-)>>>
             <<<Displacing  41/coordinate 3 (-)>>>
             <<<Displacing  42/coordinate 2 (+)>>>
             <<<Displacing  41/coordinate 2 (-)>>>
             <<<Displacing  43/coordinate 1 (-)>>>
             <<<Displacing  42/coordinate 3 (+)>>>
             <<<Displacing  42/coordinate 2 (-)>>>
             <<<Displacing  42/coordinate 3 (-)>>>
             <<<Displacing  43/coordinate 2 (+)>>>
             <<<Displacing  43/coordinate 2 (-)>>>
             <<<Displacing  43/coordinate 3 (+)>>>
             <<<Displacing  43/coordinate 3 (-)>>>
             <<<Displacing  44/coordinate 2 (+)>>>
             <<<Displacing  45/coordinate 2 (+)>>>
             <<<Displacing  44/coordinate 3 (+)>>>
             <<<Displacing  44/coordinate 1 (+)>>>
             <<<Displacing  45/coordinate 1 (+)>>>
             <<<Displacing  44/coordinate 3 (-)>>>
             <<<Displacing  45/coordinate 2 (-)>>>
             <<<Displacing  44/coordinate 2 (-)>>>
             <<<Displacing  45/coordinate 3 (+)>>>
             <<<Displacing  44/coordinate 1 (-)>>>
             <<<Displacing  45/coordinate 1 (-)>>>
             <<<Displacing  45/coordinate 3 (-)>>>
             <<<Displacing  46/coordinate 1 (+)>>>
             <<<Displacing  46/coordinate 1 (-)>>>
             <<<Displacing  46/coordinate 2 (+)>>>
             <<<Displacing  46/coordinate 2 (-)>>>
             <<<Displacing  47/coordinate 1 (+)>>>
             <<<Displacing  46/coordinate 3 (+)>>>
             <<<Displacing  47/coordinate 1 (-)>>>
             <<<Displacing  47/coordinate 2 (+)>>>
             <<<Displacing  48/coordinate 2 (+)>>>
             <<<Displacing  46/coordinate 3 (-)>>>
             <<<Displacing  47/coordinate 3 (+)>>>
             <<<Displacing  48/coordinate 1 (+)>>>
             <<<Displacing  47/coordinate 2 (-)>>>
             <<<Displacing  48/coordinate 2 (-)>>>
             <<<Displacing  47/coordinate 3 (-)>>>
             <<<Displacing  48/coordinate 1 (-)>>>
             <<<Displacing  48/coordinate 3 (+)>>>
             <<<Displacing  48/coordinate 3 (-)>>>
             <<<Displacing  49/coordinate 1 (+)>>>
             <<<Displacing  49/coordinate 1 (-)>>>
             <<<Displacing  49/coordinate 2 (+)>>>
             <<<Displacing  49/coordinate 2 (-)>>>
             <<<Displacing  49/coordinate 3 (+)>>>
             <<<Displacing  49/coordinate 3 (-)>>>

-----------------------
VIBRATIONAL FREQUENCIES
-----------------------

Scaling factor for frequencies =  1.000000000 (already applied!)

   0:         0.00 cm**-1
   1:         0.00 cm**-1
   2:         0.00 cm**-1
   3:         0.00 cm**-1
   4:         0.00 cm**-1
   5:         0.00 cm**-1
   6:      -336.29 cm**-1 ***imaginary mode***
   7:        32.39 cm**-1
   8:        39.45 cm**-1
   9:        40.91 cm**-1
  10:        48.42 cm**-1
  11:        66.61 cm**-1
  12:        67.02 cm**-1
  13:        76.09 cm**-1
  14:        85.19 cm**-1
  15:        91.97 cm**-1
  16:        99.17 cm**-1
  17:       101.73 cm**-1
  18:       114.97 cm**-1
  19:       128.12 cm**-1
  20:       139.66 cm**-1
  21:       141.80 cm**-1
  22:       151.57 cm**-1
  23:       177.73 cm**-1
  24:       192.14 cm**-1
  25:       218.85 cm**-1
  26:       246.31 cm**-1
  27:       265.46 cm**-1
  28:       272.87 cm**-1
  29:       277.06 cm**-1
  30:       281.35 cm**-1
  31:       307.79 cm**-1
  32:       355.76 cm**-1
  33:       379.15 cm**-1
  34:       393.15 cm**-1
  35:       416.52 cm**-1
  36:       431.29 cm**-1
  37:       477.93 cm**-1
  38:       486.19 cm**-1
  39:       495.17 cm**-1
  40:       520.98 cm**-1
  41:       576.45 cm**-1
  42:       588.51 cm**-1
  43:       610.43 cm**-1
  44:       655.86 cm**-1
  45:       666.33 cm**-1
  46:       696.12 cm**-1
  47:       751.38 cm**-1
  48:       763.23 cm**-1
  49:       772.49 cm**-1
  50:       775.90 cm**-1
  51:       824.24 cm**-1
  52:       826.36 cm**-1
  53:       834.34 cm**-1
  54:       855.71 cm**-1
  55:       877.72 cm**-1
  56:       917.08 cm**-1
  57:       933.02 cm**-1
  58:       938.25 cm**-1
  59:       941.88 cm**-1
  60:       942.28 cm**-1
  61:       945.88 cm**-1
  62:       947.28 cm**-1
  63:       966.74 cm**-1
  64:       985.29 cm**-1
  65:      1009.23 cm**-1
  66:      1030.96 cm**-1
  67:      1045.92 cm**-1
  68:      1069.84 cm**-1
  69:      1077.69 cm**-1
  70:      1093.80 cm**-1
  71:      1099.40 cm**-1
  72:      1103.74 cm**-1
  73:      1118.19 cm**-1
  74:      1124.36 cm**-1
  75:      1129.06 cm**-1
  76:      1132.18 cm**-1
  77:      1179.99 cm**-1
  78:      1182.08 cm**-1
  79:      1184.36 cm**-1
  80:      1205.74 cm**-1
  81:      1206.65 cm**-1
  82:      1216.59 cm**-1
  83:      1243.02 cm**-1
  84:      1249.25 cm**-1
  85:      1255.16 cm**-1
  86:      1274.78 cm**-1
  87:      1277.23 cm**-1
  88:      1278.33 cm**-1
  89:      1282.13 cm**-1
  90:      1294.12 cm**-1
  91:      1296.55 cm**-1
  92:      1306.60 cm**-1
  93:      1331.67 cm**-1
  94:      1350.22 cm**-1
  95:      1353.84 cm**-1
  96:      1365.72 cm**-1
  97:      1367.71 cm**-1
  98:      1378.89 cm**-1
  99:      1419.41 cm**-1
 100:      1428.82 cm**-1
 101:      1430.07 cm**-1
 102:      1444.69 cm**-1
 103:      1450.34 cm**-1
 104:      1467.60 cm**-1
 105:      1492.80 cm**-1
 106:      1503.86 cm**-1
 107:      1504.85 cm**-1
 108:      1506.15 cm**-1
 109:      1508.39 cm**-1
 110:      1509.01 cm**-1
 111:      1509.62 cm**-1
 112:      1511.06 cm**-1
 113:      1512.83 cm**-1
 114:      1534.49 cm**-1
 115:      1556.64 cm**-1
 116:      1562.85 cm**-1
 117:      1628.09 cm**-1
 118:      2657.30 cm**-1
 119:      2880.57 cm**-1
 120:      2924.95 cm**-1
 121:      2937.39 cm**-1
 122:      2943.96 cm**-1
 123:      2954.95 cm**-1
 124:      2958.57 cm**-1
 125:      2961.84 cm**-1
 126:      2966.84 cm**-1
 127:      2967.97 cm**-1
 128:      2972.40 cm**-1
 129:      2972.86 cm**-1
 130:      2979.84 cm**-1
 131:      2980.57 cm**-1
 132:      2981.40 cm**-1
 133:      2988.18 cm**-1
 134:      2991.56 cm**-1
 135:      3000.25 cm**-1
 136:      3009.73 cm**-1
 137:      3041.54 cm**-1
 138:      3057.93 cm**-1
 139:      3060.36 cm**-1
 140:      3066.91 cm**-1
 141:      3073.50 cm**-1
 142:      3080.34 cm**-1
 143:      3094.11 cm**-1
 144:      3399.12 cm**-1
 145:      3584.98 cm**-1
 146:      3636.27 cm**-1


------------
NORMAL MODES
------------

These modes are the cartesian displacements weighted by the diagonal matrix
M(i,i)=1/sqrt(m[i]) where m[i] is the mass of the displaced atom
Thus, these vectors are normalized but *not* orthogonal

                  0          1          2          3          4          5    
      0       0.000000   0.000000   0.000000   0.000000   0.000000   0.000000
      1       0.000000   0.000000   0.000000   0.000000   0.000000   0.000000
      2       0.000000   0.000000   0.000000   0.000000   0.000000   0.000000
      3       0.000000   0.000000   0.000000   0.000000   0.000000   0.000000
      4       0.000000   0.000000   0.000000   0.000000   0.000000   0.000000
      5       0.000000   0.000000   0.000000   0.000000   0.000000   0.000000
      6       0.000000   0.000000   0.000000   0.000000   0.000000   0.000000
      7       0.000000   0.000000   0.000000   0.000000   0.000000   0.000000
      8       0.000000   0.000000   0.000000   0.000000   0.000000   0.000000
      9       0.000000   0.000000   0.000000   0.000000   0.000000   0.000000
     10       0.000000   0.000000   0.000000   0.000000   0.000000   0.000000
     11       0.000000   0.000000   0.000000   0.000000   0.000000   0.000000
     12       0.000000   0.000000   0.000000   0.000000   0.000000   0.000000
     13       0.000000   0.000000   0.000000   0.000000   0.000000   0.000000
     14       0.000000   0.000000   0.000000   0.000000   0.000000   0.000000
     15       0.000000   0.000000   0.000000   0.000000   0.000000   0.000000
     16       0.000000   0.000000   0.000000   0.000000   0.000000   0.000000
     17       0.000000   0.000000   0.000000   0.000000   0.000000   0.000000
     18       0.000000   0.000000   0.000000   0.000000   0.000000   0.000000
     19       0.000000   0.000000   0.000000   0.000000   0.000000   0.000000
     20       0.000000   0.000000   0.000000   0.000000   0.000000   0.000000
     21       0.000000   0.000000   0.000000   0.000000   0.000000   0.000000
     22       0.000000   0.000000   0.000000   0.000000   0.000000   0.000000
     23       0.000000   0.000000   0.000000   0.000000   0.000000   0.000000
     24       0.000000   0.000000   0.000000   0.000000   0.000000   0.000000
     25       0.000000   0.000000   0.000000   0.000000   0.000000   0.000000
     26       0.000000   0.000000   0.000000   0.000000   0.000000   0.000000
     27       0.000000   0.000000   0.000000   0.000000   0.000000   0.000000
     28       0.000000   0.000000   0.000000   0.000000   0.000000   0.000000
     29       0.000000   0.000000   0.000000   0.000000   0.000000   0.000000
     30       0.000000   0.000000   0.000000   0.000000   0.000000   0.000000
     31       0.000000   0.000000   0.000000   0.000000   0.000000   0.000000
     32       0.000000   0.000000   0.000000   0.000000   0.000000   0.000000
     33       0.000000   0.000000   0.000000   0.000000   0.000000   0.000000
     34       0.000000   0.000000   0.000000   0.000000   0.000000   0.000000
     35       0.000000   0.000000   0.000000   0.000000   0.000000   0.000000
     36       0.000000   0.000000   0.000000   0.000000   0.000000   0.000000
     37       0.000000   0.000000   0.000000   0.000000   0.000000   0.000000
     38       0.000000   0.000000   0.000000   0.000000   0.000000   0.000000
     39       0.000000   0.000000   0.000000   0.000000   0.000000   0.000000
     40       0.000000   0.000000   0.000000   0.000000   0.000000   0.000000
     41       0.000000   0.000000   0.000000   0.000000   0.000000   0.000000
     42       0.000000   0.000000   0.000000   0.000000   0.000000   0.000000
     43       0.000000   0.000000   0.000000   0.000000   0.000000   0.000000
     44       0.000000   0.000000   0.000000   0.000000   0.000000   0.000000
     45       0.000000   0.000000   0.000000   0.000000   0.000000   0.000000
     46       0.000000   0.000000   0.000000   0.000000   0.000000   0.000000
     47       0.000000   0.000000   0.000000   0.000000   0.000000   0.000000
     48       0.000000   0.000000   0.000000   0.000000   0.000000   0.000000
     49       0.000000   0.000000   0.000000   0.000000   0.000000   0.000000
     50       0.000000   0.000000   0.000000   0.000000   0.000000   0.000000
     51       0.000000   0.000000   0.000000   0.000000   0.000000   0.000000
     52       0.000000   0.000000   0.000000   0.000000   0.000000   0.000000
     53       0.000000   0.000000   0.000000   0.000000   0.000000   0.000000
     54       0.000000   0.000000   0.000000   0.000000   0.000000   0.000000
     55       0.000000   0.000000   0.000000   0.000000   0.000000   0.000000
     56       0.000000   0.000000   0.000000   0.000000   0.000000   0.000000
     57       0.000000   0.000000   0.000000   0.000000   0.000000   0.000000
     58       0.000000   0.000000   0.000000   0.000000   0.000000   0.000000
     59       0.000000   0.000000   0.000000   0.000000   0.000000   0.000000
     60       0.000000   0.000000   0.000000   0.000000   0.000000   0.000000
     61       0.000000   0.000000   0.000000   0.000000   0.000000   0.000000
     62       0.000000   0.000000   0.000000   0.000000   0.000000   0.000000
     63       0.000000   0.000000   0.000000   0.000000   0.000000   0.000000
     64       0.000000   0.000000   0.000000   0.000000   0.000000   0.000000
     65       0.000000   0.000000   0.000000   0.000000   0.000000   0.000000
     66       0.000000   0.000000   0.000000   0.000000   0.000000   0.000000
     67       0.000000   0.000000   0.000000   0.000000   0.000000   0.000000
     68       0.000000   0.000000   0.000000   0.000000   0.000000   0.000000
     69       0.000000   0.000000   0.000000   0.000000   0.000000   0.000000
     70       0.000000   0.000000   0.000000   0.000000   0.000000   0.000000
     71       0.000000   0.000000   0.000000   0.000000   0.000000   0.000000
     72       0.000000   0.000000   0.000000   0.000000   0.000000   0.000000
     73       0.000000   0.000000   0.000000   0.000000   0.000000   0.000000
     74       0.000000   0.000000   0.000000   0.000000   0.000000   0.000000
     75       0.000000   0.000000   0.000000   0.000000   0.000000   0.000000
     76       0.000000   0.000000   0.000000   0.000000   0.000000   0.000000
     77       0.000000   0.000000   0.000000   0.000000   0.000000   0.000000
     78       0.000000   0.000000   0.000000   0.000000   0.000000   0.000000
     79       0.000000   0.000000   0.000000   0.000000   0.000000   0.000000
     80       0.000000   0.000000   0.000000   0.000000   0.000000   0.000000
     81       0.000000   0.000000   0.000000   0.000000   0.000000   0.000000
     82       0.000000   0.000000   0.000000   0.000000   0.000000   0.000000
     83       0.000000   0.000000   0.000000   0.000000   0.000000   0.000000
     84       0.000000   0.000000   0.000000   0.000000   0.000000   0.000000
     85       0.000000   0.000000   0.000000   0.000000   0.000000   0.000000
     86       0.000000   0.000000   0.000000   0.000000   0.000000   0.000000
     87       0.000000   0.000000   0.000000   0.000000   0.000000   0.000000
     88       0.000000   0.000000   0.000000   0.000000   0.000000   0.000000
     89       0.000000   0.000000   0.000000   0.000000   0.000000   0.000000
     90       0.000000   0.000000   0.000000   0.000000   0.000000   0.000000
     91       0.000000   0.000000   0.000000   0.000000   0.000000   0.000000
     92       0.000000   0.000000   0.000000   0.000000   0.000000   0.000000
     93       0.000000   0.000000   0.000000   0.000000   0.000000   0.000000
     94       0.000000   0.000000   0.000000   0.000000   0.000000   0.000000
     95       0.000000   0.000000   0.000000   0.000000   0.000000   0.000000
     96       0.000000   0.000000   0.000000   0.000000   0.000000   0.000000
     97       0.000000   0.000000   0.000000   0.000000   0.000000   0.000000
     98       0.000000   0.000000   0.000000   0.000000   0.000000   0.000000
     99       0.000000   0.000000   0.000000   0.000000   0.000000   0.000000
    100       0.000000   0.000000   0.000000   0.000000   0.000000   0.000000
    101       0.000000   0.000000   0.000000   0.000000   0.000000   0.000000
    102       0.000000   0.000000   0.000000   0.000000   0.000000   0.000000
    103       0.000000   0.000000   0.000000   0.000000   0.000000   0.000000
    104       0.000000   0.000000   0.000000   0.000000   0.000000   0.000000
    105       0.000000   0.000000   0.000000   0.000000   0.000000   0.000000
    106       0.000000   0.000000   0.000000   0.000000   0.000000   0.000000
    107       0.000000   0.000000   0.000000   0.000000   0.000000   0.000000
    108       0.000000   0.000000   0.000000   0.000000   0.000000   0.000000
    109       0.000000   0.000000   0.000000   0.000000   0.000000   0.000000
    110       0.000000   0.000000   0.000000   0.000000   0.000000   0.000000
    111       0.000000   0.000000   0.000000   0.000000   0.000000   0.000000
    112       0.000000   0.000000   0.000000   0.000000   0.000000   0.000000
    113       0.000000   0.000000   0.000000   0.000000   0.000000   0.000000
    114       0.000000   0.000000   0.000000   0.000000   0.000000   0.000000
    115       0.000000   0.000000   0.000000   0.000000   0.000000   0.000000
    116       0.000000   0.000000   0.000000   0.000000   0.000000   0.000000
    117       0.000000   0.000000   0.000000   0.000000   0.000000   0.000000
    118       0.000000   0.000000   0.000000   0.000000   0.000000   0.000000
    119       0.000000   0.000000   0.000000   0.000000   0.000000   0.000000
    120       0.000000   0.000000   0.000000   0.000000   0.000000   0.000000
    121       0.000000   0.000000   0.000000   0.000000   0.000000   0.000000
    122       0.000000   0.000000   0.000000   0.000000   0.000000   0.000000
    123       0.000000   0.000000   0.000000   0.000000   0.000000   0.000000
    124       0.000000   0.000000   0.000000   0.000000   0.000000   0.000000
    125       0.000000   0.000000   0.000000   0.000000   0.000000   0.000000
    126       0.000000   0.000000   0.000000   0.000000   0.000000   0.000000
    127       0.000000   0.000000   0.000000   0.000000   0.000000   0.000000
    128       0.000000   0.000000   0.000000   0.000000   0.000000   0.000000
    129       0.000000   0.000000   0.000000   0.000000   0.000000   0.000000
    130       0.000000   0.000000   0.000000   0.000000   0.000000   0.000000
    131       0.000000   0.000000   0.000000   0.000000   0.000000   0.000000
    132       0.000000   0.000000   0.000000   0.000000   0.000000   0.000000
    133       0.000000   0.000000   0.000000   0.000000   0.000000   0.000000
    134       0.000000   0.000000   0.000000   0.000000   0.000000   0.000000
    135       0.000000   0.000000   0.000000   0.000000   0.000000   0.000000
    136       0.000000   0.000000   0.000000   0.000000   0.000000   0.000000
    137       0.000000   0.000000   0.000000   0.000000   0.000000   0.000000
    138       0.000000   0.000000   0.000000   0.000000   0.000000   0.000000
    139       0.000000   0.000000   0.000000   0.000000   0.000000   0.000000
    140       0.000000   0.000000   0.000000   0.000000   0.000000   0.000000
    141       0.000000   0.000000   0.000000   0.000000   0.000000   0.000000
    142       0.000000   0.000000   0.000000   0.000000   0.000000   0.000000
    143       0.000000   0.000000   0.000000   0.000000   0.000000   0.000000
    144       0.000000   0.000000   0.000000   0.000000   0.000000   0.000000
    145       0.000000   0.000000   0.000000   0.000000   0.000000   0.000000
    146       0.000000   0.000000   0.000000   0.000000   0.000000   0.000000
                  6          7          8          9         10         11    
      0      -0.030921   0.062127   0.045551   0.040132  -0.032007   0.010180
      1      -0.047376  -0.007923   0.000396  -0.005517  -0.015136   0.018083
      2       0.037973  -0.031236   0.008120   0.024063  -0.016049  -0.028751
      3      -0.013072   0.093167   0.032688   0.052810  -0.056518  -0.026057
      4      -0.004600  -0.001193  -0.001202   0.029249  -0.006443   0.038600
      5       0.031473  -0.017221   0.001957   0.015400  -0.033258  -0.057108
      6       0.001363   0.119301   0.021306   0.067260  -0.070260  -0.069473
      7       0.013540  -0.025948   0.000450   0.081059   0.080078   0.007328
      8       0.011683  -0.028038   0.009268  -0.008648  -0.048256  -0.019694
      9       0.002832   0.115034   0.022050   0.070066  -0.059520  -0.076798
     10       0.004816  -0.056079   0.004576   0.100233   0.155005  -0.042859
     11      -0.005570  -0.053468   0.022684  -0.024076  -0.044298   0.046315
     12      -0.006509   0.084625   0.035289   0.058487  -0.035472  -0.041569
     13       0.005777  -0.061415   0.010203   0.068381   0.140528  -0.061132
     14      -0.012641  -0.068129   0.027465  -0.015802  -0.024101   0.074663
     15      -0.019693   0.058467   0.047136   0.043947  -0.021640   0.001472
     16      -0.016528  -0.037478   0.009586   0.016205   0.055337  -0.030513
     17       0.001018  -0.057503   0.019907   0.008429  -0.009300   0.037363
     18      -0.090274   0.033609   0.062837   0.027311  -0.015559   0.046608
     19      -0.163419   0.014899  -0.006600  -0.048889  -0.071581   0.028664
     20       0.135958  -0.019026  -0.000006   0.044826  -0.009396  -0.054315
     21      -0.014384   0.096892   0.032408   0.050912  -0.064950  -0.021198
     22      -0.014404   0.025755   0.000054   0.014858  -0.070117   0.078170
     23       0.041205   0.000686  -0.009232   0.028093  -0.032928  -0.105701
     24      -0.031136   0.035128   0.057341   0.035227  -0.003210   0.029588
     25      -0.029179  -0.041991   0.013736  -0.007786   0.044854  -0.046721
     26       0.001732  -0.068272   0.023766   0.014314   0.005255   0.060011
     27       0.010100   0.135247   0.012397   0.081136  -0.069557  -0.110017
     28       0.001145  -0.074145   0.005064   0.139574   0.221354  -0.067144
     29      -0.009660  -0.061764   0.028939  -0.042416  -0.056268   0.075070
     30      -0.010554   0.029321   0.052232   0.024284  -0.007145   0.053755
     31       0.011822   0.010874  -0.070786  -0.061277  -0.044165   0.044354
     32       0.015058   0.010496  -0.001635   0.050315  -0.039383  -0.081120
     33       0.005205   0.005171   0.082848   0.025095   0.010019   0.039140
     34       0.012119   0.025702  -0.062538  -0.060032  -0.044586   0.020399
     35       0.015239   0.020650  -0.022685   0.048868  -0.048828  -0.062534
     36      -0.032606   0.020845   0.012470   0.019834  -0.002014   0.039498
     37       0.059215  -0.029368  -0.113178  -0.061387  -0.038837   0.034759
     38       0.000209   0.044437   0.006565   0.042336  -0.042185  -0.083222
     39       0.000503   0.040209   0.061617  -0.036924  -0.013453   0.073776
     40       0.008357  -0.032609  -0.039296   0.056324  -0.012077  -0.018388
     41       0.001044   0.042765  -0.067613   0.034643  -0.077304   0.004923
     42       0.003364   0.010209   0.092584  -0.008202   0.010454   0.041101
     43       0.028487   0.068445  -0.069511  -0.128275  -0.063707   0.040086
     44      -0.005083  -0.021014  -0.003914   0.088617  -0.027374  -0.081578
     45       0.029372  -0.046632   0.114085   0.108695   0.042090  -0.013494
     46       0.051913   0.037884  -0.056949  -0.066420  -0.047341   0.012538
     47       0.062842   0.055643  -0.024134   0.013070  -0.061864  -0.059627
     48      -0.007254   0.032745   0.074690   0.022382  -0.024839   0.131255
     49       0.003690  -0.065975  -0.052462   0.095037   0.015879  -0.068601
     50      -0.001014   0.068013  -0.043646   0.047429  -0.112761   0.100838
     51       0.002638   0.090536   0.025687  -0.127305  -0.047745   0.129608
     52       0.005288  -0.033714  -0.069847   0.025592  -0.001969  -0.050857
     53      -0.004153   0.022092  -0.108761   0.013270  -0.046875  -0.073772
     54       0.099944   0.026676  -0.020296   0.020323   0.074595   0.121233
     55       0.166253   0.041106   0.066121  -0.082658  -0.191609   0.004383
     56      -0.158934  -0.018576   0.057524  -0.018012  -0.136571  -0.057340
     57      -0.050294   0.019839   0.093701   0.024929  -0.012429   0.058026
     58      -0.066876   0.038160   0.030932  -0.060465  -0.104621   0.022250
     59       0.072944  -0.048048  -0.010000   0.053174   0.021219  -0.040605
     60       0.059594   0.061401  -0.099751   0.024753   0.200601   0.143757
     61       0.155845   0.006050   0.123748  -0.072655  -0.274482  -0.022421
     62      -0.115670  -0.019186   0.076097  -0.029196  -0.172787  -0.054715
     63      -0.077882   0.021331  -0.123578   0.005629   0.174108   0.144286
     64      -0.011230   0.065676  -0.140707  -0.106042   0.041453   0.060114
     65       0.055316   0.164896  -0.092751   0.002208   0.203897   0.016946
     66       0.681388   0.020500  -0.070027   0.007725   0.111611   0.127124
     67      -0.294026   0.054510  -0.040289  -0.091273  -0.064825   0.035320
     68      -0.000750   0.074765  -0.016483  -0.007551   0.034403  -0.018381
     69      -0.260202  -0.006601  -0.159822  -0.011346   0.176856   0.152334
     70       0.139234   0.067366  -0.118855  -0.127436   0.001522   0.055764
     71       0.246043   0.159342  -0.066831  -0.039210   0.137443   0.012192
     72       0.022354  -0.048090  -0.090741  -0.011837   0.020937  -0.083427
     73      -0.150647  -0.014504  -0.123670  -0.053218  -0.008363   0.005780
     74      -0.177233   0.120733  -0.065773   0.029933   0.140598  -0.091386
     75       0.082036  -0.139117  -0.060269  -0.027822   0.004812  -0.125800
     76       0.052888  -0.043356  -0.037707  -0.046448  -0.129179   0.012029
     77      -0.145160   0.108770  -0.073876   0.025588   0.144639  -0.105054
     78       0.003966   0.020509   0.067790  -0.063301   0.027011  -0.049489
     79       0.004782  -0.043949   0.046540   0.165190  -0.031165   0.059273
     80      -0.000945   0.058115  -0.090458   0.028104  -0.100209   0.070132
     81       0.004569  -0.015937   0.110306   0.016249   0.046366  -0.074789
     82       0.004495  -0.044554   0.076114   0.196660  -0.039923   0.086542
     83      -0.001759   0.069858  -0.051695   0.057364  -0.122762   0.128665
     84       0.004755   0.023035   0.053466  -0.117889   0.046987  -0.129787
     85       0.004600  -0.022749   0.054906   0.137294  -0.045457   0.074594
     86       0.000491   0.040809  -0.110217   0.007449  -0.070161  -0.011658
     87      -0.005739   0.081269   0.036064   0.060851  -0.027213  -0.047193
     88       0.016164  -0.083464   0.015431   0.084112   0.195036  -0.098731
     89      -0.023596  -0.087200   0.036875  -0.028043  -0.020227   0.124304
     90       0.015611   0.143087   0.011873   0.076271  -0.089071  -0.097443
     91       0.025224  -0.020774  -0.000821   0.106305   0.087964   0.021578
     92       0.013728  -0.017080   0.004573  -0.014940  -0.062295  -0.041849
     93       0.004542   0.044664   0.038954  -0.119333   0.014765  -0.037338
     94       0.002469  -0.081367   0.082198   0.267022  -0.021613   0.081089
     95       0.001041   0.079523  -0.136616   0.009665  -0.131354   0.169392
     96       0.005770   0.033316   0.047453  -0.126949   0.036488  -0.113119
     97       0.002098  -0.091871   0.131240   0.321832  -0.022865   0.104430
     98       0.000698   0.088661  -0.151614   0.003547  -0.144632   0.212079
     99       0.005808   0.077948  -0.000647  -0.195421  -0.003114  -0.016700
    100       0.003030  -0.079520   0.060808   0.248568  -0.020090   0.071069
    101       0.001347   0.072609  -0.165579  -0.002128  -0.122768   0.143368
    102       0.003110   0.039937   0.049592  -0.075867   0.002096   0.026750
    103       0.002806  -0.099959   0.080799   0.304570  -0.014900   0.083765
    104      -0.000657   0.092552  -0.124911   0.013930  -0.148904   0.225757
    105       0.017700  -0.078802  -0.076306  -0.019874   0.000503  -0.092686
    106      -0.009081  -0.022102  -0.084350  -0.033554  -0.002742  -0.096758
    107      -0.011587   0.001545  -0.019554   0.005526   0.103356  -0.105497
    108      -0.018052  -0.030554  -0.101134  -0.006914  -0.016883  -0.082980
    109       0.005184  -0.048706  -0.170786   0.005311   0.046746  -0.204792
    110      -0.010433   0.002309   0.028524  -0.016318   0.083436  -0.055124
    111       0.042331  -0.058261  -0.062004  -0.014920   0.035183  -0.141091
    112      -0.001023  -0.018452  -0.085231  -0.029749   0.011463  -0.118609
    113      -0.004527  -0.051971  -0.113964   0.041404   0.151030  -0.208150
    114       0.011229  -0.158771  -0.066914  -0.041546  -0.020281  -0.040106
    115       0.002641   0.027468   0.032977  -0.073557  -0.024982  -0.018171
    116      -0.001617  -0.022315   0.060399  -0.033874   0.075600  -0.019069
    117       0.005561  -0.195916  -0.105550  -0.034332  -0.064263  -0.009908
    118       0.000722   0.017615   0.024031  -0.072305  -0.041545  -0.004582
    119       0.005059   0.015182   0.127975  -0.055428   0.022906   0.061581
    120       0.014006  -0.188685  -0.017309  -0.068478   0.009360  -0.017878
    121       0.009106   0.038136   0.096130  -0.099785  -0.080641   0.072255
    122      -0.005695  -0.019120   0.016416  -0.013918   0.094523  -0.068561
    123       0.009252  -0.148323  -0.071714  -0.037370  -0.020581  -0.049571
    124       0.003296   0.074773   0.076497  -0.080896   0.050916  -0.079408
    125      -0.000589  -0.095002   0.106927  -0.069519   0.095946   0.039389
    126       0.010919  -0.113342  -0.035177  -0.045876   0.028798  -0.082702
    127       0.003769   0.084556   0.085444  -0.082391   0.067141  -0.092788
    128      -0.002074  -0.121033   0.051368  -0.044060   0.113594  -0.027900
    129       0.010119  -0.118901  -0.118471  -0.010547  -0.055211  -0.077131
    130       0.004857   0.072117   0.024653  -0.052276   0.074581  -0.161732
    131      -0.001795  -0.101414   0.143020  -0.089560   0.093804   0.085361
    132       0.005662  -0.220939  -0.063270  -0.057791  -0.039496   0.018092
    133       0.003246   0.110330   0.172686  -0.123132   0.074300  -0.016663
    134      -0.001642  -0.121326   0.175043  -0.110726   0.098403   0.126727
[...]
  28:       272.87    0.000000  (  0.000000   0.000000   0.000000)
  29:       277.06    0.000000  (  0.000000   0.000000   0.000000)
  30:       281.35    0.000000  (  0.000000   0.000000   0.000000)
  31:       307.79    0.000000  (  0.000000   0.000000   0.000000)
  32:       355.76    0.000000  (  0.000000   0.000000   0.000000)
  33:       379.15    0.000000  (  0.000000   0.000000   0.000000)
  34:       393.15    0.000000  (  0.000000   0.000000   0.000000)
  35:       416.52    0.000000  (  0.000000   0.000000   0.000000)
  36:       431.29    0.000000  (  0.000000   0.000000   0.000000)
  37:       477.93    0.000000  (  0.000000   0.000000   0.000000)
  38:       486.19    0.000000  (  0.000000   0.000000   0.000000)
  39:       495.17    0.000000  (  0.000000   0.000000   0.000000)
  40:       520.98    0.000000  (  0.000000   0.000000   0.000000)
  41:       576.45    0.000000  (  0.000000   0.000000   0.000000)
  42:       588.51    0.000000  (  0.000000   0.000000   0.000000)
  43:       610.43    0.000000  (  0.000000   0.000000   0.000000)
  44:       655.86    0.000000  (  0.000000   0.000000   0.000000)
  45:       666.33    0.000000  (  0.000000   0.000000   0.000000)
  46:       696.12    0.000000  (  0.000000   0.000000   0.000000)
  47:       751.38    0.000000  (  0.000000   0.000000   0.000000)
  48:       763.23    0.000000  (  0.000000   0.000000   0.000000)
  49:       772.49    0.000000  (  0.000000   0.000000   0.000000)
  50:       775.90    0.000000  (  0.000000   0.000000   0.000000)
  51:       824.24    0.000000  (  0.000000   0.000000   0.000000)
  52:       826.36    0.000000  (  0.000000   0.000000   0.000000)
  53:       834.34    0.000000  (  0.000000   0.000000   0.000000)
  54:       855.71    0.000000  (  0.000000   0.000000   0.000000)
  55:       877.72    0.000000  (  0.000000   0.000000   0.000000)
  56:       917.08    0.000000  (  0.000000   0.000000   0.000000)
  57:       933.02    0.000000  (  0.000000   0.000000   0.000000)
  58:       938.25    0.000000  (  0.000000   0.000000   0.000000)
  59:       941.88    0.000000  (  0.000000   0.000000   0.000000)
  60:       942.28    0.000000  (  0.000000   0.000000   0.000000)
  61:       945.88    0.000000  (  0.000000   0.000000   0.000000)
  62:       947.28    0.000000  (  0.000000   0.000000   0.000000)
  63:       966.74    0.000000  (  0.000000   0.000000   0.000000)
  64:       985.29    0.000000  (  0.000000   0.000000   0.000000)
  65:      1009.23    0.000000  (  0.000000   0.000000   0.000000)
  66:      1030.96    0.000000  (  0.000000   0.000000   0.000000)
  67:      1045.92    0.000000  (  0.000000   0.000000   0.000000)
  68:      1069.84    0.000000  (  0.000000   0.000000   0.000000)
  69:      1077.69    0.000000  (  0.000000   0.000000   0.000000)
  70:      1093.80    0.000000  (  0.000000   0.000000   0.000000)
  71:      1099.40    0.000000  (  0.000000   0.000000   0.000000)
  72:      1103.74    0.000000  (  0.000000   0.000000   0.000000)
  73:      1118.19    0.000000  (  0.000000   0.000000   0.000000)
  74:      1124.36    0.000000  (  0.000000   0.000000   0.000000)
  75:      1129.06    0.000000  (  0.000000   0.000000   0.000000)
  76:      1132.18    0.000000  (  0.000000   0.000000   0.000000)
  77:      1179.99    0.000000  (  0.000000   0.000000   0.000000)
  78:      1182.08    0.000000  (  0.000000   0.000000   0.000000)
  79:      1184.36    0.000000  (  0.000000   0.000000   0.000000)
  80:      1205.74    0.000000  (  0.000000   0.000000   0.000000)
  81:      1206.65    0.000000  (  0.000000   0.000000   0.000000)
  82:      1216.59    0.000000  (  0.000000   0.000000   0.000000)
  83:      1243.02    0.000000  (  0.000000   0.000000   0.000000)
  84:      1249.25    0.000000  (  0.000000   0.000000   0.000000)
  85:      1255.16    0.000000  (  0.000000   0.000000   0.000000)
  86:      1274.78    0.000000  (  0.000000   0.000000   0.000000)
  87:      1277.23    0.000000  (  0.000000   0.000000   0.000000)
  88:      1278.33    0.000000  (  0.000000   0.000000   0.000000)
  89:      1282.13    0.000000  (  0.000000   0.000000   0.000000)
  90:      1294.12    0.000000  (  0.000000   0.000000   0.000000)
  91:      1296.55    0.000000  (  0.000000   0.000000   0.000000)
  92:      1306.60    0.000000  (  0.000000   0.000000   0.000000)
  93:      1331.67    0.000000  (  0.000000   0.000000   0.000000)
  94:      1350.22    0.000000  (  0.000000   0.000000   0.000000)
  95:      1353.84    0.000000  (  0.000000   0.000000   0.000000)
  96:      1365.72    0.000000  (  0.000000   0.000000   0.000000)
  97:      1367.71    0.000000  (  0.000000   0.000000   0.000000)
  98:      1378.89    0.000000  (  0.000000   0.000000   0.000000)
  99:      1419.41    0.000000  (  0.000000   0.000000   0.000000)
 100:      1428.82    0.000000  (  0.000000   0.000000   0.000000)
 101:      1430.07    0.000000  (  0.000000   0.000000   0.000000)
 102:      1444.69    0.000000  (  0.000000   0.000000   0.000000)
 103:      1450.34    0.000000  (  0.000000   0.000000   0.000000)
 104:      1467.60    0.000000  (  0.000000   0.000000   0.000000)
 105:      1492.80    0.000000  (  0.000000   0.000000   0.000000)
 106:      1503.86    0.000000  (  0.000000   0.000000   0.000000)
 107:      1504.85    0.000000  (  0.000000   0.000000   0.000000)
 108:      1506.15    0.000000  (  0.000000   0.000000   0.000000)
 109:      1508.39    0.000000  (  0.000000   0.000000   0.000000)
 110:      1509.01    0.000000  (  0.000000   0.000000   0.000000)
 111:      1509.62    0.000000  (  0.000000   0.000000   0.000000)
 112:      1511.06    0.000000  (  0.000000   0.000000   0.000000)
 113:      1512.83    0.000000  (  0.000000   0.000000   0.000000)
 114:      1534.49    0.000000  (  0.000000   0.000000   0.000000)
 115:      1556.64    0.000000  (  0.000000   0.000000   0.000000)
 116:      1562.85    0.000000  (  0.000000   0.000000   0.000000)
 117:      1628.09    0.000000  (  0.000000   0.000000   0.000000)
 118:      2657.30    0.000000  (  0.000000   0.000000   0.000000)
 119:      2880.57    0.000000  (  0.000000   0.000000   0.000000)
 120:      2924.95    0.000000  (  0.000000   0.000000   0.000000)
 121:      2937.39    0.000000  (  0.000000   0.000000   0.000000)
 122:      2943.96    0.000000  (  0.000000   0.000000   0.000000)
 123:      2954.95    0.000000  (  0.000000   0.000000   0.000000)
 124:      2958.57    0.000000  (  0.000000   0.000000   0.000000)
 125:      2961.84    0.000000  (  0.000000   0.000000   0.000000)
 126:      2966.84    0.000000  (  0.000000   0.000000   0.000000)
 127:      2967.97    0.000000  (  0.000000   0.000000   0.000000)
 128:      2972.40    0.000000  (  0.000000   0.000000   0.000000)
 129:      2972.86    0.000000  (  0.000000   0.000000   0.000000)
 130:      2979.84    0.000000  (  0.000000   0.000000   0.000000)
 131:      2980.57    0.000000  (  0.000000   0.000000   0.000000)
 132:      2981.40    0.000000  (  0.000000   0.000000   0.000000)
 133:      2988.18    0.000000  (  0.000000   0.000000   0.000000)
 134:      2991.56    0.000000  (  0.000000   0.000000   0.000000)
 135:      3000.25    0.000000  (  0.000000   0.000000   0.000000)
 136:      3009.73    0.000000  (  0.000000   0.000000   0.000000)
 137:      3041.54    0.000000  (  0.000000   0.000000   0.000000)
 138:      3057.93    0.000000  (  0.000000   0.000000   0.000000)
 139:      3060.36    0.000000  (  0.000000   0.000000   0.000000)
 140:      3066.91    0.000000  (  0.000000   0.000000   0.000000)
 141:      3073.50    0.000000  (  0.000000   0.000000   0.000000)
 142:      3080.34    0.000000  (  0.000000   0.000000   0.000000)
 143:      3094.11    0.000000  (  0.000000   0.000000   0.000000)
 144:      3399.12    0.000000  (  0.000000   0.000000   0.000000)
 145:      3584.98    0.000000  (  0.000000   0.000000   0.000000)
 146:      3636.27    0.000000  (  0.000000   0.000000   0.000000)

The first frequency considered to be a vibration is 7
The total number of vibrations considered is 140


--------------------------
THERMOCHEMISTRY AT 298.15K
--------------------------

Temperature         ... 298.15 K
Pressure            ... 1.00 atm
Total Mass          ... 270.42 AMU

Throughout the following assumptions are being made:
  (1) The electronic state is orbitally nondegenerate
  (2) There are no thermally accessible electronically excited states
  (3) Hindered rotations indicated by low frequency modes are not
      treated as such but are treated as vibrations and this may
      cause some error
  (4) All equations used are the standard statistical mechanics
      equations for an ideal gas
  (5) All vibrations are strictly harmonic

freq.      32.39  E(vib)   ...       0.55 
freq.      39.45  E(vib)   ...       0.54 
freq.      40.91  E(vib)   ...       0.54 
freq.      48.42  E(vib)   ...       0.53 
freq.      66.61  E(vib)   ...       0.50 
freq.      67.02  E(vib)   ...       0.50 
freq.      76.09  E(vib)   ...       0.49 
freq.      85.19  E(vib)   ...       0.48 
freq.      91.97  E(vib)   ...       0.47 
freq.      99.17  E(vib)   ...       0.46 
freq.     101.73  E(vib)   ...       0.46 
freq.     114.97  E(vib)   ...       0.44 
freq.     128.12  E(vib)   ...       0.43 
freq.     139.66  E(vib)   ...       0.42 
freq.     141.80  E(vib)   ...       0.41 
freq.     151.57  E(vib)   ...       0.40 
freq.     177.73  E(vib)   ...       0.37 
freq.     192.14  E(vib)   ...       0.36 
freq.     218.85  E(vib)   ...       0.33 
freq.     246.31  E(vib)   ...       0.31 
freq.     265.46  E(vib)   ...       0.29 
freq.     272.87  E(vib)   ...       0.29 
freq.     277.06  E(vib)   ...       0.28 
freq.     281.35  E(vib)   ...       0.28 
freq.     307.79  E(vib)   ...       0.26 
freq.     355.76  E(vib)   ...       0.22 
freq.     379.15  E(vib)   ...       0.21 
freq.     393.15  E(vib)   ...       0.20 
freq.     416.52  E(vib)   ...       0.18 
freq.     431.29  E(vib)   ...       0.18 
freq.     477.93  E(vib)   ...       0.15 
freq.     486.19  E(vib)   ...       0.15 
freq.     495.17  E(vib)   ...       0.14 
freq.     520.98  E(vib)   ...       0.13 
freq.     576.45  E(vib)   ...       0.11 
freq.     588.51  E(vib)   ...       0.10 
freq.     610.43  E(vib)   ...       0.10 
freq.     655.86  E(vib)   ...       0.08 
freq.     666.33  E(vib)   ...       0.08 
freq.     696.12  E(vib)   ...       0.07 
freq.     751.38  E(vib)   ...       0.06 
freq.     763.23  E(vib)   ...       0.06 
freq.     772.49  E(vib)   ...       0.05 
freq.     775.90  E(vib)   ...       0.05 
freq.     824.24  E(vib)   ...       0.04 
freq.     826.36  E(vib)   ...       0.04 
freq.     834.34  E(vib)   ...       0.04 
freq.     855.71  E(vib)   ...       0.04 
freq.     877.72  E(vib)   ...       0.04 
freq.     917.08  E(vib)   ...       0.03 
freq.     933.02  E(vib)   ...       0.03 
freq.     938.25  E(vib)   ...       0.03 
freq.     941.88  E(vib)   ...       0.03 
freq.     942.28  E(vib)   ...       0.03 
freq.     945.88  E(vib)   ...       0.03 
freq.     947.28  E(vib)   ...       0.03 
freq.     966.74  E(vib)   ...       0.03 
freq.     985.29  E(vib)   ...       0.02 
freq.    1009.23  E(vib)   ...       0.02 
freq.    1030.96  E(vib)   ...       0.02 
freq.    1045.92  E(vib)   ...       0.02 
freq.    1069.84  E(vib)   ...       0.02 
freq.    1077.69  E(vib)   ...       0.02 
freq.    1093.80  E(vib)   ...       0.02 
freq.    1099.40  E(vib)   ...       0.02 
freq.    1103.74  E(vib)   ...       0.02 
freq.    1118.19  E(vib)   ...       0.01 
freq.    1124.36  E(vib)   ...       0.01 
freq.    1129.06  E(vib)   ...       0.01 
freq.    1132.18  E(vib)   ...       0.01 
freq.    1179.99  E(vib)   ...       0.01 
freq.    1182.08  E(vib)   ...       0.01 
freq.    1184.36  E(vib)   ...       0.01 
freq.    1205.74  E(vib)   ...       0.01 
freq.    1206.65  E(vib)   ...       0.01 
freq.    1216.59  E(vib)   ...       0.01 
freq.    1243.02  E(vib)   ...       0.01 
freq.    1249.25  E(vib)   ...       0.01 
freq.    1255.16  E(vib)   ...       0.01 
freq.    1274.78  E(vib)   ...       0.01 
freq.    1277.23  E(vib)   ...       0.01 
freq.    1278.33  E(vib)   ...       0.01 
freq.    1282.13  E(vib)   ...       0.01 
freq.    1294.12  E(vib)   ...       0.01 
freq.    1296.55  E(vib)   ...       0.01 
freq.    1306.60  E(vib)   ...       0.01 
freq.    1331.67  E(vib)   ...       0.01 
freq.    1350.22  E(vib)   ...       0.01 
freq.    1353.84  E(vib)   ...       0.01 
freq.    1365.72  E(vib)   ...       0.01 
freq.    1367.71  E(vib)   ...       0.01 
freq.    1378.89  E(vib)   ...       0.01 
freq.    1419.41  E(vib)   ...       0.00 
freq.    1428.82  E(vib)   ...       0.00 
freq.    1430.07  E(vib)   ...       0.00 
freq.    1444.69  E(vib)   ...       0.00 
freq.    1450.34  E(vib)   ...       0.00 
freq.    1467.60  E(vib)   ...       0.00 
freq.    1492.80  E(vib)   ...       0.00 
freq.    1503.86  E(vib)   ...       0.00 
freq.    1504.85  E(vib)   ...       0.00 
freq.    1506.15  E(vib)   ...       0.00 
freq.    1508.39  E(vib)   ...       0.00 
freq.    1509.01  E(vib)   ...       0.00 
freq.    1509.62  E(vib)   ...       0.00 
freq.    1511.06  E(vib)   ...       0.00 
freq.    1512.83  E(vib)   ...       0.00 
freq.    1534.49  E(vib)   ...       0.00 
freq.    1556.64  E(vib)   ...       0.00 
freq.    1562.85  E(vib)   ...       0.00 
freq.    1628.09  E(vib)   ...       0.00 
freq.    2657.30  E(vib)   ...       0.00 
freq.    2880.57  E(vib)   ...       0.00 
freq.    2924.95  E(vib)   ...       0.00 
freq.    2937.39  E(vib)   ...       0.00 
freq.    2943.96  E(vib)   ...       0.00 
freq.    2954.95  E(vib)   ...       0.00 
freq.    2958.57  E(vib)   ...       0.00 
freq.    2961.84  E(vib)   ...       0.00 
freq.    2966.84  E(vib)   ...       0.00 
freq.    2967.97  E(vib)   ...       0.00 
freq.    2972.40  E(vib)   ...       0.00 
freq.    2972.86  E(vib)   ...       0.00 
freq.    2979.84  E(vib)   ...       0.00 
freq.    2980.57  E(vib)   ...       0.00 
freq.    2981.40  E(vib)   ...       0.00 
freq.    2988.18  E(vib)   ...       0.00 
freq.    2991.56  E(vib)   ...       0.00 
freq.    3000.25  E(vib)   ...       0.00 
freq.    3009.73  E(vib)   ...       0.00 
freq.    3041.54  E(vib)   ...       0.00 
freq.    3057.93  E(vib)   ...       0.00 
freq.    3060.36  E(vib)   ...       0.00 
freq.    3066.91  E(vib)   ...       0.00 
freq.    3073.50  E(vib)   ...       0.00 
freq.    3080.34  E(vib)   ...       0.00 
freq.    3094.11  E(vib)   ...       0.00 
freq.    3399.12  E(vib)   ...       0.00 
freq.    3584.98  E(vib)   ...       0.00 
freq.    3636.27  E(vib)   ...       0.00 

------------
INNER ENERGY
------------

The inner energy is: U= E(el) + E(ZPE) + E(vib) + E(rot) + E(trans)
    E(el)   - is the total energy from the electronic structure calculation
              = E(kin-el) + E(nuc-el) + E(el-el) + E(nuc-nuc)
    E(ZPE)  - the the zero temperature vibrational energy from the frequency calculation
    E(vib)  - the the finite temperature correction to E(ZPE) due to population
              of excited vibrational states
    E(rot)  - is the rotational thermal energy
    E(trans)- is the translational thermal energy

Summary of contributions to the inner energy U:
Electronic energy                ...    -61.35175197 Eh
Zero point energy                ...      0.42131594 Eh     264.38 kcal/mol
Thermal vibrational correction   ...      0.02169865 Eh      13.62 kcal/mol
Thermal rotational correction    ...      0.00141627 Eh       0.89 kcal/mol
Thermal translational correction ...      0.00141627 Eh       0.89 kcal/mol
-----------------------------------------------------------------------
Total thermal energy                    -60.90590484 Eh


Summary of corrections to the electronic energy:
(perhaps to be used in another calculation)
Total thermal correction                  0.02453120 Eh      15.39 kcal/mol
Non-thermal (ZPE) correction              0.42131594 Eh     264.38 kcal/mol
-----------------------------------------------------------------------
Total correction                          0.44584713 Eh     279.77 kcal/mol


--------
ENTHALPY
--------

The enthalpy is H = U + kB*T
                kB is Boltzmann's constant
Total free energy                 ...    -60.90590484 Eh 
Thermal Enthalpy correction       ...      0.00094421 Eh       0.59 kcal/mol
-----------------------------------------------------------------------
Total Enthalpy                    ...    -60.90496063 Eh


Note: Only C1 symmetry has been detected, increase convergence thresholds 
      if your molecule has a higher symmetry. Symmetry factor of 1.0 is   
      used for the rotational entropy correction. 
 

Note: Rotational entropy computed according to Herzberg 
Infrared and Raman Spectra, Chapter V,1, Van Nostrand Reinhold, 1945 
Point Group:  C1, Symmetry Number:   1  
Rotational constants in cm-1:     0.012846     0.006045     0.005074 

Vibrational entropy computed according to the QRRHO of S. Grimme
Chem.Eur.J. 2012 18 9955


-------
ENTROPY
-------

The entropy contributions are T*S = T*(S(el)+S(vib)+S(rot)+S(trans))
     S(el)   - electronic entropy
     S(vib)  - vibrational entropy
     S(rot)  - rotational entropy
     S(trans)- translational entropy
The entropies will be listed as mutliplied by the temperature to get
units of energy

Electronic entropy                ...      0.00000000 Eh      0.00 kcal/mol
Vibrational entropy               ...      0.03934439 Eh     24.69 kcal/mol
Rotational entropy                ...      0.01647266 Eh     10.34 kcal/mol
Translational entropy             ...      0.02028014 Eh     12.73 kcal/mol
-----------------------------------------------------------------------
Final entropy term                ...      0.07609719 Eh     47.75 kcal/mol

In case the symmetry of your molecule has not been determined correctly
or in case you have a reason to use a different symmetry number we print 
out the resulting rotational entropy values for sn=1,12 :
 --------------------------------------------------------
|  sn= 1 | S(rot)=       0.01647266 Eh     10.34 kcal/mol|
|  sn= 2 | S(rot)=       0.01581820 Eh      9.93 kcal/mol|
|  sn= 3 | S(rot)=       0.01543537 Eh      9.69 kcal/mol|
|  sn= 4 | S(rot)=       0.01516374 Eh      9.52 kcal/mol|
|  sn= 5 | S(rot)=       0.01495306 Eh      9.38 kcal/mol|
|  sn= 6 | S(rot)=       0.01478091 Eh      9.28 kcal/mol|
|  sn= 7 | S(rot)=       0.01463536 Eh      9.18 kcal/mol|
|  sn= 8 | S(rot)=       0.01450929 Eh      9.10 kcal/mol|
|  sn= 9 | S(rot)=       0.01439808 Eh      9.03 kcal/mol|
|  sn=10 | S(rot)=       0.01429860 Eh      8.97 kcal/mol|
|  sn=11 | S(rot)=       0.01420861 Eh      8.92 kcal/mol|
|  sn=12 | S(rot)=       0.01412645 Eh      8.86 kcal/mol|
 --------------------------------------------------------


-------------------
GIBBS FREE ENERGY
-------------------

The Gibbs free energy is G = H - T*S

Total enthalpy                    ...    -60.90496063 Eh 
Total entropy correction          ...     -0.07609719 Eh    -47.75 kcal/mol
-----------------------------------------------------------------------
Final Gibbs free energy         ...    -60.98105782 Eh

For completeness - the Gibbs free energy minus the electronic energy
G-E(el)                           ...      0.37069415 Eh    232.61 kcal/mol


Total Time for Numerical Frequencies  :       230.435 sec
Time for Reference State(s)           :         0.176 sec
Time for Displacements                :       211.188 sec

Timings for individual modules:

Sum of individual times         ...        0.344 sec (=   0.006 min)
XTB module                      ...        0.344 sec (=   0.006 min) 100.0 %
                             ****ORCA TERMINATED NORMALLY****
TOTAL RUN TIME: 0 days 0 hours 3 minutes 51 seconds 397 msec
(SLURM) EXECUTION TIME: 231.421615663 seconds.
